<event>
 5    1  0.3005426E+001  0.1599567E+01  0.7818608E-02  0.3353834E+00
         11   -1    0    0    0    0  0.00000000000E+00  0.00000000000E+00  0.39999999674E+01  0.40000000000E+01  0.51100000000E-03 0. -1.
    9000002   -1    0    0    0    0 -0.00000000000E+00 -0.00000000000E+00  0.00000000000E+00  0.93800000000E+00  0.93800000000E+00 0. -1.
         11    1    1    2    0    0 -0.50471505856E-01 -0.38111063777E-01  0.60734444859E+00  0.61062866494E+00  0.51100000000E-03 0. -1.
    9000002    1    1    2    0    0  0.30041413494E+00  0.29772964290E+00  0.12112707490E+00  0.10360537443E+01  0.93800000000E+00 0. -1.
         22    1    1    2    0    0 -0.24994262909E+00 -0.25961857912E+00  0.32715284439E+01  0.32913175908E+01  0.00000000000E+00 0. -1.
</event>
<event>
 5    1  0.3005426E+001  0.1596255E+01  0.7818608E-02  0.3357438E+00
         11   -1    0    0    0    0  0.00000000000E+00  0.00000000000E+00  0.39999999674E+01  0.40000000000E+01  0.51100000000E-03 0.  1.
    9000002   -1    0    0    0    0 -0.00000000000E+00 -0.00000000000E+00  0.00000000000E+00  0.93800000000E+00  0.93800000000E+00 0. -1.
         11    1    1    2    0    0  0.65102634436E-01  0.11524542707E+00  0.88574150811E+00  0.89557698819E+00  0.51100000000E-03 0.  1.
    9000002    1    1    2    0    0 -0.47289215271E+00 -0.32873527486E+00  0.23359025975E+00  0.11252121038E+01  0.93800000000E+00 0. -1.
         22    1    1    2    0    0  0.40778951828E+00  0.21348984779E+00  0.28806681995E+01  0.29172109080E+01  0.00000000000E+00 0.  1.
</event>
<event>
 5    1  0.3005426E+001  0.1599674E+01  0.7818608E-02  0.3353718E+00
         11   -1    0    0    0    0  0.00000000000E+00  0.00000000000E+00  0.39999999674E+01  0.40000000000E+01  0.51100000000E-03 0. -1.
    9000002   -1    0    0    0    0 -0.00000000000E+00 -0.00000000000E+00  0.00000000000E+00  0.93800000000E+00  0.93800000000E+00 0. -1.
         11    1    1    2    0    0 -0.44459974133E-01 -0.84471869066E-02  0.26913753903E+00  0.27291632473E+00  0.51100000000E-03 0. -1.
    9000002    1    1    2    0    0  0.60613823559E+00  0.10753698783E+00  0.26530812391E+00  0.11529094349E+01  0.93800000000E+00 0. -1.
         22    1    1    2    0    0 -0.56167826146E+00 -0.99089800928E-01  0.34655543044E+01  0.35121742404E+01  0.00000000000E+00 0. -1.
</event>
<event>
 5    1  0.3005426E+001  0.1599677E+01  0.7818608E-02  0.3353714E+00
         11   -1    0    0    0    0  0.00000000000E+00  0.00000000000E+00  0.39999999674E+01  0.40000000000E+01  0.51100000000E-03 0.  1.
    9000002   -1    0    0    0    0 -0.00000000000E+00 -0.00000000000E+00  0.00000000000E+00  0.93800000000E+00  0.93800000000E+00 0.  1.
         11    1    1    2    0    0  0.14684030407E+00  0.72870602635E-01  0.14120868472E+01  0.14215701618E+01  0.51100000000E-03 0.  1.
    9000002    1    1    2    0    0 -0.40192966749E+00 -0.20088234890E+00  0.13711484745E+00  0.10490689477E+01  0.93800000000E+00 0.  1.
         22    1    1    2    0    0  0.25508936342E+00  0.12801174627E+00  0.24507982727E+01  0.24673608905E+01  0.00000000000E+00 0.  1.
</event>
<event>
 5    1  0.3005426E+001  0.1599672E+01  0.7818608E-02  0.3353720E+00
         11   -1    0    0    0    0  0.00000000000E+00  0.00000000000E+00  0.39999999674E+01  0.40000000000E+01  0.51100000000E-03 0.  1.
    9000002   -1    0    0    0    0 -0.00000000000E+00 -0.00000000000E+00  0.00000000000E+00  0.93800000000E+00  0.93800000000E+00 0.  1.
         11    1    1    2    0    0  0.58671960084E-01 -0.13640391190E+00  0.14011873537E+01  0.14090332456E+01  0.51100000000E-03 0.  1.
    9000002    1    1    2    0    0 -0.15992888219E+00  0.37184811605E+00  0.11059164561E+00  0.10275810337E+01  0.93800000000E+00 0.  1.
         22    1    1    2    0    0  0.10125692211E+00 -0.23544420415E+00  0.24882209681E+01  0.25013857207E+01  0.00000000000E+00 0.  1.
</event>
<event>
 5    1  0.3005426E+001  0.1598949E+01  0.7818608E-02  0.3354505E+00
         11   -1    0    0    0    0  0.00000000000E+00  0.00000000000E+00  0.39999999674E+01  0.40000000000E+01  0.51100000000E-03 0.  1.
    9000002   -1    0    0    0    0 -0.00000000000E+00 -0.00000000000E+00  0.00000000000E+00  0.93800000000E+00  0.93800000000E+00 0.  1.
         11    1    1    2    0    0 -0.92802878959E-02  0.18235274390E+00  0.12766065735E+01  0.12895980970E+01  0.51100000000E-03 0.  1.
    9000002    1    1    2    0    0  0.73131083070E-01 -0.46851301492E+00  0.15392179919E+00  0.10622563348E+01  0.93800000000E+00 0.  1.
         22    1    1    2    0    0 -0.63850795174E-01  0.28616027102E+00  0.25694715946E+01  0.25861455683E+01  0.00000000000E+00 0.  1.
</event>
<event>
 5    1  0.3005426E+001  0.1599250E+01  0.7818608E-02  0.3354178E+00
         11   -1    0    0    0    0  0.00000000000E+00  0.00000000000E+00  0.39999999674E+01  0.40000000000E+01  0.51100000000E-03 0.  1.
    9000002   -1    0    0    0    0 -0.00000000000E+00 -0.00000000000E+00  0.00000000000E+00  0.93800000000E+00  0.93800000000E+00 0. -1.
         11    1    1    2    0    0  0.13956990133E+00  0.43676757196E-01  0.12102213658E+01  0.12190256076E+01  0.51100000000E-03 0.  1.
    9000002    1    1    2    0    0 -0.38828475137E+00 -0.97107107644E-01  0.10841381871E+00  0.10255693027E+01  0.93800000000E+00 0. -1.
         22    1    1    2    0    0  0.24871485003E+00  0.53430350449E-01  0.26813647828E+01  0.26934050898E+01  0.00000000000E+00 0.  1.
</event>
<event>
 5    1  0.3005426E+001  0.1599659E+01  0.7818608E-02  0.3353734E+00
         11   -1    0    0    0    0  0.00000000000E+00  0.00000000000E+00  0.39999999674E+01  0.40000000000E+01  0.51100000000E-03 0. -1.
    9000002   -1    0    0    0    0 -0.00000000000E+00 -0.00000000000E+00  0.00000000000E+00  0.93800000000E+00  0.93800000000E+00 0.  1.
         11    1    1    2    0    0  0.37699861420E-01  0.80542072103E-01  0.95076729666E+00  0.95491728356E+00  0.51100000000E-03 0. -1.
    9000002    1    1    2    0    0 -0.16108166427E+00 -0.34754783696E+00  0.98782293869E-01  0.10180072412E+01  0.93800000000E+00 0.  1.
         22    1    1    2    0    0  0.12338180285E+00  0.26700576486E+00  0.29504503768E+01  0.29650754752E+01  0.00000000000E+00 0. -1.
</event>
<event>
 5    1  0.3005426E+001  0.1599677E+01  0.7818608E-02  0.3353715E+00
         11   -1    0    0    0    0  0.00000000000E+00  0.00000000000E+00  0.39999999674E+01  0.40000000000E+01  0.51100000000E-03 0. -1.
    9000002   -1    0    0    0    0 -0.00000000000E+00 -0.00000000000E+00  0.00000000000E+00  0.93800000000E+00  0.93800000000E+00 0.  1.
         11    1    1    2    0    0 -0.20131215758E-01 -0.10209730068E+00  0.10699901548E+01  0.10750387514E+01  0.51100000000E-03 0. -1.
    9000002    1    1    2    0    0  0.71567590277E-01  0.37069833753E+00  0.95878092767E-01  0.10156651939E+01  0.93800000000E+00 0.  1.
         22    1    1    2    0    0 -0.51436374519E-01 -0.26860103686E+00  0.28341317198E+01  0.28472960547E+01  0.00000000000E+00 0. -1.
</event>
<event>
 5    1  0.3005426E+001  0.1594552E+01  0.7818608E-02  0.3359297E+00
         11   -1    0    0    0    0  0.00000000000E+00  0.00000000000E+00  0.39999999674E+01  0.40000000000E+01  0.51100000000E-03 0.  1.
    9000002   -1    0    0    0    0 -0.00000000000E+00 -0.00000000000E+00  0.00000000000E+00  0.93800000000E+00  0.93800000000E+00 0. -1.
         11    1    1    2    0    0 -0.10413312923E+00 -0.49168845147E-01  0.51493843874E+00  0.52765816657E+00  0.51100000000E-03 0.  1.
    9000002    1    1    2    0    0  0.34922803350E+00  0.26610510562E+00  0.13512103629E+00  0.10444490610E+01  0.93800000000E+00 0. -1.
         22    1    1    2    0    0 -0.24509490427E+00 -0.21693626047E+00  0.33499404923E+01  0.33658927724E+01  0.00000000000E+00 0.  1.
</event>
<event>
 5    1  0.3005426E+001  0.1599676E+01  0.7818608E-02  0.3353715E+00
         11   -1    0    0    0    0  0.00000000000E+00  0.00000000000E+00  0.39999999674E+01  0.40000000000E+01  0.51100000000E-03 0. -1.
    9000002   -1    0    0    0    0 -0.00000000000E+00 -0.00000000000E+00  0.00000000000E+00  0.93800000000E+00  0.93800000000E+00 0.  1.
         11    1    1    2    0    0  0.13500432856E+00  0.65771707696E-01  0.13748735180E+01  0.13830508081E+01  0.51100000000E-03 0. -1.
    9000002    1    1    2    0    0 -0.38012207611E+00 -0.18784114181E+00  0.12165099661E+00  0.10365423543E+01  0.93800000000E+00 0.  1.
         22    1    1    2    0    0  0.24511774755E+00  0.12206943412E+00  0.25034754528E+01  0.25184068376E+01  0.00000000000E+00 0. -1.
</event>
<event>
 5    1  0.3005426E+001  0.1599675E+01  0.7818608E-02  0.3353716E+00
         11   -1    0    0    0    0  0.00000000000E+00  0.00000000000E+00  0.39999999674E+01  0.40000000000E+01  0.51100000000E-03 0.  1.
    9000002   -1    0    0    0    0 -0.00000000000E+00 -0.00000000000E+00  0.00000000000E+00  0.93800000000E+00  0.93800000000E+00 0. -1.
         11    1    1    2    0    0  0.13321493609E+00  0.18467095381E-02  0.11844131926E+01  0.11918827549E+01  0.51100000000E-03 0.  1.
    9000002    1    1    2    0    0 -0.43998885421E+00 -0.37342211651E-02  0.13130365101E+00  0.10443604670E+01  0.93800000000E+00 0. -1.
         22    1    1    2    0    0  0.30677391813E+00  0.18875116270E-02  0.26842831237E+01  0.27017567781E+01  0.00000000000E+00 0. -1.
</event>
<event>
 5    1  0.3005426E+001  0.1599643E+01  0.7818608E-02  0.3353751E+00
         11   -1    0    0    0    0  0.00000000000E+00  0.00000000000E+00  0.39999999674E+01  0.40000000000E+01  0.51100000000E-03 0. -1.
    9000002   -1    0    0    0    0 -0.00000000000E+00 -0.00000000000E+00  0.00000000000E+00  0.93800000000E+00  0.93800000000E+00 0.  1.
         11    1    1    2    0    0  0.13388841400E+00 -0.22638732829E-01  0.80083638894E+00  0.81226707590E+00  0.51100000000E-03 0. -1.
    9000002    1    1    2    0    0 -0.63100358898E+00  0.80043330627E-01  0.28458340350E+00  0.11685051038E+01  0.93800000000E+00 0.  1.
         22    1    1    2    0    0  0.49711517498E+00 -0.57404597798E-01  0.29145801749E+01  0.29572278203E+01  0.00000000000E+00 0. -1.
</event>
<event>
 5    1  0.3005426E+001  0.1599109E+01  0.7818608E-02  0.3354331E+00
         11   -1    0    0    0    0  0.00000000000E+00  0.00000000000E+00  0.39999999674E+01  0.40000000000E+01  0.51100000000E-03 0. -1.
    9000002   -1    0    0    0    0 -0.00000000000E+00 -0.00000000000E+00  0.00000000000E+00  0.93800000000E+00  0.93800000000E+00 0. -1.
         11    1    1    2    0    0  0.97281378068E-01 -0.30319190916E-01  0.88770305228E+00  0.89353225460E+00  0.51100000000E-03 0. -1.
    9000002    1    1    2    0    0 -0.52027843078E+00  0.11343428127E+00  0.19574405593E+00  0.10962284056E+01  0.93800000000E+00 0. -1.
         22    1    1    2    0    0  0.42299705272E+00 -0.83115090358E-01  0.29165528591E+01  0.29482393398E+01  0.00000000000E+00 0. -1.
</event>
<event>
 5    1  0.3005426E+001  0.1599663E+01  0.7818608E-02  0.3353730E+00
         11   -1    0    0    0    0  0.00000000000E+00  0.00000000000E+00  0.39999999674E+01  0.40000000000E+01  0.51100000000E-03 0. -1.
    9000002   -1    0    0    0    0 -0.00000000000E+00 -0.00000000000E+00  0.00000000000E+00  0.93800000000E+00  0.93800000000E+00 0. -1.
         11    1    1    2    0    0  0.80244801811E-01  0.90399481802E-01  0.10143873951E+01  0.10215641649E+01  0.51100000000E-03 0. -1.
    9000002    1    1    2    0    0 -0.29363829261E+00 -0.33502335678E+00  0.13471703172E+00  0.10471183195E+01  0.93800000000E+00 0. -1.
         22    1    1    2    0    0  0.21339349080E+00  0.24462387498E+00  0.28508955405E+01  0.28693175155E+01  0.00000000000E+00 0. -1.
</event>
<event>
 5    1  0.3005426E+001  0.1599161E+01  0.7818608E-02  0.3354274E+00
         11   -1    0    0    0    0  0.00000000000E+00  0.00000000000E+00  0.39999999674E+01  0.40000000000E+01  0.51100000000E-03 0.  1.
    9000002   -1    0    0    0    0 -0.00000000000E+00 -0.00000000000E+00  0.00000000000E+00  0.93800000000E+00  0.93800000000E+00 0. -1.
         11    1    1    2    0    0  0.11401150445E+00 -0.25759298327E+00  0.92428911153E+00  0.96626258905E+00  0.51100000000E-03 0.  1.
    9000002    1    1    2    0    0 -0.44557387855E+00  0.93340343251E+00  0.87972665151E+00  0.16503154336E+01  0.93800000000E+00 0. -1.
         22    1    1    2    0    0  0.33156237411E+00 -0.67581044924E+00  0.21959842043E+01  0.23214219773E+01  0.00000000000E+00 0.  1.
</event>
<event>
 5    1  0.3005426E+001  0.1599589E+01  0.7818608E-02  0.3353810E+00
         11   -1    0    0    0    0  0.00000000000E+00  0.00000000000E+00  0.39999999674E+01  0.40000000000E+01  0.51100000000E-03 0.  1.
    9000002   -1    0    0    0    0 -0.00000000000E+00 -0.00000000000E+00  0.00000000000E+00  0.93800000000E+00  0.93800000000E+00 0.  1.
         11    1    1    2    0    0  0.11170294327E-01  0.95945636852E-02  0.20604581532E+00  0.20657194935E+00  0.51100000000E-03 0.  1.
    9000002    1    1    2    0    0 -0.30605110980E+00 -0.19930302007E+00  0.89664264200E-01  0.10105803560E+01  0.93800000000E+00 0.  1.
         22    1    1    2    0    0  0.29488081547E+00  0.18970845639E+00  0.37042898878E+01  0.37208476947E+01  0.00000000000E+00 0.  1.
</event>
<event>
 5    1  0.3005426E+001  0.1599641E+01  0.7818608E-02  0.3353753E+00
         11   -1    0    0    0    0  0.00000000000E+00  0.00000000000E+00  0.39999999674E+01  0.40000000000E+01  0.51100000000E-03 0. -1.
    9000002   -1    0    0    0    0 -0.00000000000E+00 -0.00000000000E+00  0.00000000000E+00  0.93800000000E+00  0.93800000000E+00 0.  1.
         11    1    1    2    0    0 -0.56010863339E-01  0.38793028905E-02  0.38746259567E+00  0.39150962947E+00  0.51100000000E-03 0. -1.
    9000002    1    1    2    0    0  0.54613297388E+00 -0.80626564499E-01  0.21061576994E+00  0.11085868800E+01  0.93800000000E+00 0.  1.
         22    1    1    2    0    0 -0.49012211055E+00  0.76747261609E-01  0.34019216017E+01  0.34379034905E+01  0.00000000000E+00 0. -1.
</event>
<event>
 5    1  0.3005426E+001  0.1599634E+01  0.7818608E-02  0.3353761E+00
         11   -1    0    0    0    0  0.00000000000E+00  0.00000000000E+00  0.39999999674E+01  0.40000000000E+01  0.51100000000E-03 0. -1.
    9000002   -1    0    0    0    0 -0.00000000000E+00 -0.00000000000E+00  0.00000000000E+00  0.93800000000E+00  0.93800000000E+00 0.  1.
         11    1    1    2    0    0  0.87912216076E-01  0.44808473873E-01  0.11542293674E+01  0.11584394895E+01  0.51100000000E-03 0. -1.
    9000002    1    1    2    0    0 -0.32098195298E+00 -0.14243021667E+00  0.82730188185E-01  0.10049895844E+01  0.93800000000E+00 0.  1.
         22    1    1    2    0    0  0.23306973690E+00  0.97621742799E-01  0.27630404118E+01  0.27745709261E+01  0.00000000000E+00 0. -1.
</event>
<event>
 5    1  0.3005426E+001  0.1599677E+01  0.7818608E-02  0.3353714E+00
         11   -1    0    0    0    0  0.00000000000E+00  0.00000000000E+00  0.39999999674E+01  0.40000000000E+01  0.51100000000E-03 0. -1.
    9000002   -1    0    0    0    0 -0.00000000000E+00 -0.00000000000E+00  0.00000000000E+00  0.93800000000E+00  0.93800000000E+00 0.  1.
         11    1    1    2    0    0  0.10002521283E+00 -0.12071460172E+00  0.90159448109E+00  0.91512290307E+00  0.51100000000E-03 0.  1.
    9000002    1    1    2    0    0 -0.41007106079E+00  0.49732830825E+00  0.29281475818E+00  0.11751928368E+01  0.93800000000E+00 0.  1.
         22    1    1    2    0    0  0.31004584796E+00 -0.37661370652E+00  0.28055907281E+01  0.28476842601E+01  0.00000000000E+00 0. -1.
</event>
<event>
 5    1  0.3005426E+001  0.1599677E+01  0.7818608E-02  0.3353714E+00
         11   -1    0    0    0    0  0.00000000000E+00  0.00000000000E+00  0.39999999674E+01  0.40000000000E+01  0.51100000000E-03 0.  1.
    9000002   -1    0    0    0    0 -0.00000000000E+00 -0.00000000000E+00  0.00000000000E+00  0.93800000000E+00  0.93800000000E+00 0. -1.
         11    1    1    2    0    0 -0.14114906393E+00 -0.16939449691E+00  0.10515724780E+01  0.10744405482E+01  0.51100000000E-03 0.  1.
    9000002    1    1    2    0    0  0.47990543863E+00  0.57849220011E+00  0.40976299323E+00  0.12699260475E+01  0.93800000000E+00 0. -1.
         22    1    1    2    0    0 -0.33875637470E+00 -0.40909770321E+00  0.25386644961E+01  0.25936334043E+01  0.00000000000E+00 0.  1.
</event>
<event>
 5    1  0.3005426E+001  0.1573854E+01  0.7818608E-02  0.3382240E+00
         11   -1    0    0    0    0  0.00000000000E+00  0.00000000000E+00  0.39999999674E+01  0.40000000000E+01  0.51100000000E-03 0.  1.
    9000002   -1    0    0    0    0 -0.00000000000E+00 -0.00000000000E+00  0.00000000000E+00  0.93800000000E+00  0.93800000000E+00 0.  1.
         11    1    1    2    0    0  0.28331252253E-01 -0.11434374397E+00  0.40620567671E+00  0.42294262560E+00  0.51100000000E-03 0.  1.
    9000002    1    1    2    0    0 -0.32171309648E+00 -0.41439466231E-01  0.91129784016E-01  0.99667707074E+00  0.93800000000E+00 0.  1.
         22    1    1    2    0    0  0.29338184423E+00  0.15578321020E+00  0.35026645066E+01  0.35183803037E+01  0.00000000000E+00 0.  1.
</event>
<event>
 5    1  0.3005426E+001  0.1596388E+01  0.7818608E-02  0.3357293E+00
         11   -1    0    0    0    0  0.00000000000E+00  0.00000000000E+00  0.39999999674E+01  0.40000000000E+01  0.51100000000E-03 0.  1.
    9000002   -1    0    0    0    0 -0.00000000000E+00 -0.00000000000E+00  0.00000000000E+00  0.93800000000E+00  0.93800000000E+00 0. -1.
         11    1    1    2    0    0  0.89654454184E-02  0.96463673430E-02  0.76535257923E+00  0.76546604319E+00  0.51100000000E-03 0.  1.
    9000002    1    1    2    0    0 -0.27554671916E+00 -0.21053925376E+00  0.83250076430E-01  0.10035075222E+01  0.93800000000E+00 0. -1.
         22    1    1    2    0    0  0.26658127374E+00  0.20089288642E+00  0.31513973117E+01  0.31690264346E+01  0.00000000000E+00 0.  1.
</event>
<event>
 5    1  0.3005426E+001  0.1588454E+01  0.7818608E-02  0.3365991E+00
         11   -1    0    0    0    0  0.00000000000E+00  0.00000000000E+00  0.39999999674E+01  0.40000000000E+01  0.51100000000E-03 0.  1.
    9000002   -1    0    0    0    0 -0.00000000000E+00 -0.00000000000E+00  0.00000000000E+00  0.93800000000E+00  0.93800000000E+00 0. -1.
         11    1    1    2    0    0 -0.74603161677E-01  0.19284439416E-01  0.10387458553E+01  0.10416000837E+01  0.51100000000E-03 0.  1.
    9000002    1    1    2    0    0 -0.55646230624E-02  0.24057019820E+00  0.47030470585E-01  0.96951578144E+00  0.93800000000E+00 0. -1.
         22    1    1    2    0    0  0.80167784739E-01 -0.25985463761E+00  0.29142236415E+01  0.29268841349E+01  0.00000000000E+00 0.  1.
</event>
<event>
 5    1  0.3005426E+001  0.1599665E+01  0.7818608E-02  0.3353727E+00
         11   -1    0    0    0    0  0.00000000000E+00  0.00000000000E+00  0.39999999674E+01  0.40000000000E+01  0.51100000000E-03 0. -1.
    9000002   -1    0    0    0    0 -0.00000000000E+00 -0.00000000000E+00  0.00000000000E+00  0.93800000000E+00  0.93800000000E+00 0. -1.
         11    1    1    2    0    0  0.15123303749E-01 -0.18918930592E-01  0.23212527865E+00  0.23338604577E+00  0.51100000000E-03 0.  1.
    9000002    1    1    2    0    0 -0.28420121618E+00  0.31849558903E+00  0.12335517243E+00  0.10379163117E+01  0.93800000000E+00 0. -1.
         22    1    1    2    0    0  0.26907791243E+00 -0.29957665844E+00  0.36445195163E+01  0.36666976425E+01  0.00000000000E+00 0. -1.
</event>
<event>
 5    1  0.3005426E+001  0.1599675E+01  0.7818608E-02  0.3353717E+00
         11   -1    0    0    0    0  0.00000000000E+00  0.00000000000E+00  0.39999999674E+01  0.40000000000E+01  0.51100000000E-03 0. -1.
    9000002   -1    0    0    0    0 -0.00000000000E+00 -0.00000000000E+00  0.00000000000E+00  0.93800000000E+00  0.93800000000E+00 0. -1.
         11    1    1    2    0    0  0.80465295736E-01  0.14395100857E-01  0.64848630499E+00  0.65361810840E+00  0.51100000000E-03 0. -1.
    9000002    1    1    2    0    0 -0.47337993063E+00 -0.77959638482E-01  0.15704277689E+00  0.10652101660E+01  0.93800000000E+00 0. -1.
         22    1    1    2    0    0  0.39291463490E+00  0.63564537625E-01  0.31944708855E+01  0.32191717256E+01  0.00000000000E+00 0. -1.
</event>
<event>
 5    1  0.3005426E+001  0.1599638E+01  0.7818608E-02  0.3353757E+00
         11   -1    0    0    0    0  0.00000000000E+00  0.00000000000E+00  0.39999999674E+01  0.40000000000E+01  0.51100000000E-03 0.  1.
    9000002   -1    0    0    0    0 -0.00000000000E+00 -0.00000000000E+00  0.00000000000E+00  0.93800000000E+00  0.93800000000E+00 0. -1.
         11    1    1    2    0    0 -0.28715170060E-02 -0.32585775118E-03  0.19847271962E-01  0.20063078491E-01  0.51100000000E-03 0.  1.
    9000002    1    1    2    0    0  0.38119072672E+00  0.10949218816E+00  0.10608533186E+00  0.10239106441E+01  0.93800000000E+00 0. -1.
         22    1    1    2    0    0 -0.37831920972E+00 -0.10916633041E+00  0.38740673635E+01  0.38940262774E+01  0.00000000000E+00 0.  1.
</event>
<event>
 5    1  0.3005426E+001  0.1599341E+01  0.7818608E-02  0.3354079E+00
         11   -1    0    0    0    0  0.00000000000E+00  0.00000000000E+00  0.39999999674E+01  0.40000000000E+01  0.51100000000E-03 0. -1.
    9000002   -1    0    0    0    0 -0.00000000000E+00 -0.00000000000E+00  0.00000000000E+00  0.93800000000E+00  0.93800000000E+00 0.  1.
         11    1    1    2    0    0 -0.42382412575E-01 -0.12880846844E+00  0.13066513716E+01  0.13136688922E+01  0.51100000000E-03 0. -1.
    9000002    1    1    2    0    0  0.18595331190E+00  0.36703646064E+00  0.11464555769E+00  0.10306706562E+01  0.93800000000E+00 0.  1.
         22    1    1    2    0    0 -0.14357089933E+00 -0.23822799220E+00  0.25787030381E+01  0.25936604516E+01  0.00000000000E+00 0. -1.
</event>
<event>
 5    1  0.3005426E+001  0.1596246E+01  0.7818608E-02  0.3357448E+00
         11   -1    0    0    0    0  0.00000000000E+00  0.00000000000E+00  0.39999999674E+01  0.40000000000E+01  0.51100000000E-03 0. -1.
    9000002   -1    0    0    0    0 -0.00000000000E+00 -0.00000000000E+00  0.00000000000E+00  0.93800000000E+00  0.93800000000E+00 0.  1.
         11    1    1    2    0    0 -0.57029979276E-01  0.21347517370E+00  0.11141656367E+01  0.11358650428E+01  0.51100000000E-03 0. -1.
    9000002    1    1    2    0    0  0.33514117520E+00 -0.55091320150E+00  0.29666319543E+00  0.11762984377E+01  0.93800000000E+00 0.  1.
         22    1    1    2    0    0 -0.27811119592E+00  0.33743802779E+00  0.25891711353E+01  0.26258365196E+01  0.00000000000E+00 0. -1.
</event>
<event>
 5    1  0.3005426E+001  0.1595217E+01  0.7818608E-02  0.3358571E+00
         11   -1    0    0    0    0  0.00000000000E+00  0.00000000000E+00  0.39999999674E+01  0.40000000000E+01  0.51100000000E-03 0.  1.
    9000002   -1    0    0    0    0 -0.00000000000E+00 -0.00000000000E+00  0.00000000000E+00  0.93800000000E+00  0.93800000000E+00 0.  1.
         11    1    1    2    0    0 -0.84914558104E-01  0.15516153158E+00  0.13859876305E+01  0.13972285268E+01  0.51100000000E-03 0.  1.
    9000002    1    1    2    0    0  0.35561808325E+00 -0.57448981599E+00  0.32903807109E+00  0.12019204724E+01  0.93800000000E+00 0.  1.
         22    1    1    2    0    0 -0.27070352515E+00  0.41932828441E+00  0.22849742658E+01  0.23388510008E+01  0.00000000000E+00 0.  1.
</event>
<event>
 5    1  0.3005426E+001  0.1598838E+01  0.7818608E-02  0.3354625E+00
         11   -1    0    0    0    0  0.00000000000E+00  0.00000000000E+00  0.39999999674E+01  0.40000000000E+01  0.51100000000E-03 0.  1.
    9000002   -1    0    0    0    0 -0.00000000000E+00 -0.00000000000E+00  0.00000000000E+00  0.93800000000E+00  0.93800000000E+00 0. -1.
         11    1    1    2    0    0 -0.59976682685E-02 -0.81544517557E-02  0.27102217018E+00  0.27121162394E+00  0.51100000000E-03 0.  1.
    9000002    1    1    2    0    0  0.34043867824E+00  0.84760131672E-01  0.83211907014E-01  0.10049134266E+01  0.93800000000E+00 0. -1.
         22    1    1    2    0    0 -0.33444100998E+00 -0.76605679916E-01  0.36457658902E+01  0.36618749494E+01  0.00000000000E+00 0.  1.
</event>
<event>
 5    1  0.3005426E+001  0.1598408E+01  0.7818608E-02  0.3355094E+00
         11   -1    0    0    0    0  0.00000000000E+00  0.00000000000E+00  0.39999999674E+01  0.40000000000E+01  0.51100000000E-03 0.  1.
    9000002   -1    0    0    0    0 -0.00000000000E+00 -0.00000000000E+00  0.00000000000E+00  0.93800000000E+00  0.93800000000E+00 0.  1.
         11    1    1    2    0    0 -0.35975062092E-02  0.13415378808E+00  0.67502979504E+00  0.68824099429E+00  0.51100000000E-03 0.  1.
    9000002    1    1    2    0    0  0.82352238336E-01 -0.57348733700E+00  0.23442563453E+00  0.11271508306E+01  0.93800000000E+00 0.  1.
         22    1    1    2    0    0 -0.78754732126E-01  0.43933354892E+00  0.30905445378E+01  0.31226081751E+01  0.00000000000E+00 0.  1.
</event>
<event>
 5    1  0.3005426E+001  0.1599526E+01  0.7818608E-02  0.3353878E+00
         11   -1    0    0    0    0  0.00000000000E+00  0.00000000000E+00  0.39999999674E+01  0.40000000000E+01  0.51100000000E-03 0.  1.
    9000002   -1    0    0    0    0 -0.00000000000E+00 -0.00000000000E+00  0.00000000000E+00  0.93800000000E+00  0.93800000000E+00 0. -1.
         11    1    1    2    0    0 -0.89516488731E-01 -0.40396378646E-01  0.10990010153E+01  0.11033805155E+01  0.51100000000E-03 0.  1.
    9000002    1    1    2    0    0  0.30237059319E+00  0.18827552366E+00  0.85252293548E-01  0.10069695139E+01  0.93800000000E+00 0. -1.
         22    1    1    2    0    0 -0.21285410446E+00 -0.14787914501E+00  0.28157466585E+01  0.28276499706E+01  0.00000000000E+00 0.  1.
</event>
<event>
 5    1  0.3005426E+001  0.1599482E+01  0.7818608E-02  0.3353926E+00
         11   -1    0    0    0    0  0.00000000000E+00  0.00000000000E+00  0.39999999674E+01  0.40000000000E+01  0.51100000000E-03 0. -1.
    9000002   -1    0    0    0    0 -0.00000000000E+00 -0.00000000000E+00  0.00000000000E+00  0.93800000000E+00  0.93800000000E+00 0. -1.
         11    1    1    2    0    0  0.12928917061E+00  0.10799942699E+00  0.12616761813E+01  0.12728733690E+01  0.51100000000E-03 0. -1.
    9000002    1    1    2    0    0 -0.35396294386E+00 -0.35662209817E+00  0.17307740248E+00  0.10780857451E+01  0.93800000000E+00 0. -1.
         22    1    1    2    0    0  0.22467377325E+00  0.24862267117E+00  0.25652463835E+01  0.25870408859E+01  0.00000000000E+00 0. -1.
</event>
<event>
 5    1  0.3005426E+001  0.1599677E+01  0.7818608E-02  0.3353714E+00
         11   -1    0    0    0    0  0.00000000000E+00  0.00000000000E+00  0.39999999674E+01  0.40000000000E+01  0.51100000000E-03 0.  1.
    9000002   -1    0    0    0    0 -0.00000000000E+00 -0.00000000000E+00  0.00000000000E+00  0.93800000000E+00  0.93800000000E+00 0. -1.
         11    1    1    2    0    0  0.43441393261E-01  0.20821099642E-01  0.44139516252E+00  0.44401646755E+00  0.51100000000E-03 0. -1.
    9000002    1    1    2    0    0 -0.38239142447E+00 -0.18236525674E+00  0.12144409598E+00  0.10363749113E+01  0.93800000000E+00 0. -1.
         22    1    1    2    0    0  0.33895003120E+00  0.16154415710E+00  0.34371607089E+01  0.34576086211E+01  0.00000000000E+00 0.  1.
</event>
<event>
 5    1  0.3005426E+001  0.1589588E+01  0.7818608E-02  0.3364743E+00
         11   -1    0    0    0    0  0.00000000000E+00  0.00000000000E+00  0.39999999674E+01  0.40000000000E+01  0.51100000000E-03 0. -1.
    9000002   -1    0    0    0    0 -0.00000000000E+00 -0.00000000000E+00  0.00000000000E+00  0.93800000000E+00  0.93800000000E+00 0.  1.
         11    1    1    2    0    0  0.55836014798E-01 -0.85328865182E-01  0.12403391618E+01  0.12445240750E+01  0.51100000000E-03 0. -1.
    9000002    1    1    2    0    0 -0.51240011539E+00  0.29710492930E+00  0.25438657861E+00  0.11381483860E+01  0.93800000000E+00 0.  1.
         22    1    1    2    0    0  0.45656410059E+00 -0.21177606411E+00  0.25052742270E+01  0.25553275390E+01  0.00000000000E+00 0. -1.
</event>
<event>
 5    1  0.3005426E+001  0.1599675E+01  0.7818608E-02  0.3353716E+00
         11   -1    0    0    0    0  0.00000000000E+00  0.00000000000E+00  0.39999999674E+01  0.40000000000E+01  0.51100000000E-03 0. -1.
    9000002   -1    0    0    0    0 -0.00000000000E+00 -0.00000000000E+00  0.00000000000E+00  0.93800000000E+00  0.93800000000E+00 0.  1.
         11    1    1    2    0    0 -0.60123241364E-01 -0.38971987591E-01  0.56876811178E+00  0.57326350492E+00  0.51100000000E-03 0. -1.
    9000002    1    1    2    0    0  0.41070510746E+00  0.25779991404E+00  0.16056814585E+00  0.10680662950E+01  0.93800000000E+00 0.  1.
         22    1    1    2    0    0 -0.35058186610E+00 -0.21882792645E+00  0.32706637097E+01  0.32966702001E+01  0.00000000000E+00 0. -1.
</event>
<event>
 5    1  0.3005426E+001  0.1510161E+01  0.7818608E-02  0.3457041E+00
         11   -1    0    0    0    0  0.00000000000E+00  0.00000000000E+00  0.39999999674E+01  0.40000000000E+01  0.51100000000E-03 0. -1.
    9000002   -1    0    0    0    0 -0.00000000000E+00 -0.00000000000E+00  0.00000000000E+00  0.93800000000E+00  0.93800000000E+00 0. -1.
         11    1    1    2    0    0  0.96773505196E-01 -0.53996557027E-01  0.77709990679E-01  0.13535081548E+00  0.51100000000E-03 0. -1.
    9000002    1    1    2    0    0  0.55063302417E-01 -0.41854529561E+00  0.20058486574E+00  0.10479935210E+01  0.93800000000E+00 0. -1.
         22    1    1    2    0    0 -0.15183680761E+00  0.47254185263E+00  0.37217051109E+01  0.37546556635E+01  0.00000000000E+00 0. -1.
</event>
<event>
 5    1  0.3005426E+001  0.1599395E+01  0.7818608E-02  0.3354020E+00
         11   -1    0    0    0    0  0.00000000000E+00  0.00000000000E+00  0.39999999674E+01  0.40000000000E+01  0.51100000000E-03 0. -1.
    9000002   -1    0    0    0    0 -0.00000000000E+00 -0.00000000000E+00  0.00000000000E+00  0.93800000000E+00  0.93800000000E+00 0.  1.
         11    1    1    2    0    0  0.18941398841E+00  0.82113043452E-01  0.12187627110E+01  0.12361241919E+01  0.51100000000E-03 0. -1.
    9000002    1    1    2    0    0 -0.56112551579E+00 -0.19860066875E+00  0.24722576506E+00  0.11380986992E+01  0.93800000000E+00 0.  1.
         22    1    1    2    0    0  0.37171152738E+00  0.11648762530E+00  0.25340114913E+01  0.25637771090E+01  0.00000000000E+00 0. -1.
</event>
<event>
 5    1  0.3005426E+001  0.1597528E+01  0.7818608E-02  0.3356051E+00
         11   -1    0    0    0    0  0.00000000000E+00  0.00000000000E+00  0.39999999674E+01  0.40000000000E+01  0.51100000000E-03 0.  1.
    9000002   -1    0    0    0    0 -0.00000000000E+00 -0.00000000000E+00  0.00000000000E+00  0.93800000000E+00  0.93800000000E+00 0. -1.
         11    1    1    2    0    0 -0.12130621282E+00 -0.57613962704E-01  0.75955398561E+00  0.77133461231E+00  0.51100000000E-03 0.  1.
    9000002    1    1    2    0    0  0.39601894299E+00  0.36435389792E+00  0.20158054343E+00  0.11000288549E+01  0.93800000000E+00 0. -1.
         22    1    1    2    0    0 -0.27471273017E+00 -0.30673993521E+00  0.30388654383E+01  0.30666365328E+01  0.00000000000E+00 0.  1.
</event>
<event>
 5    1  0.3005426E+001  0.1599662E+01  0.7818608E-02  0.3353731E+00
         11   -1    0    0    0    0  0.00000000000E+00  0.00000000000E+00  0.39999999674E+01  0.40000000000E+01  0.51100000000E-03 0.  1.
    9000002   -1    0    0    0    0 -0.00000000000E+00 -0.00000000000E+00  0.00000000000E+00  0.93800000000E+00  0.93800000000E+00 0.  1.
         11    1    1    2    0    0 -0.84838494667E-01  0.10099036010E+00  0.14313045185E+01  0.14373689536E+01  0.51100000000E-03 0.  1.
    9000002    1    1    2    0    0  0.22710923854E+00 -0.28736032955E+00  0.90130240574E-01  0.10110005072E+01  0.93800000000E+00 0.  1.
         22    1    1    2    0    0 -0.14227074387E+00  0.18636996945E+00  0.24785652083E+01  0.24896305392E+01  0.00000000000E+00 0.  1.
</event>
<event>
 5    1  0.3005426E+001  0.1599215E+01  0.7818608E-02  0.3354216E+00
         11   -1    0    0    0    0  0.00000000000E+00  0.00000000000E+00  0.39999999674E+01  0.40000000000E+01  0.51100000000E-03 0.  1.
    9000002   -1    0    0    0    0 -0.00000000000E+00 -0.00000000000E+00  0.00000000000E+00  0.93800000000E+00  0.93800000000E+00 0.  1.
         11    1    1    2    0    0 -0.17480199116E-01 -0.14167366434E-01  0.29652450702E+00  0.29737739661E+00  0.51100000000E-03 0.  1.
    9000002    1    1    2    0    0  0.11591363966E+00  0.32655704984E+00  0.80852272316E-01  0.10032230901E+01  0.93800000000E+00 0.  1.
         22    1    1    2    0    0 -0.98433440547E-01 -0.31238968341E+00  0.36226231880E+01  0.36373995132E+01  0.00000000000E+00 0.  1.
</event>
<event>
 5    1  0.3005426E+001  0.1599108E+01  0.7818608E-02  0.3354333E+00
         11   -1    0    0    0    0  0.00000000000E+00  0.00000000000E+00  0.39999999674E+01  0.40000000000E+01  0.51100000000E-03 0. -1.
    9000002   -1    0    0    0    0 -0.00000000000E+00 -0.00000000000E+00  0.00000000000E+00  0.93800000000E+00  0.93800000000E+00 0. -1.
         11    1    1    2    0    0  0.77601451707E-01  0.94223890485E-01  0.93838555247E+00  0.94629162157E+00  0.51100000000E-03 0. -1.
    9000002    1    1    2    0    0 -0.33593934720E+00 -0.28787854450E+00  0.13327813366E+00  0.10456272578E+01  0.93800000000E+00 0. -1.
         22    1    1    2    0    0  0.25833789549E+00  0.19365465402E+00  0.29283362812E+01  0.29460811206E+01  0.00000000000E+00 0. -1.
</event>
<event>
 5    1  0.3005426E+001  0.1474737E+01  0.7818608E-02  0.3501651E+00
         11   -1    0    0    0    0  0.00000000000E+00  0.00000000000E+00  0.39999999674E+01  0.40000000000E+01  0.51100000000E-03 0.  1.
    9000002   -1    0    0    0    0 -0.00000000000E+00 -0.00000000000E+00  0.00000000000E+00  0.93800000000E+00  0.93800000000E+00 0. -1.
         11    1    1    2    0    0 -0.33824416009E+00  0.27966320469E+00  0.11607175277E+01  0.12409214560E+01  0.51100000000E-03 0.  1.
    9000002    1    1    2    0    0  0.63428267232E-01  0.21459504869E+00  0.18334061369E+00  0.98159663846E+00  0.93800000000E+00 0. -1.
         22    1    1    2    0    0  0.27481589286E+00 -0.49425825338E+00  0.26559418260E+01  0.27154819055E+01  0.00000000000E+00 0.  1.
</event>
<event>
 5    1  0.3005426E+001  0.1599441E+01  0.7818608E-02  0.3353971E+00
         11   -1    0    0    0    0  0.00000000000E+00  0.00000000000E+00  0.39999999674E+01  0.40000000000E+01  0.51100000000E-03 0. -1.
    9000002   -1    0    0    0    0 -0.00000000000E+00 -0.00000000000E+00  0.00000000000E+00  0.93800000000E+00  0.93800000000E+00 0. -1.
         11    1    1    2    0    0  0.93948663181E-01 -0.56103112111E-01  0.73148434268E+00  0.73962390119E+00  0.51100000000E-03 0. -1.
    9000002    1    1    2    0    0 -0.42637275552E+00  0.25402215502E+00  0.16872857289E+00  0.10745391166E+01  0.93800000000E+00 0. -1.
         22    1    1    2    0    0  0.33242409234E+00 -0.19791904291E+00  0.30997870518E+01  0.31238369822E+01  0.00000000000E+00 0. -1.
</event>
<event>
 5    1  0.3005426E+001  0.1595689E+01  0.7818608E-02  0.3358055E+00
         11   -1    0    0    0    0  0.00000000000E+00  0.00000000000E+00  0.39999999674E+01  0.40000000000E+01  0.51100000000E-03 0. -1.
    9000002   -1    0    0    0    0 -0.00000000000E+00 -0.00000000000E+00  0.00000000000E+00  0.93800000000E+00  0.93800000000E+00 0.  1.
         11    1    1    2    0    0 -0.25050761378E-01  0.10824363177E+00  0.10001758096E+01  0.10063280457E+01  0.51100000000E-03 0. -1.
    9000002    1    1    2    0    0  0.29765045468E+00 -0.25780418075E+00  0.10781834675E+00  0.10229993082E+01  0.93800000000E+00 0.  1.
         22    1    1    2    0    0 -0.27259969330E+00  0.14956054898E+00  0.28920058111E+01  0.29086726460E+01  0.00000000000E+00 0. -1.
</event>
<event>
 5    1  0.3005426E+001  0.1599660E+01  0.7818608E-02  0.3353732E+00
         11   -1    0    0    0    0  0.00000000000E+00  0.00000000000E+00  0.39999999674E+01  0.40000000000E+01  0.51100000000E-03 0.  1.
    9000002   -1    0    0    0    0 -0.00000000000E+00 -0.00000000000E+00  0.00000000000E+00  0.93800000000E+00  0.93800000000E+00 0.  1.
         11    1    1    2    0    0 -0.77373925482E-01  0.40635283048E-01  0.79533943488E+00  0.80012688267E+00  0.51100000000E-03 0.  1.
    9000002    1    1    2    0    0  0.39453414876E+00 -0.20358654407E+00  0.13376658654E+00  0.10463470625E+01  0.93800000000E+00 0.  1.
         22    1    1    2    0    0 -0.31716022328E+00  0.16295126102E+00  0.30708939459E+01  0.30915260549E+01  0.00000000000E+00 0.  1.
</event>
<event>
 5    1  0.3005426E+001  0.1599676E+01  0.7818608E-02  0.3353715E+00
         11   -1    0    0    0    0  0.00000000000E+00  0.00000000000E+00  0.39999999674E+01  0.40000000000E+01  0.51100000000E-03 0.  1.
    9000002   -1    0    0    0    0 -0.00000000000E+00 -0.00000000000E+00  0.00000000000E+00  0.93800000000E+00  0.93800000000E+00 0. -1.
         11    1    1    2    0    0  0.60715144435E-01 -0.46501308841E-01  0.70969541038E+00  0.71380427088E+00  0.51100000000E-03 0.  1.
    9000002    1    1    2    0    0 -0.33282621593E+00  0.24945132919E+00  0.11693679568E+00  0.10327233269E+01  0.93800000000E+00 0. -1.
         22    1    1    2    0    0  0.27211107150E+00 -0.20295002035E+00  0.31733677613E+01  0.31914724023E+01  0.00000000000E+00 0.  1.
</event>
<event>
 5    1  0.3005426E+001  0.1598372E+01  0.7818608E-02  0.3355133E+00
         11   -1    0    0    0    0  0.00000000000E+00  0.00000000000E+00  0.39999999674E+01  0.40000000000E+01  0.51100000000E-03 0.  1.
    9000002   -1    0    0    0    0 -0.00000000000E+00 -0.00000000000E+00  0.00000000000E+00  0.93800000000E+00  0.93800000000E+00 0. -1.
         11    1    1    2    0    0  0.11210724990E+00 -0.79966385895E-01  0.10659796609E+01  0.10748374560E+01  0.51100000000E-03 0.  1.
    9000002    1    1    2    0    0 -0.51461943825E+00  0.34571222534E+00  0.27066153610E+00  0.11564825014E+01  0.93800000000E+00 0. -1.
         22    1    1    2    0    0  0.40251218835E+00 -0.26574583944E+00  0.26633587704E+01  0.27066800426E+01  0.00000000000E+00 0.  1.
</event>
<event>
 5    1  0.3005426E+001  0.1597834E+01  0.7818608E-02  0.3355717E+00
         11   -1    0    0    0    0  0.00000000000E+00  0.00000000000E+00  0.39999999674E+01  0.40000000000E+01  0.51100000000E-03 0. -1.
    9000002   -1    0    0    0    0 -0.00000000000E+00 -0.00000000000E+00  0.00000000000E+00  0.93800000000E+00  0.93800000000E+00 0. -1.
         11    1    1    2    0    0  0.60973405640E-01 -0.36026683342E-01  0.45469127318E+00  0.46017398137E+00  0.51100000000E-03 0. -1.
    9000002    1    1    2    0    0 -0.61698105268E+00  0.44010117715E-01  0.26989659340E+00  0.11555477839E+01  0.93800000000E+00 0. -1.
         22    1    1    2    0    0  0.55600764704E+00 -0.79834343732E-02  0.32754121008E+01  0.33222782347E+01  0.00000000000E+00 0. -1.
</event>
<event>
 5    1  0.3005426E+001  0.1599642E+01  0.7818608E-02  0.3353752E+00
         11   -1    0    0    0    0  0.00000000000E+00  0.00000000000E+00  0.39999999674E+01  0.40000000000E+01  0.51100000000E-03 0. -1.
    9000002   -1    0    0    0    0 -0.00000000000E+00 -0.00000000000E+00  0.00000000000E+00  0.93800000000E+00  0.93800000000E+00 0.  1.
         11    1    1    2    0    0 -0.39955693219E-02  0.55266478625E-01  0.65966921114E+00  0.66199250561E+00  0.51100000000E-03 0. -1.
    9000002    1    1    2    0    0  0.44301805409E-01 -0.35226862903E+00  0.84597697833E-01  0.10065071323E+01  0.93800000000E+00 0.  1.
         22    1    1    2    0    0 -0.40306236088E-01  0.29700215041E+00  0.32557330584E+01  0.32695003621E+01  0.00000000000E+00 0. -1.
</event>
<event>
 5    1  0.3005426E+001  0.1594460E+01  0.7818608E-02  0.3359399E+00
         11   -1    0    0    0    0  0.00000000000E+00  0.00000000000E+00  0.39999999674E+01  0.40000000000E+01  0.51100000000E-03 0.  1.
    9000002   -1    0    0    0    0 -0.00000000000E+00 -0.00000000000E+00  0.00000000000E+00  0.93800000000E+00  0.93800000000E+00 0. -1.
         11    1    1    2    0    0 -0.35588102207E-01 -0.42159571150E-01  0.45458381626E+00  0.45791991612E+00  0.51100000000E-03 0.  1.
    9000002    1    1    2    0    0 -0.16717987628E+00  0.28831323278E+00  0.78513290044E-01  0.99853991805E+00  0.93800000000E+00 0. -1.
         22    1    1    2    0    0  0.20276797849E+00 -0.24615366163E+00  0.34669028611E+01  0.34815401658E+01  0.00000000000E+00 0.  1.
</event>
<event>
 5    1  0.3041034E+001  0.1599072E+01  0.7818608E-02  0.3354371E+00
         11   -1    0    0    0    0  0.00000000000E+00  0.00000000000E+00  0.39999999674E+01  0.40000000000E+01  0.51100000000E-03 0.  1.
    9000002   -1    0    0    0    0 -0.00000000000E+00 -0.00000000000E+00  0.00000000000E+00  0.93800000000E+00  0.93800000000E+00 0.  1.
         11    1    1    2    0    0 -0.48227393337E-02  0.78449653403E-01  0.12259026370E+01  0.12284197750E+01  0.51100000000E-03 0.  1.
    9000002    1    1    2    0    0  0.72388443874E-01 -0.31858976801E+00  0.71873854959E-01  0.99586614468E+00  0.93800000000E+00 0.  1.
         22    1    1    2    0    0 -0.67565704540E-01  0.24014011461E+00  0.27022234754E+01  0.27137140804E+01  0.00000000000E+00 0.  1.
</event>
<event>
 5    1  0.3005426E+001  0.1599641E+01  0.7818608E-02  0.3353753E+00
         11   -1    0    0    0    0  0.00000000000E+00  0.00000000000E+00  0.39999999674E+01  0.40000000000E+01  0.51100000000E-03 0. -1.
    9000002   -1    0    0    0    0 -0.00000000000E+00 -0.00000000000E+00  0.00000000000E+00  0.93800000000E+00  0.93800000000E+00 0.  1.
         11    1    1    2    0    0  0.36339242371E-01 -0.14326552181E+00  0.12853840672E+01  0.12938539375E+01  0.51100000000E-03 0. -1.
    9000002    1    1    2    0    0 -0.91052182285E-01  0.42294084096E+00  0.12683514366E+00  0.10407211963E+01  0.93800000000E+00 0.  1.
         22    1    1    2    0    0  0.54712939913E-01 -0.27967531916E+00  0.25877807565E+01  0.26034248661E+01  0.00000000000E+00 0. -1.
</event>
<event>
 5    1  0.3005426E+001  0.1599676E+01  0.7818608E-02  0.3353715E+00
         11   -1    0    0    0    0  0.00000000000E+00  0.00000000000E+00  0.39999999674E+01  0.40000000000E+01  0.51100000000E-03 0.  1.
    9000002   -1    0    0    0    0 -0.00000000000E+00 -0.00000000000E+00  0.00000000000E+00  0.93800000000E+00  0.93800000000E+00 0.  1.
         11    1    1    2    0    0  0.73558883855E-01 -0.13664539271E+00  0.47168608445E+00  0.49655905604E+00  0.51100000000E-03 0.  1.
    9000002    1    1    2    0    0 -0.48819182114E+00  0.90417464632E+00  0.86352326463E+00  0.16374918241E+01  0.93800000000E+00 0.  1.
         22    1    1    2    0    0  0.41463293728E+00 -0.76752925361E+00  0.26647906183E+01  0.28039491199E+01  0.00000000000E+00 0.  1.
</event>
<event>
 5    1  0.3005426E+001  0.1599550E+01  0.7818608E-02  0.3353852E+00
         11   -1    0    0    0    0  0.00000000000E+00  0.00000000000E+00  0.39999999674E+01  0.40000000000E+01  0.51100000000E-03 0.  1.
    9000002   -1    0    0    0    0 -0.00000000000E+00 -0.00000000000E+00  0.00000000000E+00  0.93800000000E+00  0.93800000000E+00 0.  1.
         11    1    1    2    0    0  0.17927480179E-02 -0.58805841279E-01  0.48318446175E+00  0.48675335244E+00  0.51100000000E-03 0.  1.
    9000002    1    1    2    0    0 -0.82782294357E-01  0.48652977707E+00  0.16666726454E+00  0.10729334133E+01  0.93800000000E+00 0.  1.
         22    1    1    2    0    0  0.80989546339E-01 -0.42772393579E+00  0.33501482411E+01  0.33783132343E+01  0.00000000000E+00 0.  1.
</event>
<event>
 5    1  0.3005426E+001  0.1506696E+01  0.7818608E-02  0.3461306E+00
         11   -1    0    0    0    0  0.00000000000E+00  0.00000000000E+00  0.39999999674E+01  0.40000000000E+01  0.51100000000E-03 0. -1.
    9000002   -1    0    0    0    0 -0.00000000000E+00 -0.00000000000E+00  0.00000000000E+00  0.93800000000E+00  0.93800000000E+00 0. -1.
         11    1    1    2    0    0  0.29662948014E-01 -0.34688072809E+00  0.81821083611E+00  0.88919928220E+00  0.51100000000E-03 0. -1.
    9000002    1    1    2    0    0 -0.60705527463E+00  0.24585275156E+00  0.40932841699E+00  0.12150528527E+01  0.93800000000E+00 0. -1.
         22    1    1    2    0    0  0.57739232662E+00  0.10102797653E+00  0.27724607143E+01  0.28337478651E+01  0.00000000000E+00 0. -1.
</event>
<event>
 5    1  0.3005426E+001  0.1599632E+01  0.7818608E-02  0.3353763E+00
         11   -1    0    0    0    0  0.00000000000E+00  0.00000000000E+00  0.39999999674E+01  0.40000000000E+01  0.51100000000E-03 0. -1.
    9000002   -1    0    0    0    0 -0.00000000000E+00 -0.00000000000E+00  0.00000000000E+00  0.93800000000E+00  0.93800000000E+00 0. -1.
         11    1    1    2    0    0  0.11249054889E+00 -0.51197124967E-01  0.91247217032E+00  0.92080453513E+00  0.51100000000E-03 0. -1.
    9000002    1    1    2    0    0 -0.49527506759E+00  0.20188727905E+00  0.19706335364E+00  0.10976036768E+01  0.93800000000E+00 0. -1.
         22    1    1    2    0    0  0.38278451870E+00 -0.15069015408E+00  0.28904644434E+01  0.29195917881E+01  0.00000000000E+00 0. -1.
</event>
<event>
 5    1  0.3005426E+001  0.1599240E+01  0.7818608E-02  0.3354189E+00
         11   -1    0    0    0    0  0.00000000000E+00  0.00000000000E+00  0.39999999674E+01  0.40000000000E+01  0.51100000000E-03 0.  1.
    9000002   -1    0    0    0    0 -0.00000000000E+00 -0.00000000000E+00  0.00000000000E+00  0.93800000000E+00  0.93800000000E+00 0. -1.
         11    1    1    2    0    0  0.23107022098E+00 -0.14168250710E+00  0.11253220106E+01  0.11575047596E+01  0.51100000000E-03 0.  1.
    9000002    1    1    2    0    0 -0.72181774750E+00  0.36868673665E+00  0.48625090030E+00  0.13316285925E+01  0.93800000000E+00 0. -1.
         22    1    1    2    0    0  0.49074752652E+00 -0.22700422955E+00  0.23884270564E+01  0.24488666478E+01  0.00000000000E+00 0.  1.
</event>
<event>
 5    1  0.3005426E+001  0.1599646E+01  0.7818608E-02  0.3353747E+00
         11   -1    0    0    0    0  0.00000000000E+00  0.00000000000E+00  0.39999999674E+01  0.40000000000E+01  0.51100000000E-03 0.  1.
    9000002   -1    0    0    0    0 -0.00000000000E+00 -0.00000000000E+00  0.00000000000E+00  0.93800000000E+00  0.93800000000E+00 0.  1.
         11    1    1    2    0    0 -0.14158779917E+00 -0.25365556315E-02  0.12624489731E+01  0.12703665651E+01  0.51100000000E-03 0.  1.
    9000002    1    1    2    0    0  0.42364509086E+00  0.23329285723E-01  0.12184525686E+00  0.10366820560E+01  0.93800000000E+00 0.  1.
         22    1    1    2    0    0 -0.28205729169E+00 -0.20792730092E-01  0.26157057374E+01  0.26309513789E+01  0.00000000000E+00 0.  1.
</event>
<event>
 5    1  0.3005426E+001  0.1599677E+01  0.7818608E-02  0.3353714E+00
         11   -1    0    0    0    0  0.00000000000E+00  0.00000000000E+00  0.39999999674E+01  0.40000000000E+01  0.51100000000E-03 0.  1.
    9000002   -1    0    0    0    0 -0.00000000000E+00 -0.00000000000E+00  0.00000000000E+00  0.93800000000E+00  0.93800000000E+00 0. -1.
         11    1    1    2    0    0  0.12858774404E+00 -0.12647807192E-01  0.13905792486E+01  0.13965692545E+01  0.51100000000E-03 0.  1.
    9000002    1    1    2    0    0 -0.36248715847E+00  0.35513903184E-01  0.89091563244E-01  0.10101680474E+01  0.93800000000E+00 0. -1.
         22    1    1    2    0    0  0.23389941444E+00 -0.22866095992E-01  0.25203291555E+01  0.25312626981E+01  0.00000000000E+00 0.  1.
</event>
<event>
 5    1  0.3005426E+001  0.1566974E+01  0.7818608E-02  0.3390007E+00
         11   -1    0    0    0    0  0.00000000000E+00  0.00000000000E+00  0.39999999674E+01  0.40000000000E+01  0.51100000000E-03 0.  1.
    9000002   -1    0    0    0    0 -0.00000000000E+00 -0.00000000000E+00  0.00000000000E+00  0.93800000000E+00  0.93800000000E+00 0. -1.
         11    1    1    2    0    0  0.10095996080E+00  0.12715857425E+00  0.68649008661E+00  0.70542973911E+00  0.51100000000E-03 0.  1.
    9000002    1    1    2    0    0  0.22535687276E+00 -0.22020282909E+00  0.92591070931E-01  0.99382700328E+00  0.93800000000E+00 0. -1.
         22    1    1    2    0    0 -0.32631683356E+00  0.93044254847E-01  0.32209188098E+01  0.32387432576E+01  0.00000000000E+00 0. -1.
</event>
<event>
 5    1  0.3005426E+001  0.1599417E+01  0.7818608E-02  0.3353997E+00
         11   -1    0    0    0    0  0.00000000000E+00  0.00000000000E+00  0.39999999674E+01  0.40000000000E+01  0.51100000000E-03 0. -1.
    9000002   -1    0    0    0    0 -0.00000000000E+00 -0.00000000000E+00  0.00000000000E+00  0.93800000000E+00  0.93800000000E+00 0.  1.
         11    1    1    2    0    0  0.13876167733E+00 -0.10453567372E+00  0.11713386784E+01  0.11841524694E+01  0.51100000000E-03 0. -1.
    9000002    1    1    2    0    0 -0.39411161490E+00  0.33198440634E+00  0.18248991400E+00  0.10856722248E+01  0.93800000000E+00 0.  1.
         22    1    1    2    0    0  0.25534993757E+00 -0.22744873262E+00  0.26461713750E+01  0.26681753058E+01  0.00000000000E+00 0. -1.
</event>
<event>
 5    1  0.3005426E+001  0.1599673E+01  0.7818608E-02  0.3353718E+00
         11   -1    0    0    0    0  0.00000000000E+00  0.00000000000E+00  0.39999999674E+01  0.40000000000E+01  0.51100000000E-03 0.  1.
    9000002   -1    0    0    0    0 -0.00000000000E+00 -0.00000000000E+00  0.00000000000E+00  0.93800000000E+00  0.93800000000E+00 0. -1.
         11    1    1    2    0    0  0.31591599013E-01 -0.62591840220E-01  0.76996627551E+00  0.77315205111E+00  0.51100000000E-03 0.  1.
    9000002    1    1    2    0    0 -0.16924700418E+00  0.32115726637E+00  0.88496969214E-01  0.10096842337E+01  0.93800000000E+00 0. -1.
         22    1    1    2    0    0  0.13765540517E+00 -0.25856542615E+00  0.31415367226E+01  0.31551637152E+01  0.00000000000E+00 0.  1.
</event>
<event>
 5    1  0.3005426E+001  0.1561100E+01  0.7818608E-02  0.3396698E+00
         11   -1    0    0    0    0  0.00000000000E+00  0.00000000000E+00  0.39999999674E+01  0.40000000000E+01  0.51100000000E-03 0.  1.
    9000002   -1    0    0    0    0 -0.00000000000E+00 -0.00000000000E+00  0.00000000000E+00  0.93800000000E+00  0.93800000000E+00 0.  1.
         11    1    1    2    0    0  0.96653951271E-01  0.11601863884E+00  0.53658761237E+00  0.55743056763E+00  0.51100000000E-03 0.  1.
    9000002    1    1    2    0    0  0.23833020181E+00 -0.12000299048E+00  0.77681424012E-01  0.97830486376E+00  0.93800000000E+00 0.  1.
         22    1    1    2    0    0 -0.33498415308E+00  0.39843516394E-02  0.33857309310E+01  0.34022645686E+01  0.00000000000E+00 0.  1.
</event>
<event>
 5    1  0.3005426E+001  0.1598833E+01  0.7818608E-02  0.3354631E+00
         11   -1    0    0    0    0  0.00000000000E+00  0.00000000000E+00  0.39999999674E+01  0.40000000000E+01  0.51100000000E-03 0.  1.
    9000002   -1    0    0    0    0 -0.00000000000E+00 -0.00000000000E+00  0.00000000000E+00  0.93800000000E+00  0.93800000000E+00 0. -1.
         11    1    1    2    0    0 -0.13238002061E+00 -0.76852141022E-02  0.87444019252E+00  0.88443736001E+00  0.51100000000E-03 0.  1.
    9000002    1    1    2    0    0  0.48737654517E+00 -0.55781859011E-01  0.16523306370E+00  0.10713512393E+01  0.93800000000E+00 0. -1.
         22    1    1    2    0    0 -0.35499652456E+00  0.63467073113E-01  0.29603267111E+01  0.29822114007E+01  0.00000000000E+00 0.  1.
</event>
<event>
 5    1  0.3005426E+001  0.1595921E+01  0.7818608E-02  0.3357802E+00
         11   -1    0    0    0    0  0.00000000000E+00  0.00000000000E+00  0.39999999674E+01  0.40000000000E+01  0.51100000000E-03 0. -1.
    9000002   -1    0    0    0    0 -0.00000000000E+00 -0.00000000000E+00  0.00000000000E+00  0.93800000000E+00  0.93800000000E+00 0.  1.
         11    1    1    2    0    0 -0.74706682649E-01  0.53731580864E-01  0.13548840201E+01  0.13580055745E+01  0.51100000000E-03 0. -1.
    9000002    1    1    2    0    0  0.41199720360E+00 -0.11711517964E+00  0.12741161040E+00  0.10390069199E+01  0.93800000000E+00 0.  1.
         22    1    1    2    0    0 -0.33729052095E+00  0.63383598775E-01  0.25177043368E+01  0.25409875057E+01  0.00000000000E+00 0.  1.
</event>
<event>
 5    1  0.3005426E+001  0.1525125E+01  0.7818608E-02  0.3438868E+00
         11   -1    0    0    0    0  0.00000000000E+00  0.00000000000E+00  0.39999999674E+01  0.40000000000E+01  0.51100000000E-03 0.  1.
    9000002   -1    0    0    0    0 -0.00000000000E+00 -0.00000000000E+00  0.00000000000E+00  0.93800000000E+00  0.93800000000E+00 0. -1.
         11    1    1    2    0    0 -0.45219996879E+00 -0.15015485025E+00  0.66162943863E+00  0.81534352638E+00  0.51100000000E-03 0.  1.
    9000002    1    1    2    0    0  0.14309041912E+00 -0.26320635853E-01  0.20751720777E+00  0.97163523785E+00  0.93800000000E+00 0. -1.
         22    1    1    2    0    0  0.30910954967E+00  0.17647548610E+00  0.31308533210E+01  0.31510212358E+01  0.00000000000E+00 0.  1.
</event>
<event>
 5    1  0.3005426E+001  0.1599519E+01  0.7818608E-02  0.3353886E+00
         11   -1    0    0    0    0  0.00000000000E+00  0.00000000000E+00  0.39999999674E+01  0.40000000000E+01  0.51100000000E-03 0. -1.
    9000002   -1    0    0    0    0 -0.00000000000E+00 -0.00000000000E+00  0.00000000000E+00  0.93800000000E+00  0.93800000000E+00 0.  1.
         11    1    1    2    0    0 -0.33414810801E-01  0.84764927999E-01  0.24038673203E+00  0.25707525096E+00  0.51100000000E-03 0. -1.
    9000002    1    1    2    0    0  0.48342121915E+00 -0.97584720970E+00  0.10126679279E+01  0.17582133500E+01  0.93800000000E+00 0.  1.
         22    1    1    2    0    0 -0.45000640835E+00  0.89108228170E+00  0.27469453074E+01  0.29227113991E+01  0.00000000000E+00 0. -1.
</event>
<event>
 5    1  0.3005426E+001  0.1599676E+01  0.7818608E-02  0.3353715E+00
         11   -1    0    0    0    0  0.00000000000E+00  0.00000000000E+00  0.39999999674E+01  0.40000000000E+01  0.51100000000E-03 0. -1.
    9000002   -1    0    0    0    0 -0.00000000000E+00 -0.00000000000E+00  0.00000000000E+00  0.93800000000E+00  0.93800000000E+00 0. -1.
         11    1    1    2    0    0 -0.58850354676E-01 -0.78511781543E-02  0.61114986303E+00  0.61402721555E+00  0.51100000000E-03 0. -1.
    9000002    1    1    2    0    0  0.37293671148E+00  0.53590181314E-01  0.95475669382E-01  0.10153390083E+01  0.93800000000E+00 0. -1.
         22    1    1    2    0    0 -0.31408635681E+00 -0.45739003160E-01  0.32933744350E+01  0.33086337762E+01  0.00000000000E+00 0. -1.
</event>
<event>
 5    1  0.3005426E+001  0.1599668E+01  0.7818608E-02  0.3353723E+00
         11   -1    0    0    0    0  0.00000000000E+00  0.00000000000E+00  0.39999999674E+01  0.40000000000E+01  0.51100000000E-03 0. -1.
    9000002   -1    0    0    0    0 -0.00000000000E+00 -0.00000000000E+00  0.00000000000E+00  0.93800000000E+00  0.93800000000E+00 0.  1.
         11    1    1    2    0    0 -0.10852485521E-01  0.13006553050E+00  0.14116412145E+01  0.14176621595E+01  0.51100000000E-03 0. -1.
    9000002    1    1    2    0    0  0.20932692593E-01 -0.35861831354E+00  0.86622515769E-01  0.10081630487E+01  0.93800000000E+00 0.  1.
         22    1    1    2    0    0 -0.10080207072E-01  0.22855278304E+00  0.25017362370E+01  0.25121747919E+01  0.00000000000E+00 0. -1.
</event>
<event>
 5    1  0.3005426E+001  0.1599605E+01  0.7818608E-02  0.3353792E+00
         11   -1    0    0    0    0  0.00000000000E+00  0.00000000000E+00  0.39999999674E+01  0.40000000000E+01  0.51100000000E-03 0.  1.
    9000002   -1    0    0    0    0 -0.00000000000E+00 -0.00000000000E+00  0.00000000000E+00  0.93800000000E+00  0.93800000000E+00 0.  1.
         11    1    1    2    0    0  0.36554626642E-03  0.31787425411E-01  0.31721378952E+00  0.31880311075E+00  0.51100000000E-03 0.  1.
    9000002    1    1    2    0    0 -0.65792140136E-01 -0.36082932387E+00  0.90431686690E-01  0.10112113017E+01  0.93800000000E+00 0.  1.
         22    1    1    2    0    0  0.65426593870E-01  0.32904189846E+00  0.35923544911E+01  0.36079855876E+01  0.00000000000E+00 0.  1.
</event>
<event>
 5    1  0.3005426E+001  0.1599517E+01  0.7818608E-02  0.3353888E+00
         11   -1    0    0    0    0  0.00000000000E+00  0.00000000000E+00  0.39999999674E+01  0.40000000000E+01  0.51100000000E-03 0. -1.
    9000002   -1    0    0    0    0 -0.00000000000E+00 -0.00000000000E+00  0.00000000000E+00  0.93800000000E+00  0.93800000000E+00 0. -1.
         11    1    1    2    0    0 -0.23504765200E-01  0.90713443227E-02  0.13670920096E+00  0.13901233766E+00  0.51100000000E-03 0. -1.
    9000002    1    1    2    0    0  0.57085569349E+00 -0.11234064053E+00  0.23542706385E+00  0.11286126637E+01  0.93800000000E+00 0. -1.
         22    1    1    2    0    0 -0.54735092829E+00  0.10326929621E+00  0.36278637026E+01  0.36703749986E+01  0.00000000000E+00 0. -1.
</event>
<event>
 5    1  0.3005426E+001  0.1599676E+01  0.7818608E-02  0.3353716E+00
         11   -1    0    0    0    0  0.00000000000E+00  0.00000000000E+00  0.39999999674E+01  0.40000000000E+01  0.51100000000E-03 0.  1.
    9000002   -1    0    0    0    0 -0.00000000000E+00 -0.00000000000E+00  0.00000000000E+00  0.93800000000E+00  0.93800000000E+00 0.  1.
         11    1    1    2    0    0  0.22638088889E-01  0.41205287246E-01  0.49148984495E+00  0.49373362006E+00  0.51100000000E-03 0.  1.
    9000002    1    1    2    0    0 -0.17341193232E+00 -0.32568040229E+00  0.91481068884E-01  0.10121028647E+01  0.93800000000E+00 0.  1.
         22    1    1    2    0    0  0.15077384343E+00  0.28447511504E+00  0.34170290535E+01  0.34321635153E+01  0.00000000000E+00 0.  1.
</event>
<event>
 5    1  0.3005426E+001  0.1599677E+01  0.7818608E-02  0.3353714E+00
         11   -1    0    0    0    0  0.00000000000E+00  0.00000000000E+00  0.39999999674E+01  0.40000000000E+01  0.51100000000E-03 0.  1.
    9000002   -1    0    0    0    0 -0.00000000000E+00 -0.00000000000E+00  0.00000000000E+00  0.93800000000E+00  0.93800000000E+00 0.  1.
         11    1    1    2    0    0  0.80691283822E-01  0.10002755172E+00  0.10687419403E+01  0.10764414478E+01  0.51100000000E-03 0.  1.
    9000002    1    1    2    0    0 -0.28907019527E+00 -0.36129841557E+00  0.14568976960E+00  0.10560149771E+01  0.93800000000E+00 0.  1.
         22    1    1    2    0    0  0.20837891145E+00  0.26127086384E+00  0.27855682575E+01  0.28055435751E+01  0.00000000000E+00 0.  1.
</event>
<event>
 5    1  0.3005426E+001  0.1599541E+01  0.7818608E-02  0.3353862E+00
         11   -1    0    0    0    0  0.00000000000E+00  0.00000000000E+00  0.39999999674E+01  0.40000000000E+01  0.51100000000E-03 0. -1.
    9000002   -1    0    0    0    0 -0.00000000000E+00 -0.00000000000E+00  0.00000000000E+00  0.93800000000E+00  0.93800000000E+00 0. -1.
         11    1    1    2    0    0 -0.15638149397E+00 -0.71039722804E-01  0.13939455858E+01  0.14044879391E+01  0.51100000000E-03 0. -1.
    9000002    1    1    2    0    0  0.40009483302E+00  0.18090196564E+00  0.13085684178E+00  0.10439199728E+01  0.93800000000E+00 0. -1.
         22    1    1    2    0    0 -0.24371333905E+00 -0.10986224284E+00  0.24751975398E+01  0.24895920881E+01  0.00000000000E+00 0. -1.
</event>
<event>
 5    1  0.3005426E+001  0.1598925E+01  0.7818608E-02  0.3354531E+00
         11   -1    0    0    0    0  0.00000000000E+00  0.00000000000E+00  0.39999999674E+01  0.40000000000E+01  0.51100000000E-03 0. -1.
    9000002   -1    0    0    0    0 -0.00000000000E+00 -0.00000000000E+00  0.00000000000E+00  0.93800000000E+00  0.93800000000E+00 0.  1.
         11    1    1    2    0    0  0.60645123537E-01 -0.88667044592E-02  0.63344536661E+00  0.63640375789E+00  0.51100000000E-03 0. -1.
    9000002    1    1    2    0    0 -0.43163671005E+00  0.18891504823E+00  0.15192461151E+00  0.10606244540E+01  0.93800000000E+00 0.  1.
         22    1    1    2    0    0  0.37099158651E+00 -0.18004834377E+00  0.32146299892E+01  0.32409717881E+01  0.00000000000E+00 0. -1.
</event>
<event>
 5    1  0.3005426E+001  0.1599556E+01  0.7818608E-02  0.3353846E+00
         11   -1    0    0    0    0  0.00000000000E+00  0.00000000000E+00  0.39999999674E+01  0.40000000000E+01  0.51100000000E-03 0. -1.
    9000002   -1    0    0    0    0 -0.00000000000E+00 -0.00000000000E+00  0.00000000000E+00  0.93800000000E+00  0.93800000000E+00 0.  1.
         11    1    1    2    0    0 -0.23873353121E+00  0.13224097010E+00  0.12159191299E+01  0.12461705199E+01  0.51100000000E-03 0. -1.
    9000002    1    1    2    0    0  0.70832651038E+00 -0.35085231471E+00  0.45894351665E+00  0.13096934540E+01  0.93800000000E+00 0.  1.
         22    1    1    2    0    0 -0.46959297917E+00  0.21861134461E+00  0.23251373208E+01  0.23821360261E+01  0.00000000000E+00 0. -1.
</event>
<event>
 5    1  0.3005426E+001  0.1597748E+01  0.7818608E-02  0.3355811E+00
         11   -1    0    0    0    0  0.00000000000E+00  0.00000000000E+00  0.39999999674E+01  0.40000000000E+01  0.51100000000E-03 0. -1.
    9000002   -1    0    0    0    0 -0.00000000000E+00 -0.00000000000E+00  0.00000000000E+00  0.93800000000E+00  0.93800000000E+00 0. -1.
         11    1    1    2    0    0 -0.64616612800E-01 -0.44623992146E-02  0.98789633062E+00  0.99001749522E+00  0.51100000000E-03 0. -1.
    9000002    1    1    2    0    0  0.29090819326E+00  0.19647522405E+00  0.84191929244E-01  0.10050683417E+01  0.93800000000E+00 0. -1.
         22    1    1    2    0    0 -0.22629158046E+00 -0.19201282484E+00  0.29279117075E+01  0.29429141631E+01  0.00000000000E+00 0. -1.
</event>
<event>
 5    1  0.3005426E+001  0.1477389E+01  0.7818608E-02  0.3498232E+00
         11   -1    0    0    0    0  0.00000000000E+00  0.00000000000E+00  0.39999999674E+01  0.40000000000E+01  0.51100000000E-03 0. -1.
    9000002   -1    0    0    0    0 -0.00000000000E+00 -0.00000000000E+00  0.00000000000E+00  0.93800000000E+00  0.93800000000E+00 0. -1.
         11    1    1    2    0    0 -0.39370626872E+00  0.15276802858E+00  0.13746465845E+01  0.14380529162E+01  0.51100000000E-03 0. -1.
    9000002    1    1    2    0    0  0.82945484301E-01  0.56450289696E-01  0.10190127393E+00  0.94883847846E+00  0.93800000000E+00 0. -1.
         22    1    1    2    0    0  0.31076078442E+00 -0.20921831828E+00  0.25234521090E+01  0.25511086053E+01  0.00000000000E+00 0. -1.
</event>
<event>
 5    1  0.3005426E+001  0.1599675E+01  0.7818608E-02  0.3353716E+00
         11   -1    0    0    0    0  0.00000000000E+00  0.00000000000E+00  0.39999999674E+01  0.40000000000E+01  0.51100000000E-03 0. -1.
    9000002   -1    0    0    0    0 -0.00000000000E+00 -0.00000000000E+00  0.00000000000E+00  0.93800000000E+00  0.93800000000E+00 0. -1.
         11    1    1    2    0    0 -0.18325677890E-01  0.26213955914E-03  0.16460748424E+00  0.16562543336E+00  0.51100000000E-03 0.  1.
    9000002    1    1    2    0    0  0.41960613733E+00 -0.20228740862E-02  0.11907482411E+00  0.10344545501E+01  0.93800000000E+00 0. -1.
         22    1    1    2    0    0 -0.40128045944E+00  0.17607345271E-02  0.37163176590E+01  0.37379200165E+01  0.00000000000E+00 0. -1.
</event>
<event>
 5    1  0.3005426E+001  0.1551314E+01  0.7818608E-02  0.3407962E+00
         11   -1    0    0    0    0  0.00000000000E+00  0.00000000000E+00  0.39999999674E+01  0.40000000000E+01  0.51100000000E-03 0. -1.
    9000002   -1    0    0    0    0 -0.00000000000E+00 -0.00000000000E+00  0.00000000000E+00  0.93800000000E+00  0.93800000000E+00 0. -1.
         11    1    1    2    0    0  0.17501308652E+00 -0.70989909122E-02  0.75426068768E+00  0.77433159707E+00  0.51100000000E-03 0. -1.
    9000002    1    1    2    0    0  0.16286812320E+00  0.20868930502E+00  0.84783090537E-01  0.97831969418E+00  0.93800000000E+00 0. -1.
         22    1    1    2    0    0 -0.33788120971E+00 -0.20159031411E+00  0.31609561891E+01  0.31853487087E+01  0.00000000000E+00 0. -1.
</event>
<event>
 5    1  0.3005426E+001  0.1599593E+01  0.7818608E-02  0.3353805E+00
         11   -1    0    0    0    0  0.00000000000E+00  0.00000000000E+00  0.39999999674E+01  0.40000000000E+01  0.51100000000E-03 0. -1.
    9000002   -1    0    0    0    0 -0.00000000000E+00 -0.00000000000E+00  0.00000000000E+00  0.93800000000E+00  0.93800000000E+00 0. -1.
         11    1    1    2    0    0  0.93949396236E-01 -0.22657160015E-01  0.89906402812E+00  0.90424345379E+00  0.51100000000E-03 0. -1.
    9000002    1    1    2    0    0 -0.37373114302E+00  0.12089599713E+00  0.10404677112E+00  0.10222331143E+01  0.93800000000E+00 0. -1.
         22    1    1    2    0    0  0.27978174678E+00 -0.98238837110E-01  0.29968891681E+01  0.30115234319E+01  0.00000000000E+00 0. -1.
</event>
<event>
 5    1  0.3005426E+001  0.1599432E+01  0.7818608E-02  0.3353980E+00
         11   -1    0    0    0    0  0.00000000000E+00  0.00000000000E+00  0.39999999674E+01  0.40000000000E+01  0.51100000000E-03 0. -1.
    9000002   -1    0    0    0    0 -0.00000000000E+00 -0.00000000000E+00  0.00000000000E+00  0.93800000000E+00  0.93800000000E+00 0. -1.
         11    1    1    2    0    0 -0.13021802867E+00  0.46474597538E-01  0.12910293357E+01  0.12984119647E+01  0.51100000000E-03 0. -1.
    9000002    1    1    2    0    0  0.36764068751E+00 -0.93503929237E-01  0.97016967823E-01  0.10164442690E+01  0.93800000000E+00 0. -1.
         22    1    1    2    0    0 -0.23742265884E+00  0.47029331698E-01  0.26119536638E+01  0.26231437663E+01  0.00000000000E+00 0. -1.
</event>
<event>
 5    1  0.3005426E+001  0.1599675E+01  0.7818608E-02  0.3353716E+00
         11   -1    0    0    0    0  0.00000000000E+00  0.00000000000E+00  0.39999999674E+01  0.40000000000E+01  0.51100000000E-03 0.  1.
    9000002   -1    0    0    0    0 -0.00000000000E+00 -0.00000000000E+00  0.00000000000E+00  0.93800000000E+00  0.93800000000E+00 0.  1.
         11    1    1    2    0    0  0.99044181761E-01 -0.55567552536E-01  0.12353856881E+01  0.12405948421E+01  0.51100000000E-03 0.  1.
    9000002    1    1    2    0    0 -0.31524571206E+00  0.17136507962E+00  0.86412107533E-01  0.10079964791E+01  0.93800000000E+00 0.  1.
         22    1    1    2    0    0  0.21620153030E+00 -0.11579752708E+00  0.26782021717E+01  0.26894086788E+01  0.00000000000E+00 0.  1.
</event>
<event>
 5    1  0.3005426E+001  0.1599676E+01  0.7818608E-02  0.3353715E+00
         11   -1    0    0    0    0  0.00000000000E+00  0.00000000000E+00  0.39999999674E+01  0.40000000000E+01  0.51100000000E-03 0.  1.
    9000002   -1    0    0    0    0 -0.00000000000E+00 -0.00000000000E+00  0.00000000000E+00  0.93800000000E+00  0.93800000000E+00 0. -1.
         11    1    1    2    0    0  0.41137301886E-02  0.23910142022E-01  0.25786615378E+00  0.25900546723E+00  0.51100000000E-03 0. -1.
    9000002    1    1    2    0    0 -0.62440275948E-01 -0.35881356492E+00  0.89083728416E-01  0.10101613104E+01  0.93800000000E+00 0. -1.
         22    1    1    2    0    0  0.58326545759E-01  0.33490342290E+00  0.36530500852E+01  0.36688332223E+01  0.00000000000E+00 0.  1.
</event>
<event>
 5    1  0.3005426E+001  0.1599675E+01  0.7818608E-02  0.3353716E+00
         11   -1    0    0    0    0  0.00000000000E+00  0.00000000000E+00  0.39999999674E+01  0.40000000000E+01  0.51100000000E-03 0.  1.
    9000002   -1    0    0    0    0 -0.00000000000E+00 -0.00000000000E+00  0.00000000000E+00  0.93800000000E+00  0.93800000000E+00 0.  1.
         11    1    1    2    0    0 -0.31628553491E-02 -0.47295976197E-01  0.24608281019E+00  0.25060711006E+00  0.51100000000E-03 0. -1.
    9000002    1    1    2    0    0  0.43611417889E-01  0.69156823797E+00  0.34252112535E+00  0.12154560070E+01  0.93800000000E+00 0.  1.
         22    1    1    2    0    0 -0.40448562540E-01 -0.64427226178E+00  0.34113960318E+01  0.34719368830E+01  0.00000000000E+00 0.  1.
</event>
<event>
 5    1  0.3005426E+001  0.1599595E+01  0.7818608E-02  0.3353803E+00
         11   -1    0    0    0    0  0.00000000000E+00  0.00000000000E+00  0.39999999674E+01  0.40000000000E+01  0.51100000000E-03 0. -1.
    9000002   -1    0    0    0    0 -0.00000000000E+00 -0.00000000000E+00  0.00000000000E+00  0.93800000000E+00  0.93800000000E+00 0.  1.
         11    1    1    2    0    0 -0.93617246909E-01  0.97209787736E-01  0.11451516680E+01  0.11530769860E+01  0.51100000000E-03 0. -1.
    9000002    1    1    2    0    0  0.29211120856E+00 -0.30645122933E+00  0.12134661790E+00  0.10362481922E+01  0.93800000000E+00 0.  1.
         22    1    1    2    0    0 -0.19849396165E+00  0.20924144159E+00  0.27335016815E+01  0.27486748218E+01  0.00000000000E+00 0. -1.
</event>
<event>
 5    1  0.3005426E+001  0.1580595E+01  0.7818608E-02  0.3374698E+00
         11   -1    0    0    0    0  0.00000000000E+00  0.00000000000E+00  0.39999999674E+01  0.40000000000E+01  0.51100000000E-03 0. -1.
    9000002   -1    0    0    0    0 -0.00000000000E+00 -0.00000000000E+00  0.00000000000E+00  0.93800000000E+00  0.93800000000E+00 0.  1.
         11    1    1    2    0    0 -0.31751259269E-02  0.15086495409E-01 -0.78685932695E-03  0.15445518346E-01  0.51100000000E-03 0. -1.
    9000002    1    1    2    0    0  0.54728727973E-01 -0.48365103535E+00  0.17901739763E+00  0.10718231134E+01  0.93800000000E+00 0.  1.
         22    1    1    2    0    0 -0.51553602046E-01  0.46856453994E+00  0.38217694291E+01  0.38507313683E+01  0.00000000000E+00 0. -1.
</event>
<event>
 5    1  0.3005426E+001  0.1599651E+01  0.7818608E-02  0.3353742E+00
         11   -1    0    0    0    0  0.00000000000E+00  0.00000000000E+00  0.39999999674E+01  0.40000000000E+01  0.51100000000E-03 0. -1.
    9000002   -1    0    0    0    0 -0.00000000000E+00 -0.00000000000E+00  0.00000000000E+00  0.93800000000E+00  0.93800000000E+00 0.  1.
         11    1    1    2    0    0  0.54187821444E-01 -0.68388800943E-01  0.55409697844E+00  0.56092519174E+00  0.51100000000E-03 0. -1.
    9000002    1    1    2    0    0 -0.37619518073E+00  0.43666586634E+00  0.23066461735E+00  0.11248333470E+01  0.93800000000E+00 0.  1.
         22    1    1    2    0    0  0.32200735929E+00 -0.36827706540E+00  0.32152383716E+01  0.32522414613E+01  0.00000000000E+00 0. -1.
</event>
<event>
 5    1  0.3005426E+001  0.1599675E+01  0.7818608E-02  0.3353716E+00
         11   -1    0    0    0    0  0.00000000000E+00  0.00000000000E+00  0.39999999674E+01  0.40000000000E+01  0.51100000000E-03 0. -1.
    9000002   -1    0    0    0    0 -0.00000000000E+00 -0.00000000000E+00  0.00000000000E+00  0.93800000000E+00  0.93800000000E+00 0. -1.
         11    1    1    2    0    0  0.11643452890E+00  0.15843631959E-01  0.95623363701E+00  0.96342672262E+00  0.51100000000E-03 0. -1.
    9000002    1    1    2    0    0 -0.46377818449E+00 -0.65500869741E-01  0.14941578210E+00  0.10590324095E+01  0.93800000000E+00 0. -1.
         22    1    1    2    0    0  0.34734365559E+00  0.49657237782E-01  0.28943505483E+01  0.29155408679E+01  0.00000000000E+00 0. -1.
</event>
<event>
 5    1  0.3005426E+001  0.1594651E+01  0.7818608E-02  0.3359190E+00
         11   -1    0    0    0    0  0.00000000000E+00  0.00000000000E+00  0.39999999674E+01  0.40000000000E+01  0.51100000000E-03 0.  1.
    9000002   -1    0    0    0    0 -0.00000000000E+00 -0.00000000000E+00  0.00000000000E+00  0.93800000000E+00  0.93800000000E+00 0.  1.
         11    1    1    2    0    0  0.52525481106E-01 -0.15026539933E-01  0.50962281724E+00  0.51254307140E+00  0.51100000000E-03 0.  1.
    9000002    1    1    2    0    0 -0.21384601852E+00 -0.28273313149E+00  0.88373137121E-01  0.10066389396E+01  0.93800000000E+00 0.  1.
         22    1    1    2    0    0  0.16132053741E+00  0.29775967142E+00  0.34020040130E+01  0.34188179890E+01  0.00000000000E+00 0.  1.
</event>
<event>
 5    1  0.3096578E+001  0.1520796E+01  0.7818608E-02  0.3444085E+00
         11   -1    0    0    0    0  0.00000000000E+00  0.00000000000E+00  0.39999999674E+01  0.40000000000E+01  0.51100000000E-03 0.  1.
    9000002   -1    0    0    0    0 -0.00000000000E+00 -0.00000000000E+00  0.00000000000E+00  0.93800000000E+00  0.93800000000E+00 0.  1.
         11    1    1    2    0    0  0.22144759384E+00 -0.14772073883E+00  0.10110797825E+01  0.10455348111E+01  0.51100000000E-03 0.  1.
    9000002    1    1    2    0    0  0.84905590157E-01 -0.81502903710E-01  0.69311681921E-01  0.94789228914E+00  0.93800000000E+00 0.  1.
         22    1    1    2    0    0 -0.30635318400E+00  0.22922364254E+00  0.29196085030E+01  0.29445728998E+01  0.00000000000E+00 0.  1.
</event>
<event>
 5    1  0.3005426E+001  0.1557382E+01  0.7818608E-02  0.3400960E+00
         11   -1    0    0    0    0  0.00000000000E+00  0.00000000000E+00  0.39999999674E+01  0.40000000000E+01  0.51100000000E-03 0. -1.
    9000002   -1    0    0    0    0 -0.00000000000E+00 -0.00000000000E+00  0.00000000000E+00  0.93800000000E+00  0.93800000000E+00 0. -1.
         11    1    1    2    0    0 -0.14400825082E-01 -0.57555648581E-01  0.53145117207E-01  0.79653631747E-01  0.51100000000E-03 0. -1.
    9000002    1    1    2    0    0 -0.24204534053E+00 -0.21100478009E+00  0.10320062951E+00  0.99679653592E+00  0.93800000000E+00 0. -1.
         22    1    1    2    0    0  0.25644616561E+00  0.26856042867E+00  0.38436542206E+01  0.38615498323E+01  0.00000000000E+00 0. -1.
</event>
<event>
 5    1  0.3005426E+001  0.1599594E+01  0.7818608E-02  0.3353804E+00
         11   -1    0    0    0    0  0.00000000000E+00  0.00000000000E+00  0.39999999674E+01  0.40000000000E+01  0.51100000000E-03 0.  1.
    9000002   -1    0    0    0    0 -0.00000000000E+00 -0.00000000000E+00  0.00000000000E+00  0.93800000000E+00  0.93800000000E+00 0.  1.
         11    1    1    2    0    0  0.89812903255E-01  0.12356011988E+00  0.14555460650E+01  0.14635395687E+01  0.51100000000E-03 0.  1.
    9000002    1    1    2    0    0 -0.21766766094E+00 -0.31430803773E+00  0.98444395017E-01  0.10176954614E+01  0.93800000000E+00 0.  1.
         22    1    1    2    0    0  0.12785475768E+00  0.19074791785E+00  0.24460095074E+01  0.24567649699E+01  0.00000000000E+00 0.  1.
</event>
<event>
 5    1  0.3005426E+001  0.1592693E+01  0.7818608E-02  0.3361332E+00
         11   -1    0    0    0    0  0.00000000000E+00  0.00000000000E+00  0.39999999674E+01  0.40000000000E+01  0.51100000000E-03 0. -1.
    9000002   -1    0    0    0    0 -0.00000000000E+00 -0.00000000000E+00  0.00000000000E+00  0.93800000000E+00  0.93800000000E+00 0. -1.
         11    1    1    2    0    0 -0.26073563715E-01  0.14853536159E-01  0.11744043289E+01  0.11747877455E+01  0.51100000000E-03 0. -1.
    9000002    1    1    2    0    0  0.12313324646E+00  0.25704759044E+00  0.59563741473E-01  0.98215431549E+00  0.93800000000E+00 0. -1.
         22    1    1    2    0    0 -0.97059682741E-01 -0.27190112659E+00  0.27660318970E+01  0.27810579390E+01  0.00000000000E+00 0.  1.
</event>
<event>
 5    1  0.3005426E+001  0.1599661E+01  0.7818608E-02  0.3353732E+00
         11   -1    0    0    0    0  0.00000000000E+00  0.00000000000E+00  0.39999999674E+01  0.40000000000E+01  0.51100000000E-03 0. -1.
    9000002   -1    0    0    0    0 -0.00000000000E+00 -0.00000000000E+00  0.00000000000E+00  0.93800000000E+00  0.93800000000E+00 0. -1.
         11    1    1    2    0    0  0.42277371069E-02 -0.26468397913E-01  0.13294032142E+00  0.13561651827E+00  0.51100000000E-03 0. -1.
    9000002    1    1    2    0    0 -0.86417219311E-01  0.75302897596E+00  0.41752048001E+00  0.12762005821E+01  0.93800000000E+00 0. -1.
         22    1    1    2    0    0  0.82189482205E-01 -0.72656057805E+00  0.34495391659E+01  0.35261828997E+01  0.00000000000E+00 0. -1.
</event>
<event>
 5    1  0.3005426E+001  0.1599361E+01  0.7818608E-02  0.3354057E+00
         11   -1    0    0    0    0  0.00000000000E+00  0.00000000000E+00  0.39999999674E+01  0.40000000000E+01  0.51100000000E-03 0. -1.
    9000002   -1    0    0    0    0 -0.00000000000E+00 -0.00000000000E+00  0.00000000000E+00  0.93800000000E+00  0.93800000000E+00 0. -1.
         11    1    1    2    0    0 -0.39903909967E-01 -0.16729296754E-01  0.27233800002E+00  0.27575430872E+00  0.51100000000E-03 0. -1.
    9000002    1    1    2    0    0  0.68032700148E+00  0.18275740278E+00  0.35543651828E+00  0.12257341538E+01  0.93800000000E+00 0. -1.
         22    1    1    2    0    0 -0.64042309151E+00 -0.16602810603E+00  0.33722254491E+01  0.34365115375E+01  0.00000000000E+00 0. -1.
</event>
<event>
 5    1  0.3005426E+001  0.1599186E+01  0.7818608E-02  0.3354247E+00
         11   -1    0    0    0    0  0.00000000000E+00  0.00000000000E+00  0.39999999674E+01  0.40000000000E+01  0.51100000000E-03 0.  1.
    9000002   -1    0    0    0    0 -0.00000000000E+00 -0.00000000000E+00  0.00000000000E+00  0.93800000000E+00  0.93800000000E+00 0. -1.
         11    1    1    2    0    0 -0.32099285098E-01  0.69644974000E-02  0.19421759071E+00  0.19697614573E+00  0.51100000000E-03 0.  1.
    9000002    1    1    2    0    0  0.41770338734E+00 -0.21788027880E+00  0.15165842057E+00  0.10605622152E+01  0.93800000000E+00 0. -1.
         22    1    1    2    0    0 -0.38560410224E+00  0.21091578140E+00  0.36541239561E+01  0.36804616391E+01  0.00000000000E+00 0.  1.
</event>
<event>
 5    1  0.3005426E+001  0.1520657E+01  0.7818608E-02  0.3444254E+00
         11   -1    0    0    0    0  0.00000000000E+00  0.00000000000E+00  0.39999999674E+01  0.40000000000E+01  0.51100000000E-03 0.  1.
    9000002   -1    0    0    0    0 -0.00000000000E+00 -0.00000000000E+00  0.00000000000E+00  0.93800000000E+00  0.93800000000E+00 0.  1.
         11    1    1    2    0    0 -0.20150305402E+00  0.53793755505E-01  0.46026500100E+00  0.50531315160E+00  0.51100000000E-03 0.  1.
    9000002    1    1    2    0    0  0.91667708852E-01  0.54060988661E+00  0.28633178710E+00  0.11236066530E+01  0.93800000000E+00 0.  1.
         22    1    1    2    0    0  0.10983534517E+00 -0.59440364212E+00  0.32534031793E+01  0.33090801954E+01  0.00000000000E+00 0.  1.
</event>
<event>
 5    1  0.3005426E+001  0.1599614E+01  0.7818608E-02  0.3353782E+00
         11   -1    0    0    0    0  0.00000000000E+00  0.00000000000E+00  0.39999999674E+01  0.40000000000E+01  0.51100000000E-03 0. -1.
    9000002   -1    0    0    0    0 -0.00000000000E+00 -0.00000000000E+00  0.00000000000E+00  0.93800000000E+00  0.93800000000E+00 0. -1.
         11    1    1    2    0    0 -0.30216784538E-01  0.50408644155E-01  0.37121826635E+00  0.37584218479E+00  0.51100000000E-03 0. -1.
    9000002    1    1    2    0    0  0.27204490706E+00 -0.55459404995E+00  0.26732507481E+00  0.11545084180E+01  0.93800000000E+00 0. -1.
         22    1    1    2    0    0 -0.24182812252E+00  0.50418540579E+00  0.33614566262E+01  0.34076493972E+01  0.00000000000E+00 0. -1.
</event>
<event>
 5    1  0.3005426E+001  0.1554598E+01  0.7818608E-02  0.3404165E+00
         11   -1    0    0    0    0  0.00000000000E+00  0.00000000000E+00  0.39999999674E+01  0.40000000000E+01  0.51100000000E-03 0. -1.
    9000002   -1    0    0    0    0 -0.00000000000E+00 -0.00000000000E+00  0.00000000000E+00  0.93800000000E+00  0.93800000000E+00 0. -1.
         11    1    1    2    0    0  0.15969086134E+00  0.58007796110E-01  0.65788117094E+00  0.67946594602E+00  0.51100000000E-03 0. -1.
    9000002    1    1    2    0    0  0.58230691241E-01  0.18281353057E+00  0.58837051751E-01  0.95922750118E+00  0.93800000000E+00 0. -1.
         22    1    1    2    0    0 -0.21792155258E+00 -0.24082132668E+00  0.32832817447E+01  0.32993065528E+01  0.00000000000E+00 0. -1.
</event>
<event>
 5    1  0.3005426E+001  0.1599033E+01  0.7818608E-02  0.3354414E+00
         11   -1    0    0    0    0  0.00000000000E+00  0.00000000000E+00  0.39999999674E+01  0.40000000000E+01  0.51100000000E-03 0.  1.
    9000002   -1    0    0    0    0 -0.00000000000E+00 -0.00000000000E+00  0.00000000000E+00  0.93800000000E+00  0.93800000000E+00 0. -1.
         11    1    1    2    0    0 -0.65987299134E-01 -0.66566808833E-01  0.60070248592E+00  0.60797138206E+00  0.51100000000E-03 0.  1.
    9000002    1    1    2    0    0  0.47047709464E+00  0.28990031621E+00  0.21164912196E+00  0.11090672841E+01  0.93800000000E+00 0. -1.
         22    1    1    2    0    0 -0.40448979550E+00 -0.22333350738E+00  0.31876483595E+01  0.32209613338E+01  0.00000000000E+00 0.  1.
</event>
<event>
 5    1  0.3005426E+001  0.1580539E+01  0.7818608E-02  0.3374761E+00
         11   -1    0    0    0    0  0.00000000000E+00  0.00000000000E+00  0.39999999674E+01  0.40000000000E+01  0.51100000000E-03 0. -1.
    9000002   -1    0    0    0    0 -0.00000000000E+00 -0.00000000000E+00  0.00000000000E+00  0.93800000000E+00  0.93800000000E+00 0. -1.
         11    1    1    2    0    0  0.18288442217E+00  0.11415153071E+00  0.78072568872E+00  0.80994453266E+00  0.51100000000E-03 0. -1.
    9000002    1    1    2    0    0 -0.22118494286E+00 -0.60185077801E+00  0.30973797591E+00  0.11776793926E+01  0.93800000000E+00 0. -1.
         22    1    1    2    0    0  0.38300520691E-01  0.48769924731E+00  0.29095363027E+01  0.29503760748E+01  0.00000000000E+00 0.  1.
</event>
<event>
 5    1  0.3005426E+001  0.1596937E+01  0.7818608E-02  0.3356695E+00
         11   -1    0    0    0    0  0.00000000000E+00  0.00000000000E+00  0.39999999674E+01  0.40000000000E+01  0.51100000000E-03 0. -1.
    9000002   -1    0    0    0    0 -0.00000000000E+00 -0.00000000000E+00  0.00000000000E+00  0.93800000000E+00  0.93800000000E+00 0.  1.
         11    1    1    2    0    0  0.56104644980E-01 -0.11018673588E+00  0.82066071291E+00  0.82992355960E+00  0.51100000000E-03 0. -1.
    9000002    1    1    2    0    0 -0.40073872062E+00  0.31647239898E+00  0.18131464291E+00  0.10832660344E+01  0.93800000000E+00 0.  1.
         22    1    1    2    0    0  0.34463407564E+00 -0.20628566311E+00  0.29980246115E+01  0.30248104060E+01  0.00000000000E+00 0. -1.
</event>
<event>
 5    1  0.3005426E+001  0.1599670E+01  0.7818608E-02  0.3353722E+00
         11   -1    0    0    0    0  0.00000000000E+00  0.00000000000E+00  0.39999999674E+01  0.40000000000E+01  0.51100000000E-03 0. -1.
    9000002   -1    0    0    0    0 -0.00000000000E+00 -0.00000000000E+00  0.00000000000E+00  0.93800000000E+00  0.93800000000E+00 0.  1.
         11    1    1    2    0    0  0.76685093392E-01  0.79061142430E-01  0.99960809984E+00  0.10056579350E+01  0.51100000000E-03 0. -1.
    9000002    1    1    2    0    0 -0.30793550866E+00 -0.30407322454E+00  0.12689160195E+00  0.10407834943E+01  0.93800000000E+00 0.  1.
         22    1    1    2    0    0  0.23125041527E+00  0.22501208211E+00  0.28735002656E+01  0.28915585707E+01  0.00000000000E+00 0. -1.
</event>
<event>
 5    1  0.3005426E+001  0.1597153E+01  0.7818608E-02  0.3356459E+00
         11   -1    0    0    0    0  0.00000000000E+00  0.00000000000E+00  0.39999999674E+01  0.40000000000E+01  0.51100000000E-03 0.  1.
    9000002   -1    0    0    0    0 -0.00000000000E+00 -0.00000000000E+00  0.00000000000E+00  0.93800000000E+00  0.93800000000E+00 0. -1.
         11    1    1    2    0    0 -0.10587606783E+00 -0.63845504955E-01  0.11079154323E+01  0.11147927415E+01  0.51100000000E-03 0.  1.
    9000002    1    1    2    0    0  0.51470000941E+00  0.10506733824E+00  0.19206711520E+00  0.10921030272E+01  0.93800000000E+00 0. -1.
         22    1    1    2    0    0 -0.40882394159E+00 -0.41221833288E-01  0.27000174198E+01  0.27311042313E+01  0.00000000000E+00 0.  1.
</event>
<event>
 5    1  0.3005426E+001  0.1599408E+01  0.7818608E-02  0.3354007E+00
         11   -1    0    0    0    0  0.00000000000E+00  0.00000000000E+00  0.39999999674E+01  0.40000000000E+01  0.51100000000E-03 0. -1.
    9000002   -1    0    0    0    0 -0.00000000000E+00 -0.00000000000E+00  0.00000000000E+00  0.93800000000E+00  0.93800000000E+00 0. -1.
         11    1    1    2    0    0 -0.54165180314E-01 -0.95092682040E-01  0.11561331700E+01  0.11613012757E+01  0.51100000000E-03 0. -1.
    9000002    1    1    2    0    0  0.14383850979E+00  0.36735762802E+00  0.10513302593E+00  0.10230044462E+01  0.93800000000E+00 0. -1.
         22    1    1    2    0    0 -0.89673329472E-01 -0.27226494598E+00  0.27387337714E+01  0.27536942781E+01  0.00000000000E+00 0.  1.
</event>
<event>
 5    1  0.3005426E+001  0.1586184E+01  0.7818608E-02  0.3368496E+00
         11   -1    0    0    0    0  0.00000000000E+00  0.00000000000E+00  0.39999999674E+01  0.40000000000E+01  0.51100000000E-03 0. -1.
    9000002   -1    0    0    0    0 -0.00000000000E+00 -0.00000000000E+00  0.00000000000E+00  0.93800000000E+00  0.93800000000E+00 0.  1.
         11    1    1    2    0    0  0.24956978393E-01 -0.31795913885E+00  0.99710685852E+00  0.10468730645E+01  0.51100000000E-03 0. -1.
    9000002    1    1    2    0    0 -0.12808925731E+00  0.69311821570E+00  0.37091351220E+00  0.12305448193E+01  0.93800000000E+00 0.  1.
         22    1    1    2    0    0  0.10313227892E+00 -0.37515907685E+00  0.26319795966E+01  0.26605821162E+01  0.00000000000E+00 0. -1.
</event>
<event>
 5    1  0.3005426E+001  0.1599662E+01  0.7818608E-02  0.3353731E+00
         11   -1    0    0    0    0  0.00000000000E+00  0.00000000000E+00  0.39999999674E+01  0.40000000000E+01  0.51100000000E-03 0.  1.
    9000002   -1    0    0    0    0 -0.00000000000E+00 -0.00000000000E+00  0.00000000000E+00  0.93800000000E+00  0.93800000000E+00 0.  1.
         11    1    1    2    0    0 -0.30286709475E-01 -0.35499025148E-01  0.46516738500E+00  0.46750232378E+00  0.51100000000E-03 0.  1.
    9000002    1    1    2    0    0  0.23379268592E+00  0.28325819368E+00  0.90637886139E-01  0.10114116129E+01  0.93800000000E+00 0.  1.
         22    1    1    2    0    0 -0.20350597644E+00 -0.24775916853E+00  0.34441946962E+01  0.34590860633E+01  0.00000000000E+00 0.  1.
</event>
<event>
 5    1  0.3005426E+001  0.1598458E+01  0.7818608E-02  0.3355039E+00
         11   -1    0    0    0    0  0.00000000000E+00  0.00000000000E+00  0.39999999674E+01  0.40000000000E+01  0.51100000000E-03 0. -1.
    9000002   -1    0    0    0    0 -0.00000000000E+00 -0.00000000000E+00  0.00000000000E+00  0.93800000000E+00  0.93800000000E+00 0. -1.
         11    1    1    2    0    0 -0.56796673658E-02 -0.60399880058E-01  0.56811960134E+00  0.57134975862E+00  0.51100000000E-03 0. -1.
    9000002    1    1    2    0    0  0.21517516146E+00  0.31290149129E+00  0.98026681118E-01  0.10166911643E+01  0.93800000000E+00 0. -1.
         22    1    1    2    0    0 -0.20949549410E+00 -0.25250161123E+00  0.33338536849E+01  0.33499590771E+01  0.00000000000E+00 0. -1.
</event>
<event>
 5    1  0.3005426E+001  0.1599677E+01  0.7818608E-02  0.3353714E+00
         11   -1    0    0    0    0  0.00000000000E+00  0.00000000000E+00  0.39999999674E+01  0.40000000000E+01  0.51100000000E-03 0.  1.
    9000002   -1    0    0    0    0 -0.00000000000E+00 -0.00000000000E+00  0.00000000000E+00  0.93800000000E+00  0.93800000000E+00 0.  1.
         11    1    1    2    0    0  0.12432453895E+00  0.48395612957E-01  0.13725626869E+01  0.13790312966E+01  0.51100000000E-03 0. -1.
    9000002    1    1    2    0    0 -0.35347001678E+00 -0.13739547612E+00  0.96757970513E-01  0.10163782143E+01  0.93800000000E+00 0.  1.
         22    1    1    2    0    0  0.22914547784E+00  0.88999863165E-01  0.25306793099E+01  0.25425904891E+01  0.00000000000E+00 0.  1.
</event>
<event>
 5    1  0.3005426E+001  0.1599672E+01  0.7818608E-02  0.3353720E+00
         11   -1    0    0    0    0  0.00000000000E+00  0.00000000000E+00  0.39999999674E+01  0.40000000000E+01  0.51100000000E-03 0. -1.
    9000002   -1    0    0    0    0 -0.00000000000E+00 -0.00000000000E+00  0.00000000000E+00  0.93800000000E+00  0.93800000000E+00 0.  1.
         11    1    1    2    0    0 -0.45751728771E-02  0.34898626501E-01  0.33491403487E+00  0.33675884281E+00  0.51100000000E-03 0. -1.
    9000002    1    1    2    0    0  0.54028163170E-01 -0.38866630055E+00  0.10376717326E+00  0.10220529154E+01  0.93800000000E+00 0.  1.
         22    1    1    2    0    0 -0.49452990293E-01  0.35376767405E+00  0.35613187592E+01  0.35791882418E+01  0.00000000000E+00 0. -1.
</event>
<event>
 5    1  0.3005426E+001  0.1568993E+01  0.7818608E-02  0.3387720E+00
         11   -1    0    0    0    0  0.00000000000E+00  0.00000000000E+00  0.39999999674E+01  0.40000000000E+01  0.51100000000E-03 0. -1.
    9000002   -1    0    0    0    0 -0.00000000000E+00 -0.00000000000E+00  0.00000000000E+00  0.93800000000E+00  0.93800000000E+00 0. -1.
         11    1    1    2    0    0  0.49116084316E-01 -0.15862563379E+00  0.89154121419E+00  0.90687401504E+00  0.51100000000E-03 0. -1.
    9000002    1    1    2    0    0  0.20928080115E+00  0.47646113130E-01  0.54009459203E-01  0.96375807520E+00  0.93800000000E+00 0. -1.
         22    1    1    2    0    0 -0.25839688547E+00  0.11097952066E+00  0.30544492940E+01  0.30673679098E+01  0.00000000000E+00 0. -1.
</event>
<event>
 5    1  0.3005426E+001  0.1505335E+01  0.7818608E-02  0.3462986E+00
         11   -1    0    0    0    0  0.00000000000E+00  0.00000000000E+00  0.39999999674E+01  0.40000000000E+01  0.51100000000E-03 0. -1.
    9000002   -1    0    0    0    0 -0.00000000000E+00 -0.00000000000E+00  0.00000000000E+00  0.93800000000E+00  0.93800000000E+00 0.  1.
         11    1    1    2    0    0 -0.10224136532E+00  0.28192284135E+00  0.98602265064E+00  0.10306186074E+01  0.51100000000E-03 0. -1.
    9000002    1    1    2    0    0 -0.10717360723E+00  0.51180388576E-01  0.81908328695E-01  0.94903034123E+00  0.93800000000E+00 0.  1.
         22    1    1    2    0    0  0.20941497255E+00 -0.33310322993E+00  0.29320689880E+01  0.29583510514E+01  0.00000000000E+00 0. -1.
</event>
<event>
 5    1  0.3005426E+001  0.1599674E+01  0.7818608E-02  0.3353717E+00
         11   -1    0    0    0    0  0.00000000000E+00  0.00000000000E+00  0.39999999674E+01  0.40000000000E+01  0.51100000000E-03 0.  1.
    9000002   -1    0    0    0    0 -0.00000000000E+00 -0.00000000000E+00  0.00000000000E+00  0.93800000000E+00  0.93800000000E+00 0.  1.
         11    1    1    2    0    0 -0.92353870666E-02 -0.14424150271E+00  0.11108447170E+01  0.11202085297E+01  0.51100000000E-03 0.  1.
    9000002    1    1    2    0    0  0.33724579101E-01  0.50300824821E+00  0.17410733481E+00  0.10790329045E+01  0.93800000000E+00 0.  1.
         22    1    1    2    0    0 -0.24489192034E-01 -0.35876674550E+00  0.27150479155E+01  0.27387585658E+01  0.00000000000E+00 0.  1.
</event>
<event>
 5    1  0.3005426E+001  0.1599648E+01  0.7818608E-02  0.3353745E+00
         11   -1    0    0    0    0  0.00000000000E+00  0.00000000000E+00  0.39999999674E+01  0.40000000000E+01  0.51100000000E-03 0.  1.
    9000002   -1    0    0    0    0 -0.00000000000E+00 -0.00000000000E+00  0.00000000000E+00  0.93800000000E+00  0.93800000000E+00 0.  1.
         11    1    1    2    0    0  0.66138634278E-01 -0.17086100317E+00  0.14401047923E+01  0.14517127385E+01  0.51100000000E-03 0.  1.
    9000002    1    1    2    0    0 -0.15974400982E+00  0.45734410171E+00  0.16026749072E+00  0.10678068386E+01  0.93800000000E+00 0.  1.
         22    1    1    2    0    0  0.93605375541E-01 -0.28648309854E+00  0.23996276844E+01  0.24184804228E+01  0.00000000000E+00 0.  1.
</event>
<event>
 5    1  0.3005426E+001  0.1589959E+01  0.7818608E-02  0.3364335E+00
         11   -1    0    0    0    0  0.00000000000E+00  0.00000000000E+00  0.39999999674E+01  0.40000000000E+01  0.51100000000E-03 0. -1.
    9000002   -1    0    0    0    0 -0.00000000000E+00 -0.00000000000E+00  0.00000000000E+00  0.93800000000E+00  0.93800000000E+00 0. -1.
         11    1    1    2    0    0  0.85456364422E-01 -0.60333358054E-01  0.11050276972E+01  0.11099681874E+01  0.51100000000E-03 0. -1.
    9000002    1    1    2    0    0 -0.42127038267E+00 -0.14336053611E+00  0.14280261717E+00  0.10479778462E+01  0.93800000000E+00 0. -1.
         22    1    1    2    0    0  0.33581401825E+00  0.20369389416E+00  0.27521696530E+01  0.27800539664E+01  0.00000000000E+00 0. -1.
</event>
<event>
 5    1  0.3005426E+001  0.1599659E+01  0.7818608E-02  0.3353733E+00
         11   -1    0    0    0    0  0.00000000000E+00  0.00000000000E+00  0.39999999674E+01  0.40000000000E+01  0.51100000000E-03 0. -1.
    9000002   -1    0    0    0    0 -0.00000000000E+00 -0.00000000000E+00  0.00000000000E+00  0.93800000000E+00  0.93800000000E+00 0. -1.
         11    1    1    2    0    0 -0.18326435677E+00 -0.27030275798E+00  0.11683398498E+01  0.12131231063E+01  0.51100000000E-03 0. -1.
    9000002    1    1    2    0    0  0.51979469538E+00  0.78092919793E+00  0.68542429346E+00  0.14932137823E+01  0.93800000000E+00 0. -1.
         22    1    1    2    0    0 -0.33653033861E+00 -0.51062643994E+00  0.21462358241E+01  0.22316631114E+01  0.00000000000E+00 0.  1.
</event>
<event>
 5    1  0.3005426E+001  0.1585107E+01  0.7818608E-02  0.3369688E+00
         11   -1    0    0    0    0  0.00000000000E+00  0.00000000000E+00  0.39999999674E+01  0.40000000000E+01  0.51100000000E-03 0. -1.
    9000002   -1    0    0    0    0 -0.00000000000E+00 -0.00000000000E+00  0.00000000000E+00  0.93800000000E+00  0.93800000000E+00 0. -1.
         11    1    1    2    0    0  0.11104537218E+00 -0.15840943767E+00  0.84242975477E+00  0.86435685771E+00  0.51100000000E-03 0. -1.
    9000002    1    1    2    0    0 -0.42299920161E+00  0.17745145476E+00  0.15588103263E+00  0.10557273510E+01  0.93800000000E+00 0. -1.
         22    1    1    2    0    0  0.31195382943E+00 -0.19042017083E-01  0.30016891800E+01  0.30179157913E+01  0.00000000000E+00 0. -1.
</event>
<event>
 5    1  0.3005426E+001  0.1598644E+01  0.7818608E-02  0.3354837E+00
         11   -1    0    0    0    0  0.00000000000E+00  0.00000000000E+00  0.39999999674E+01  0.40000000000E+01  0.51100000000E-03 0.  1.
    9000002   -1    0    0    0    0 -0.00000000000E+00 -0.00000000000E+00  0.00000000000E+00  0.93800000000E+00  0.93800000000E+00 0. -1.
         11    1    1    2    0    0 -0.11629014837E+00 -0.92937217966E-01  0.10545788241E+01  0.10650340288E+01  0.51100000000E-03 0.  1.
    9000002    1    1    2    0    0  0.32026811309E+00  0.27333882726E+00  0.12078981439E+00  0.10352390825E+01  0.93800000000E+00 0. -1.
         22    1    1    2    0    0 -0.20397796471E+00 -0.18040160930E+00  0.28246313289E+01  0.28377268887E+01  0.00000000000E+00 0.  1.
</event>
<event>
 5    1  0.3005426E+001  0.1561317E+01  0.7818608E-02  0.3396450E+00
         11   -1    0    0    0    0  0.00000000000E+00  0.00000000000E+00  0.39999999674E+01  0.40000000000E+01  0.51100000000E-03 0. -1.
    9000002   -1    0    0    0    0 -0.00000000000E+00 -0.00000000000E+00  0.00000000000E+00  0.93800000000E+00  0.93800000000E+00 0.  1.
         11    1    1    2    0    0 -0.47779966344E-01 -0.34138561108E+00  0.82193210679E+00  0.89129103548E+00  0.51100000000E-03 0. -1.
    9000002    1    1    2    0    0  0.17083330503E+00  0.61930753654E+00  0.33191422608E+00  0.11843719417E+01  0.93800000000E+00 0.  1.
         22    1    1    2    0    0 -0.12305333869E+00 -0.27792192546E+00  0.28461536345E+01  0.28623370228E+01  0.00000000000E+00 0. -1.
</event>
<event>
 5    1  0.3005426E+001  0.1599676E+01  0.7818608E-02  0.3353715E+00
         11   -1    0    0    0    0  0.00000000000E+00  0.00000000000E+00  0.39999999674E+01  0.40000000000E+01  0.51100000000E-03 0. -1.
    9000002   -1    0    0    0    0 -0.00000000000E+00 -0.00000000000E+00  0.00000000000E+00  0.93800000000E+00  0.93800000000E+00 0.  1.
         11    1    1    2    0    0 -0.11371142193E-01  0.93893085060E-01  0.87107730519E+00  0.87619697958E+00  0.51100000000E-03 0. -1.
    9000002    1    1    2    0    0  0.49592487655E-01 -0.41478296859E+00  0.11798255420E+00  0.10335706115E+01  0.93800000000E+00 0.  1.
         22    1    1    2    0    0 -0.38221345462E-01  0.32088988353E+00  0.30109401080E+01  0.30282324089E+01  0.00000000000E+00 0. -1.
</event>
<event>
 5    1  0.3005426E+001  0.1599417E+01  0.7818608E-02  0.3353996E+00
         11   -1    0    0    0    0  0.00000000000E+00  0.00000000000E+00  0.39999999674E+01  0.40000000000E+01  0.51100000000E-03 0. -1.
    9000002   -1    0    0    0    0 -0.00000000000E+00 -0.00000000000E+00  0.00000000000E+00  0.93800000000E+00  0.93800000000E+00 0.  1.
         11    1    1    2    0    0  0.25417896999E-01  0.12374305651E-01  0.33348674109E+00  0.33468322416E+00  0.51100000000E-03 0. -1.
    9000002    1    1    2    0    0 -0.38413386763E+00 -0.52379128832E-01  0.10143901259E+00  0.10200177815E+01  0.93800000000E+00 0.  1.
         22    1    1    2    0    0  0.35871597063E+00  0.40004823180E-01  0.35650742137E+01  0.35832989943E+01  0.00000000000E+00 0. -1.
</event>
<event>
 5    1  0.3005426E+001  0.1598434E+01  0.7818608E-02  0.3355065E+00
         11   -1    0    0    0    0  0.00000000000E+00  0.00000000000E+00  0.39999999674E+01  0.40000000000E+01  0.51100000000E-03 0.  1.
    9000002   -1    0    0    0    0 -0.00000000000E+00 -0.00000000000E+00  0.00000000000E+00  0.93800000000E+00  0.93800000000E+00 0. -1.
         11    1    1    2    0    0  0.28729933147E-01 -0.11981600047E+00  0.93722476198E+00  0.94528926716E+00  0.51100000000E-03 0.  1.
    9000002    1    1    2    0    0  0.25626608523E-01  0.45157348489E+00  0.14006760671E+00  0.10507322541E+01  0.93800000000E+00 0. -1.
         22    1    1    2    0    0 -0.54356541670E-01 -0.33175748442E+00  0.29227075987E+01  0.29419784788E+01  0.00000000000E+00 0.  1.
</event>
<event>
 5    1  0.3005426E+001  0.1599673E+01  0.7818608E-02  0.3353719E+00
         11   -1    0    0    0    0  0.00000000000E+00  0.00000000000E+00  0.39999999674E+01  0.40000000000E+01  0.51100000000E-03 0.  1.
    9000002   -1    0    0    0    0 -0.00000000000E+00 -0.00000000000E+00  0.00000000000E+00  0.93800000000E+00  0.93800000000E+00 0.  1.
         11    1    1    2    0    0  0.72367865545E-01 -0.57556470800E-01  0.93312977743E+00  0.93770000424E+00  0.51100000000E-03 0.  1.
    9000002    1    1    2    0    0 -0.30580358211E+00  0.23221115432E+00  0.99253829301E-01  0.10183973555E+01  0.93800000000E+00 0.  1.
         22    1    1    2    0    0  0.23343571657E+00 -0.17465468352E+00  0.29676163606E+01  0.29819026403E+01  0.00000000000E+00 0.  1.
</event>
<event>
 5    1  0.3005426E+001  0.1599674E+01  0.7818608E-02  0.3353717E+00
         11   -1    0    0    0    0  0.00000000000E+00  0.00000000000E+00  0.39999999674E+01  0.40000000000E+01  0.51100000000E-03 0.  1.
    9000002   -1    0    0    0    0 -0.00000000000E+00 -0.00000000000E+00  0.00000000000E+00  0.93800000000E+00  0.93800000000E+00 0.  1.
         11    1    1    2    0    0  0.51965677637E-01 -0.11960024174E+00  0.10443880280E+01  0.10524976312E+01  0.51100000000E-03 0.  1.
    9000002    1    1    2    0    0 -0.18642631360E+00  0.44503818797E+00  0.15891974738E+00  0.10667301652E+01  0.93800000000E+00 0.  1.
         22    1    1    2    0    0  0.13446063597E+00 -0.32543794623E+00  0.27966921920E+01  0.28187722036E+01  0.00000000000E+00 0.  1.
</event>
<event>
 5    1  0.3005426E+001  0.1599584E+01  0.7818608E-02  0.3353815E+00
         11   -1    0    0    0    0  0.00000000000E+00  0.00000000000E+00  0.39999999674E+01  0.40000000000E+01  0.51100000000E-03 0.  1.
    9000002   -1    0    0    0    0 -0.00000000000E+00 -0.00000000000E+00  0.00000000000E+00  0.93800000000E+00  0.93800000000E+00 0.  1.
         11    1    1    2    0    0  0.12973847685E-02  0.32079702520E-01  0.26931728657E+00  0.27122472691E+00  0.51100000000E-03 0.  1.
    9000002    1    1    2    0    0 -0.27060514473E-01 -0.37970439918E+00  0.97584081431E-01  0.10169927999E+01  0.93800000000E+00 0.  1.
         22    1    1    2    0    0  0.25763129704E-01  0.34762469666E+00  0.36330985994E+01  0.36497824731E+01  0.00000000000E+00 0.  1.
</event>
<event>
 5    1  0.3005426E+001  0.1598408E+01  0.7818608E-02  0.3355093E+00
         11   -1    0    0    0    0  0.00000000000E+00  0.00000000000E+00  0.39999999674E+01  0.40000000000E+01  0.51100000000E-03 0.  1.
    9000002   -1    0    0    0    0 -0.00000000000E+00 -0.00000000000E+00  0.00000000000E+00  0.93800000000E+00  0.93800000000E+00 0. -1.
         11    1    1    2    0    0 -0.33471893702E-01 -0.48280291699E-02  0.30232601826E+00  0.30421203127E+00  0.51100000000E-03 0.  1.
    9000002    1    1    2    0    0  0.38662006326E+00  0.35101556992E+00  0.18855327844E+00  0.10899923589E+01  0.93800000000E+00 0. -1.
         22    1    1    2    0    0 -0.35314816955E+00 -0.34618754075E+00  0.35091206707E+01  0.35437956098E+01  0.00000000000E+00 0.  1.
</event>
<event>
 5    1  0.3005426E+001  0.1599638E+01  0.7818608E-02  0.3353756E+00
         11   -1    0    0    0    0  0.00000000000E+00  0.00000000000E+00  0.39999999674E+01  0.40000000000E+01  0.51100000000E-03 0. -1.
    9000002   -1    0    0    0    0 -0.00000000000E+00 -0.00000000000E+00  0.00000000000E+00  0.93800000000E+00  0.93800000000E+00 0. -1.
         11    1    1    2    0    0  0.16295402018E+00  0.24634760380E-01  0.13549860140E+01  0.13649718837E+01  0.51100000000E-03 0. -1.
    9000002    1    1    2    0    0 -0.45553461753E+00 -0.51517300840E-01  0.14295473697E+00  0.10537769578E+01  0.93800000000E+00 0. -1.
         22    1    1    2    0    0  0.29258059736E+00  0.26882540460E-01  0.25020592164E+01  0.25192511584E+01  0.00000000000E+00 0. -1.
</event>
<event>
 5    1  0.3005426E+001  0.1599226E+01  0.7818608E-02  0.3354203E+00
         11   -1    0    0    0    0  0.00000000000E+00  0.00000000000E+00  0.39999999674E+01  0.40000000000E+01  0.51100000000E-03 0.  1.
    9000002   -1    0    0    0    0 -0.00000000000E+00 -0.00000000000E+00  0.00000000000E+00  0.93800000000E+00  0.93800000000E+00 0. -1.
         11    1    1    2    0    0  0.41474796108E-01  0.38762658040E-01  0.38555363630E+00  0.38971087995E+00  0.51100000000E-03 0.  1.
    9000002    1    1    2    0    0 -0.34866832944E+00 -0.25074590889E+00  0.12528551465E+00  0.10392225820E+01  0.93800000000E+00 0. -1.
         22    1    1    2    0    0  0.30719353333E+00  0.21198325085E+00  0.34891608164E+01  0.35090665380E+01  0.00000000000E+00 0.  1.
</event>
<event>
 5    1  0.3005426E+001  0.1599676E+01  0.7818608E-02  0.3353715E+00
         11   -1    0    0    0    0  0.00000000000E+00  0.00000000000E+00  0.39999999674E+01  0.40000000000E+01  0.51100000000E-03 0.  1.
    9000002   -1    0    0    0    0 -0.00000000000E+00 -0.00000000000E+00  0.00000000000E+00  0.93800000000E+00  0.93800000000E+00 0. -1.
         11    1    1    2    0    0  0.17557588977E-01 -0.32211871599E-01  0.34306164012E+00  0.34501800481E+00  0.51100000000E-03 0.  1.
    9000002    1    1    2    0    0 -0.20535611783E+00  0.36523525947E+00  0.11872236096E+00  0.10341696809E+01  0.93800000000E+00 0. -1.
         22    1    1    2    0    0  0.18779852885E+00 -0.33302338787E+00  0.35382159663E+01  0.35588123143E+01  0.00000000000E+00 0.  1.
</event>
<event>
 5    1  0.3005426E+001  0.1567412E+01  0.7818608E-02  0.3389511E+00
         11   -1    0    0    0    0  0.00000000000E+00  0.00000000000E+00  0.39999999674E+01  0.40000000000E+01  0.51100000000E-03 0. -1.
    9000002   -1    0    0    0    0 -0.00000000000E+00 -0.00000000000E+00  0.00000000000E+00  0.93800000000E+00  0.93800000000E+00 0. -1.
         11    1    1    2    0    0 -0.41185257577E-01  0.12055502476E+00  0.59726033919E+00  0.61069625292E+00  0.51100000000E-03 0. -1.
    9000002    1    1    2    0    0 -0.14202387997E+00  0.14126507188E+00  0.51149120380E-01  0.96051383932E+00  0.93800000000E+00 0. -1.
         22    1    1    2    0    0  0.18320913755E+00 -0.26182009664E+00  0.33515905078E+01  0.33667899078E+01  0.00000000000E+00 0. -1.
</event>
<event>
 5    1  0.3005426E+001  0.1599660E+01  0.7818608E-02  0.3353733E+00
         11   -1    0    0    0    0  0.00000000000E+00  0.00000000000E+00  0.39999999674E+01  0.40000000000E+01  0.51100000000E-03 0.  1.
    9000002   -1    0    0    0    0 -0.00000000000E+00 -0.00000000000E+00  0.00000000000E+00  0.93800000000E+00  0.93800000000E+00 0. -1.
         11    1    1    2    0    0 -0.51312994263E-01  0.21438803358E-01  0.53282882493E+00  0.53572330869E+00  0.51100000000E-03 0.  1.
    9000002    1    1    2    0    0  0.35794685328E+00 -0.17491105842E+00  0.10705201927E+00  0.10247067693E+01  0.93800000000E+00 0. -1.
         22    1    1    2    0    0 -0.30663385901E+00  0.15347225506E+00  0.33601191232E+01  0.33775699221E+01  0.00000000000E+00 0.  1.
</event>
<event>
 5    1  0.3005426E+001  0.1592520E+01  0.7818608E-02  0.3361522E+00
         11   -1    0    0    0    0  0.00000000000E+00  0.00000000000E+00  0.39999999674E+01  0.40000000000E+01  0.51100000000E-03 0. -1.
    9000002   -1    0    0    0    0 -0.00000000000E+00 -0.00000000000E+00  0.00000000000E+00  0.93800000000E+00  0.93800000000E+00 0.  1.
         11    1    1    2    0    0  0.63633474367E-01  0.42735959859E-01  0.84517627979E+00  0.84864526533E+00  0.51100000000E-03 0. -1.
    9000002    1    1    2    0    0  0.83558602710E-01 -0.28410221034E+00  0.64093640598E-01  0.98572212148E+00  0.93800000000E+00 0.  1.
         22    1    1    2    0    0 -0.14719207708E+00  0.24136625048E+00  0.30907300470E+01  0.31036326132E+01  0.00000000000E+00 0. -1.
</event>
<event>
 5    1  0.3005426E+001  0.1598951E+01  0.7818608E-02  0.3354503E+00
         11   -1    0    0    0    0  0.00000000000E+00  0.00000000000E+00  0.39999999674E+01  0.40000000000E+01  0.51100000000E-03 0.  1.
    9000002   -1    0    0    0    0 -0.00000000000E+00 -0.00000000000E+00  0.00000000000E+00  0.93800000000E+00  0.93800000000E+00 0.  1.
         11    1    1    2    0    0 -0.44560846416E-01 -0.84348191170E-01  0.64006512424E+00  0.64713515650E+00  0.51100000000E-03 0.  1.
    9000002    1    1    2    0    0  0.38586451562E+00  0.42373768920E+00  0.22858424976E+00  0.11227376421E+01  0.93800000000E+00 0.  1.
         22    1    1    2    0    0 -0.34130366920E+00 -0.33938949803E+00  0.31313505934E+01  0.31681272014E+01  0.00000000000E+00 0.  1.
</event>
<event>
 5    1  0.3005426E+001  0.1591566E+01  0.7818608E-02  0.3362569E+00
         11   -1    0    0    0    0  0.00000000000E+00  0.00000000000E+00  0.39999999674E+01  0.40000000000E+01  0.51100000000E-03 0.  1.
    9000002   -1    0    0    0    0 -0.00000000000E+00 -0.00000000000E+00  0.00000000000E+00  0.93800000000E+00  0.93800000000E+00 0.  1.
         11    1    1    2    0    0 -0.26540908987E+00 -0.18696272864E+00  0.14040656419E+01  0.14411098621E+01  0.51100000000E-03 0.  1.
    9000002    1    1    2    0    0  0.48951849779E+00  0.66653690761E+00  0.51962170654E+00  0.13541604509E+01  0.93800000000E+00 0.  1.
         22    1    1    2    0    0 -0.22410940792E+00 -0.47957417896E+00  0.20763126189E+01  0.21427296870E+01  0.00000000000E+00 0. -1.
</event>
<event>
 5    1  0.3005426E+001  0.1599195E+01  0.7818608E-02  0.3354237E+00
         11   -1    0    0    0    0  0.00000000000E+00  0.00000000000E+00  0.39999999674E+01  0.40000000000E+01  0.51100000000E-03 0.  1.
    9000002   -1    0    0    0    0 -0.00000000000E+00 -0.00000000000E+00  0.00000000000E+00  0.93800000000E+00  0.93800000000E+00 0. -1.
         11    1    1    2    0    0 -0.12247555647E-01 -0.12324639114E+00  0.12372998677E+01  0.12434833732E+01  0.51100000000E-03 0.  1.
    9000002    1    1    2    0    0  0.11427246766E+00  0.40154882270E+00  0.11824565535E+00  0.10335016637E+01  0.93800000000E+00 0. -1.
         22    1    1    2    0    0 -0.10202491202E+00 -0.27830243155E+00  0.26444544443E+01  0.26610149631E+01  0.00000000000E+00 0.  1.
</event>
<event>
 5    1  0.3005426E+001  0.1599672E+01  0.7818608E-02  0.3353720E+00
         11   -1    0    0    0    0  0.00000000000E+00  0.00000000000E+00  0.39999999674E+01  0.40000000000E+01  0.51100000000E-03 0.  1.
    9000002   -1    0    0    0    0 -0.00000000000E+00 -0.00000000000E+00  0.00000000000E+00  0.93800000000E+00  0.93800000000E+00 0.  1.
         11    1    1    2    0    0 -0.15844124287E-01  0.19923910421E-01  0.26393117125E+00  0.26515641188E+00  0.51100000000E-03 0.  1.
    9000002    1    1    2    0    0  0.25069055936E+00 -0.28432793078E+00  0.96672490376E-01  0.10163059083E+01  0.93800000000E+00 0.  1.
         22    1    1    2    0    0 -0.23484643507E+00  0.26440402036E+00  0.36393963057E+01  0.36565376799E+01  0.00000000000E+00 0.  1.
</event>
<event>
 5    1  0.3005426E+001  0.1599649E+01  0.7818608E-02  0.3353745E+00
         11   -1    0    0    0    0  0.00000000000E+00  0.00000000000E+00  0.39999999674E+01  0.40000000000E+01  0.51100000000E-03 0. -1.
    9000002   -1    0    0    0    0 -0.00000000000E+00 -0.00000000000E+00  0.00000000000E+00  0.93800000000E+00  0.93800000000E+00 0.  1.
         11    1    1    2    0    0 -0.23818909061E-01  0.15411650881E+00  0.12429698855E+01  0.12527145070E+01  0.51100000000E-03 0. -1.
    9000002    1    1    2    0    0  0.73882610058E-01 -0.45902901380E+00  0.14717177040E+00  0.10571990378E+01  0.93800000000E+00 0.  1.
         22    1    1    2    0    0 -0.50063700997E-01  0.30491250500E+00  0.26098583115E+01  0.26280864552E+01  0.00000000000E+00 0. -1.
</event>
<event>
 5    1  0.3005426E+001  0.1599063E+01  0.7818608E-02  0.3354381E+00
         11   -1    0    0    0    0  0.00000000000E+00  0.00000000000E+00  0.39999999674E+01  0.40000000000E+01  0.51100000000E-03 0. -1.
    9000002   -1    0    0    0    0 -0.00000000000E+00 -0.00000000000E+00  0.00000000000E+00  0.93800000000E+00  0.93800000000E+00 0. -1.
         11    1    1    2    0    0  0.12176373415E-01 -0.88170694762E-01  0.86048113007E+00  0.86507246622E+00  0.51100000000E-03 0. -1.
    9000002    1    1    2    0    0  0.56451109038E-01  0.40709665415E+00  0.11461451380E+00  0.10304828481E+01  0.93800000000E+00 0. -1.
         22    1    1    2    0    0 -0.68627482453E-01 -0.31892595938E+00  0.30249043235E+01  0.30424446856E+01  0.00000000000E+00 0. -1.
</event>
<event>
 5    1  0.3005426E+001  0.1599675E+01  0.7818608E-02  0.3353717E+00
         11   -1    0    0    0    0  0.00000000000E+00  0.00000000000E+00  0.39999999674E+01  0.40000000000E+01  0.51100000000E-03 0.  1.
    9000002   -1    0    0    0    0 -0.00000000000E+00 -0.00000000000E+00  0.00000000000E+00  0.93800000000E+00  0.93800000000E+00 0.  1.
         11    1    1    2    0    0  0.10030454383E-01  0.46913909804E-02  0.12619962936E+00  0.12668554273E+00  0.51100000000E-03 0. -1.
    9000002    1    1    2    0    0 -0.31786182480E+00 -0.15817277878E+00  0.84570390347E-01  0.10065043063E+01  0.93800000000E+00 0.  1.
         22    1    1    2    0    0  0.30783137041E+00  0.15348138780E+00  0.37892299477E+01  0.38048101510E+01  0.00000000000E+00 0.  1.
</event>
<event>
 5    1  0.3005426E+001  0.1599567E+01  0.7818608E-02  0.3353833E+00
         11   -1    0    0    0    0  0.00000000000E+00  0.00000000000E+00  0.39999999674E+01  0.40000000000E+01  0.51100000000E-03 0.  1.
    9000002   -1    0    0    0    0 -0.00000000000E+00 -0.00000000000E+00  0.00000000000E+00  0.93800000000E+00  0.93800000000E+00 0.  1.
         11    1    1    2    0    0 -0.52631607452E-01 -0.14905872743E-01  0.43950934358E+00  0.44290066082E+00  0.51100000000E-03 0.  1.
    9000002    1    1    2    0    0  0.49950260321E+00  0.18376358340E+00  0.19511312061E+00  0.10959858736E+01  0.93800000000E+00 0.  1.
         22    1    1    2    0    0 -0.44687099576E+00 -0.16885771066E+00  0.33653775032E+01  0.33991134656E+01  0.00000000000E+00 0.  1.
</event>
<event>
 5    1  0.3005426E+001  0.1599677E+01  0.7818608E-02  0.3353714E+00
         11   -1    0    0    0    0  0.00000000000E+00  0.00000000000E+00  0.39999999674E+01  0.40000000000E+01  0.51100000000E-03 0.  1.
    9000002   -1    0    0    0    0 -0.00000000000E+00 -0.00000000000E+00  0.00000000000E+00  0.93800000000E+00  0.93800000000E+00 0.  1.
         11    1    1    2    0    0  0.98175372994E-03 -0.81476624067E-01  0.82208635026E+00  0.82611478168E+00  0.51100000000E-03 0. -1.
    9000002    1    1    2    0    0 -0.30321784886E-02  0.38501514868E+00  0.99807198399E-01  0.10188480435E+01  0.93800000000E+00 0.  1.
         22    1    1    2    0    0  0.20504247586E-02 -0.30353852462E+00  0.30781064187E+01  0.30930371749E+01  0.00000000000E+00 0.  1.
</event>
<event>
 5    1  0.3005426E+001  0.1599116E+01  0.7818608E-02  0.3354323E+00
         11   -1    0    0    0    0  0.00000000000E+00  0.00000000000E+00  0.39999999674E+01  0.40000000000E+01  0.51100000000E-03 0. -1.
    9000002   -1    0    0    0    0 -0.00000000000E+00 -0.00000000000E+00  0.00000000000E+00  0.93800000000E+00  0.93800000000E+00 0.  1.
         11    1    1    2    0    0  0.66033785162E-01 -0.65269292173E-01  0.10819287034E+01  0.10859053926E+01  0.51100000000E-03 0. -1.
    9000002    1    1    2    0    0 -0.18169830650E+00  0.30845076145E+00  0.86460554608E-01  0.10077080799E+01  0.93800000000E+00 0.  1.
         22    1    1    2    0    0  0.11566452134E+00 -0.24318146928E+00  0.28316107094E+01  0.28443865275E+01  0.00000000000E+00 0. -1.
</event>
<event>
 5    1  0.3005426E+001  0.1599675E+01  0.7818608E-02  0.3353717E+00
         11   -1    0    0    0    0  0.00000000000E+00  0.00000000000E+00  0.39999999674E+01  0.40000000000E+01  0.51100000000E-03 0. -1.
    9000002   -1    0    0    0    0 -0.00000000000E+00 -0.00000000000E+00  0.00000000000E+00  0.93800000000E+00  0.93800000000E+00 0. -1.
         11    1    1    2    0    0  0.11038416195E+00  0.33631575963E-03  0.74973294334E+00  0.75781562650E+00  0.51100000000E-03 0.  1.
    9000002    1    1    2    0    0 -0.56290271973E+00  0.23086759045E-02  0.21940651373E+00  0.11157275743E+01  0.93800000000E+00 0.  1.
         22    1    1    2    0    0  0.45251855779E+00 -0.26449916641E-02  0.30308605103E+01  0.30644567992E+01  0.00000000000E+00 0. -1.
</event>
<event>
 5    1  0.3005426E+001  0.1599099E+01  0.7818608E-02  0.3354342E+00
         11   -1    0    0    0    0  0.00000000000E+00  0.00000000000E+00  0.39999999674E+01  0.40000000000E+01  0.51100000000E-03 0.  1.
    9000002   -1    0    0    0    0 -0.00000000000E+00 -0.00000000000E+00  0.00000000000E+00  0.93800000000E+00  0.93800000000E+00 0.  1.
         11    1    1    2    0    0  0.12302573188E+00 -0.89810742359E-02  0.12079206760E+01  0.12142028707E+01  0.51100000000E-03 0.  1.
    9000002    1    1    2    0    0 -0.42234799534E+00 -0.52735432064E-01  0.12310300805E+00  0.10373799716E+01  0.93800000000E+00 0.  1.
         22    1    1    2    0    0  0.29932226346E+00  0.61716506300E-01  0.26689762833E+01  0.26864171577E+01  0.00000000000E+00 0.  1.
</event>
<event>
 5    1  0.3005426E+001  0.1599606E+01  0.7818608E-02  0.3353791E+00
         11   -1    0    0    0    0  0.00000000000E+00  0.00000000000E+00  0.39999999674E+01  0.40000000000E+01  0.51100000000E-03 0.  1.
    9000002   -1    0    0    0    0 -0.00000000000E+00 -0.00000000000E+00  0.00000000000E+00  0.93800000000E+00  0.93800000000E+00 0. -1.
         11    1    1    2    0    0 -0.26660178587E+00 -0.25384893029E+00  0.10960938605E+01  0.11562602664E+01  0.51100000000E-03 0.  1.
    9000002    1    1    2    0    0  0.74203467867E+00  0.70809441290E+00  0.85951571070E+00  0.16342045217E+01  0.93800000000E+00 0. -1.
         22    1    1    2    0    0 -0.47543289280E+00 -0.45424548261E+00  0.20443903962E+01  0.21475352118E+01  0.00000000000E+00 0.  1.
</event>
<event>
 5    1  0.3005426E+001  0.1599539E+01  0.7818608E-02  0.3353863E+00
         11   -1    0    0    0    0  0.00000000000E+00  0.00000000000E+00  0.39999999674E+01  0.40000000000E+01  0.51100000000E-03 0.  1.
    9000002   -1    0    0    0    0 -0.00000000000E+00 -0.00000000000E+00  0.00000000000E+00  0.93800000000E+00  0.93800000000E+00 0.  1.
         11    1    1    2    0    0  0.20047291789E+00  0.11888007604E+00  0.14169867871E+01  0.14360270468E+01  0.51100000000E-03 0.  1.
    9000002    1    1    2    0    0 -0.50743404041E+00 -0.28871764192E+00  0.23713755746E+00  0.11300112403E+01  0.93800000000E+00 0.  1.
         22    1    1    2    0    0  0.30696112252E+00  0.16983756587E+00  0.23458756228E+01  0.23719617129E+01  0.00000000000E+00 0.  1.
</event>
<event>
 5    1  0.3005426E+001  0.1563669E+01  0.7818608E-02  0.3393765E+00
         11   -1    0    0    0    0  0.00000000000E+00  0.00000000000E+00  0.39999999674E+01  0.40000000000E+01  0.51100000000E-03 0.  1.
    9000002   -1    0    0    0    0 -0.00000000000E+00 -0.00000000000E+00  0.00000000000E+00  0.93800000000E+00  0.93800000000E+00 0. -1.
         11    1    1    2    0    0 -0.12701667569E+00 -0.43941768032E-01  0.65136113848E+00  0.66508323444E+00  0.51100000000E-03 0.  1.
    9000002    1    1    2    0    0 -0.23447348630E+00  0.41704403155E-01  0.65541797482E-01  0.96997773183E+00  0.93800000000E+00 0. -1.
         22    1    1    2    0    0  0.36149016200E+00  0.22373648771E-02  0.32830970314E+01  0.33029390337E+01  0.00000000000E+00 0.  1.
</event>
<event>
 5    1  0.3005426E+001  0.1597201E+01  0.7818608E-02  0.3356407E+00
         11   -1    0    0    0    0  0.00000000000E+00  0.00000000000E+00  0.39999999674E+01  0.40000000000E+01  0.51100000000E-03 0.  1.
    9000002   -1    0    0    0    0 -0.00000000000E+00 -0.00000000000E+00  0.00000000000E+00  0.93800000000E+00  0.93800000000E+00 0.  1.
         11    1    1    2    0    0 -0.88027869860E-01 -0.44193004383E-01  0.14394759370E+01  0.14428420433E+01  0.51100000000E-03 0.  1.
    9000002    1    1    2    0    0  0.33451987774E+00 -0.53817814344E-02  0.76904994033E-01  0.99884477787E+00  0.93800000000E+00 0.  1.
         22    1    1    2    0    0 -0.24649200788E+00  0.49574785817E-01  0.24836190363E+01  0.24963131788E+01  0.00000000000E+00 0.  1.
</event>
<event>
 5    1  0.3005426E+001  0.1505665E+01  0.7818608E-02  0.3462579E+00
         11   -1    0    0    0    0  0.00000000000E+00  0.00000000000E+00  0.39999999674E+01  0.40000000000E+01  0.51100000000E-03 0. -1.
    9000002   -1    0    0    0    0 -0.00000000000E+00 -0.00000000000E+00  0.00000000000E+00  0.93800000000E+00  0.93800000000E+00 0. -1.
         11    1    1    2    0    0 -0.27898464961E-01 -0.18563666865E+00  0.73124912539E+00  0.75496015895E+00  0.51100000000E-03 0. -1.
    9000002    1    1    2    0    0 -0.65648071286E+00 -0.31091934723E+00  0.49890033775E+00  0.12870055609E+01  0.93800000000E+00 0. -1.
         22    1    1    2    0    0  0.68437917782E+00  0.49655601588E+00  0.27698505042E+01  0.28960342801E+01  0.00000000000E+00 0. -1.
</event>
<event>
 5    1  0.3005426E+001  0.1532790E+01  0.7818608E-02  0.3429705E+00
         11   -1    0    0    0    0  0.00000000000E+00  0.00000000000E+00  0.39999999674E+01  0.40000000000E+01  0.51100000000E-03 0.  1.
    9000002   -1    0    0    0    0 -0.00000000000E+00 -0.00000000000E+00  0.00000000000E+00  0.93800000000E+00  0.93800000000E+00 0. -1.
         11    1    1    2    0    0  0.63617883019E-01  0.22811126032E+00  0.10903208394E+01  0.11157427016E+01  0.51100000000E-03 0.  1.
    9000002    1    1    2    0    0 -0.55567737329E+00  0.12692457249E+00  0.29284497933E+00  0.11359970828E+01  0.93800000000E+00 0. -1.
         22    1    1    2    0    0  0.49205949027E+00 -0.35503583281E+00  0.26168341486E+01  0.26862602156E+01  0.00000000000E+00 0.  1.
</event>
<event>
 5    1  0.3005426E+001  0.1597986E+01  0.7818608E-02  0.3355552E+00
         11   -1    0    0    0    0  0.00000000000E+00  0.00000000000E+00  0.39999999674E+01  0.40000000000E+01  0.51100000000E-03 0.  1.
    9000002   -1    0    0    0    0 -0.00000000000E+00 -0.00000000000E+00  0.00000000000E+00  0.93800000000E+00  0.93800000000E+00 0. -1.
         11    1    1    2    0    0  0.10353419756E+00  0.23643083712E-01  0.81417611452E+00  0.82107328056E+00  0.51100000000E-03 0.  1.
    9000002    1    1    2    0    0 -0.47894753256E+00  0.79047818573E-01  0.16242677507E+00  0.10685811873E+01  0.93800000000E+00 0. -1.
         22    1    1    2    0    0  0.37541333500E+00 -0.10269090228E+00  0.30233970778E+01  0.30483455322E+01  0.00000000000E+00 0.  1.
</event>
<event>
 5    1  0.3005426E+001  0.1599653E+01  0.7818608E-02  0.3353740E+00
         11   -1    0    0    0    0  0.00000000000E+00  0.00000000000E+00  0.39999999674E+01  0.40000000000E+01  0.51100000000E-03 0. -1.
    9000002   -1    0    0    0    0 -0.00000000000E+00 -0.00000000000E+00  0.00000000000E+00  0.93800000000E+00  0.93800000000E+00 0. -1.
         11    1    1    2    0    0 -0.86014211400E-01  0.12271164729E+00  0.59979150498E+00  0.61822868221E+00  0.51100000000E-03 0. -1.
    9000002    1    1    2    0    0  0.47018890609E+00 -0.71350733126E+00  0.54861087300E+00  0.13823849714E+01  0.93800000000E+00 0. -1.
         22    1    1    2    0    0 -0.38417469469E+00  0.59079568397E+00  0.28515975894E+01  0.29373863464E+01  0.00000000000E+00 0. -1.
</event>
<event>
 5    1  0.3005426E+001  0.1521709E+01  0.7818608E-02  0.3442982E+00
         11   -1    0    0    0    0  0.00000000000E+00  0.00000000000E+00  0.39999999674E+01  0.40000000000E+01  0.51100000000E-03 0.  1.
    9000002   -1    0    0    0    0 -0.00000000000E+00 -0.00000000000E+00  0.00000000000E+00  0.93800000000E+00  0.93800000000E+00 0.  1.
         11    1    1    2    0    0  0.34579035334E-02 -0.32653337315E+00  0.87362525524E+00  0.93266143299E+00  0.51100000000E-03 0.  1.
    9000002    1    1    2    0    0  0.30776685011E+00  0.22535783078E+00  0.16501765199E+00  0.10259539032E+01  0.93800000000E+00 0.  1.
         22    1    1    2    0    0 -0.31122475364E+00  0.10117554237E+00  0.29613570601E+01  0.29793846639E+01  0.00000000000E+00 0.  1.
</event>
<event>
 5    1  0.3005426E+001  0.1503089E+01  0.7818608E-02  0.3465767E+00
         11   -1    0    0    0    0  0.00000000000E+00  0.00000000000E+00  0.39999999674E+01  0.40000000000E+01  0.51100000000E-03 0. -1.
    9000002   -1    0    0    0    0 -0.00000000000E+00 -0.00000000000E+00  0.00000000000E+00  0.93800000000E+00  0.93800000000E+00 0. -1.
         11    1    1    2    0    0  0.31168523005E+00 -0.23490380948E-01  0.43694838530E+00  0.53723703629E+00  0.51100000000E-03 0. -1.
    9000002    1    1    2    0    0 -0.46145938979E+00  0.36998104580E+00  0.34598772130E+00  0.11616291344E+01  0.93800000000E+00 0. -1.
         22    1    1    2    0    0  0.14977415974E+00 -0.34649066485E+00  0.32170638608E+01  0.32391338293E+01  0.00000000000E+00 0. -1.
</event>
<event>
 5    1  0.3005426E+001  0.1599676E+01  0.7818608E-02  0.3353715E+00
         11   -1    0    0    0    0  0.00000000000E+00  0.00000000000E+00  0.39999999674E+01  0.40000000000E+01  0.51100000000E-03 0.  1.
    9000002   -1    0    0    0    0 -0.00000000000E+00 -0.00000000000E+00  0.00000000000E+00  0.93800000000E+00  0.93800000000E+00 0. -1.
         11    1    1    2    0    0  0.76329039080E-01  0.99514380632E-01  0.62840348180E+00  0.64079671599E+00  0.51100000000E-03 0. -1.
    9000002    1    1    2    0    0 -0.43619574705E+00 -0.57633214352E+00  0.37572245160E+00  0.12423513312E+01  0.93800000000E+00 0. -1.
         22    1    1    2    0    0  0.35986670797E+00  0.47681776288E+00  0.29958740340E+01  0.30548519529E+01  0.00000000000E+00 0.  1.
</event>
<event>
 5    1  0.3806661E+001  0.1599668E+01  0.7818608E-02  0.3353723E+00
         11   -1    0    0    0    0  0.00000000000E+00  0.00000000000E+00  0.39999999674E+01  0.40000000000E+01  0.51100000000E-03 0.  1.
    9000002   -1    0    0    0    0 -0.00000000000E+00 -0.00000000000E+00  0.00000000000E+00  0.93800000000E+00  0.93800000000E+00 0. -1.
         11    1    1    2    0    0 -0.21932571217E+00  0.11471385924E-01  0.14701904053E+01  0.14865044398E+01  0.51100000000E-03 0.  1.
    9000002    1    1    2    0    0  0.57166403592E+00 -0.27759190052E-01  0.22724932437E+00  0.11220769127E+01  0.93800000000E+00 0. -1.
         22    1    1    2    0    0 -0.35233832374E+00  0.16287804128E-01  0.23025602377E+01  0.23294186475E+01  0.00000000000E+00 0.  1.
</event>
<event>
 5    1  0.3005426E+001  0.1599643E+01  0.7818608E-02  0.3353751E+00
         11   -1    0    0    0    0  0.00000000000E+00  0.00000000000E+00  0.39999999674E+01  0.40000000000E+01  0.51100000000E-03 0.  1.
    9000002   -1    0    0    0    0 -0.00000000000E+00 -0.00000000000E+00  0.00000000000E+00  0.93800000000E+00  0.93800000000E+00 0.  1.
         11    1    1    2    0    0  0.42826971064E-03  0.13537323477E-01  0.15539727526E+00  0.15598723287E+00  0.51100000000E-03 0.  1.
    9000002    1    1    2    0    0  0.55209516018E-01 -0.35579886901E+00  0.87050897115E-01  0.10084953071E+01  0.93800000000E+00 0.  1.
         22    1    1    2    0    0 -0.55637785728E-01  0.34226154553E+00  0.37575517950E+01  0.37735174600E+01  0.00000000000E+00 0.  1.
</event>
<event>
 5    1  0.3005426E+001  0.1599507E+01  0.7818608E-02  0.3353898E+00
         11   -1    0    0    0    0  0.00000000000E+00  0.00000000000E+00  0.39999999674E+01  0.40000000000E+01  0.51100000000E-03 0. -1.
    9000002   -1    0    0    0    0 -0.00000000000E+00 -0.00000000000E+00  0.00000000000E+00  0.93800000000E+00  0.93800000000E+00 0. -1.
         11    1    1    2    0    0 -0.12587406652E+00  0.10658582025E+00  0.10915843505E+01  0.11039753045E+01  0.51100000000E-03 0. -1.
    9000002    1    1    2    0    0  0.44625625549E+00 -0.32158530859E+00  0.20914220479E+00  0.11073148685E+01  0.93800000000E+00 0. -1.
         22    1    1    2    0    0 -0.32038218897E+00  0.21499948834E+00  0.26992734121E+01  0.27267098269E+01  0.00000000000E+00 0. -1.
</event>
<event>
 5    1  0.3005426E+001  0.1599435E+01  0.7818608E-02  0.3353977E+00
         11   -1    0    0    0    0  0.00000000000E+00  0.00000000000E+00  0.39999999674E+01  0.40000000000E+01  0.51100000000E-03 0.  1.
    9000002   -1    0    0    0    0 -0.00000000000E+00 -0.00000000000E+00  0.00000000000E+00  0.93800000000E+00  0.93800000000E+00 0. -1.
         11    1    1    2    0    0  0.86671298186E-02  0.57741306268E-01  0.45179682946E+00  0.45555440270E+00  0.51100000000E-03 0.  1.
    9000002    1    1    2    0    0 -0.28116246510E-01 -0.40417087015E+00  0.11099484431E+00  0.10277686856E+01  0.93800000000E+00 0. -1.
         22    1    1    2    0    0  0.19449116691E-01  0.34642956388E+00  0.34372082936E+01  0.34546769117E+01  0.00000000000E+00 0.  1.
</event>
<event>
 5    1  0.3005426E+001  0.1599670E+01  0.7818608E-02  0.3353721E+00
         11   -1    0    0    0    0  0.00000000000E+00  0.00000000000E+00  0.39999999674E+01  0.40000000000E+01  0.51100000000E-03 0.  1.
    9000002   -1    0    0    0    0 -0.00000000000E+00 -0.00000000000E+00  0.00000000000E+00  0.93800000000E+00  0.93800000000E+00 0.  1.
         11    1    1    2    0    0 -0.61386129045E-01 -0.24328123946E+00  0.14266674063E+01  0.14485627938E+01  0.51100000000E-03 0.  1.
    9000002    1    1    2    0    0  0.15165114230E+00  0.63295547716E+00  0.29900387121E+00  0.11802025335E+01  0.93800000000E+00 0.  1.
         22    1    1    2    0    0 -0.90265013250E-01 -0.38967423770E+00  0.22743286899E+01  0.23092346727E+01  0.00000000000E+00 0.  1.
</event>
<event>
 5    1  0.3005426E+001  0.1537738E+01  0.7818608E-02  0.3423843E+00
         11   -1    0    0    0    0  0.00000000000E+00  0.00000000000E+00  0.39999999674E+01  0.40000000000E+01  0.51100000000E-03 0. -1.
    9000002   -1    0    0    0    0 -0.00000000000E+00 -0.00000000000E+00  0.00000000000E+00  0.93800000000E+00  0.93800000000E+00 0.  1.
         11    1    1    2    0    0 -0.57152940286E-01  0.20382312022E+00  0.43376949949E+00  0.48266609859E+00  0.51100000000E-03 0. -1.
    9000002    1    1    2    0    0 -0.44202819983E+00 -0.34870410037E+00  0.28136507122E+00  0.11295989476E+01  0.93800000000E+00 0.  1.
         22    1    1    2    0    0  0.49918114012E+00  0.14488098015E+00  0.32848653966E+01  0.33257349538E+01  0.00000000000E+00 0. -1.
</event>
<event>
 5    1  0.3005426E+001  0.1599677E+01  0.7818608E-02  0.3353714E+00
         11   -1    0    0    0    0  0.00000000000E+00  0.00000000000E+00  0.39999999674E+01  0.40000000000E+01  0.51100000000E-03 0. -1.
    9000002   -1    0    0    0    0 -0.00000000000E+00 -0.00000000000E+00  0.00000000000E+00  0.93800000000E+00  0.93800000000E+00 0. -1.
         11    1    1    2    0    0 -0.67098925741E-01  0.12039394018E+00  0.12773644711E+01  0.12847790548E+01  0.51100000000E-03 0.  1.
    9000002    1    1    2    0    0  0.20348937675E+00 -0.36566965798E+00  0.11841149299E+00  0.10339185204E+01  0.93800000000E+00 0. -1.
         22    1    1    2    0    0 -0.13639045101E+00  0.24527571780E+00  0.26042240033E+01  0.26193024247E+01  0.00000000000E+00 0. -1.
</event>
<event>
 5    1  0.3005426E+001  0.1599654E+01  0.7818608E-02  0.3353739E+00
         11   -1    0    0    0    0  0.00000000000E+00  0.00000000000E+00  0.39999999674E+01  0.40000000000E+01  0.51100000000E-03 0. -1.
    9000002   -1    0    0    0    0 -0.00000000000E+00 -0.00000000000E+00  0.00000000000E+00  0.93800000000E+00  0.93800000000E+00 0.  1.
         11    1    1    2    0    0  0.90201648996E-01  0.83604717943E-01  0.12811945944E+01  0.12870842770E+01  0.51100000000E-03 0. -1.
    9000002    1    1    2    0    0 -0.25898136386E+00 -0.25381332954E+00  0.88310851398E-01  0.10095223423E+01  0.93800000000E+00 0.  1.
         22    1    1    2    0    0  0.16877971486E+00  0.17020861159E+00  0.26304945216E+01  0.26413933807E+01  0.00000000000E+00 0. -1.
</event>
<event>
 5    1  0.3005426E+001  0.1599413E+01  0.7818608E-02  0.3354001E+00
         11   -1    0    0    0    0  0.00000000000E+00  0.00000000000E+00  0.39999999674E+01  0.40000000000E+01  0.51100000000E-03 0.  1.
    9000002   -1    0    0    0    0 -0.00000000000E+00 -0.00000000000E+00  0.00000000000E+00  0.93800000000E+00  0.93800000000E+00 0.  1.
         11    1    1    2    0    0  0.64708791662E-01  0.17870504686E-01  0.45673393684E+00  0.46164134654E+00  0.51100000000E-03 0.  1.
    9000002    1    1    2    0    0 -0.44930252593E+00 -0.10429828332E+00  0.14497062639E+00  0.10552778659E+01  0.93800000000E+00 0.  1.
         22    1    1    2    0    0  0.38459373427E+00  0.86427778629E-01  0.33982954041E+01  0.34210807876E+01  0.00000000000E+00 0.  1.
</event>
<event>
 5    1  0.3005426E+001  0.1599676E+01  0.7818608E-02  0.3353715E+00
         11   -1    0    0    0    0  0.00000000000E+00  0.00000000000E+00  0.39999999674E+01  0.40000000000E+01  0.51100000000E-03 0. -1.
    9000002   -1    0    0    0    0 -0.00000000000E+00 -0.00000000000E+00  0.00000000000E+00  0.93800000000E+00  0.93800000000E+00 0.  1.
         11    1    1    2    0    0 -0.11806405625E+00 -0.51368312432E-03  0.64320020724E+00  0.65394659794E+00  0.51100000000E-03 0. -1.
    9000002    1    1    2    0    0  0.67359477692E+00 -0.59757749481E-03  0.32204279300E+00  0.11988685671E+01  0.93800000000E+00 0.  1.
         22    1    1    2    0    0 -0.55553072067E+00  0.11112606191E-02  0.30347569671E+01  0.30851848350E+01  0.00000000000E+00 0. -1.
</event>
<event>
 5    1  0.3005426E+001  0.1598841E+01  0.7818608E-02  0.3354622E+00
         11   -1    0    0    0    0  0.00000000000E+00  0.00000000000E+00  0.39999999674E+01  0.40000000000E+01  0.51100000000E-03 0. -1.
    9000002   -1    0    0    0    0 -0.00000000000E+00 -0.00000000000E+00  0.00000000000E+00  0.93800000000E+00  0.93800000000E+00 0.  1.
         11    1    1    2    0    0 -0.10817288739E-01 -0.23866742249E-01  0.20000880315E+00  0.20171865947E+00  0.51100000000E-03 0. -1.
    9000002    1    1    2    0    0 -0.81853198439E-01  0.52074119706E+00  0.19188901693E+00  0.10929486425E+01  0.93800000000E+00 0.  1.
         22    1    1    2    0    0  0.92670487179E-01 -0.49687445481E+00  0.36081021473E+01  0.36433326980E+01  0.00000000000E+00 0. -1.
</event>
<event>
 5    1  0.3005426E+001  0.1599289E+01  0.7818608E-02  0.3354136E+00
         11   -1    0    0    0    0  0.00000000000E+00  0.00000000000E+00  0.39999999674E+01  0.40000000000E+01  0.51100000000E-03 0. -1.
    9000002   -1    0    0    0    0 -0.00000000000E+00 -0.00000000000E+00  0.00000000000E+00  0.93800000000E+00  0.93800000000E+00 0.  1.
         11    1    1    2    0    0 -0.43226449474E-02  0.16091033099E-01  0.22309406629E+00  0.22371595862E+00  0.51100000000E-03 0. -1.
    9000002    1    1    2    0    0  0.77424172279E-01 -0.46914211707E+00  0.15449652787E+00  0.10629214485E+01  0.93800000000E+00 0.  1.
         22    1    1    2    0    0 -0.73101527332E-01  0.45305108397E+00  0.36224093732E+01  0.36513625929E+01  0.00000000000E+00 0. -1.
</event>
<event>
 5    1  0.3005426E+001  0.1599387E+01  0.7818608E-02  0.3354029E+00
         11   -1    0    0    0    0  0.00000000000E+00  0.00000000000E+00  0.39999999674E+01  0.40000000000E+01  0.51100000000E-03 0.  1.
    9000002   -1    0    0    0    0 -0.00000000000E+00 -0.00000000000E+00  0.00000000000E+00  0.93800000000E+00  0.93800000000E+00 0. -1.
         11    1    1    2    0    0 -0.11487272217E+00 -0.11944761872E+00  0.12075385338E+01  0.12188572712E+01  0.51100000000E-03 0.  1.
    9000002    1    1    2    0    0  0.30500594942E+00  0.39019030007E+00  0.16803338404E+00  0.10739442805E+01  0.93800000000E+00 0. -1.
         22    1    1    2    0    0 -0.19013322726E+00 -0.27074268135E+00  0.26244280496E+01  0.26451984483E+01  0.00000000000E+00 0.  1.
</event>
<event>
 5    1  0.3005426E+001  0.1598943E+01  0.7818608E-02  0.3354511E+00
         11   -1    0    0    0    0  0.00000000000E+00  0.00000000000E+00  0.39999999674E+01  0.40000000000E+01  0.51100000000E-03 0.  1.
    9000002   -1    0    0    0    0 -0.00000000000E+00 -0.00000000000E+00  0.00000000000E+00  0.93800000000E+00  0.93800000000E+00 0. -1.
         11    1    1    2    0    0  0.15804012314E-01 -0.50155355091E-01  0.61992230379E+00  0.62214889722E+00  0.51100000000E-03 0.  1.
    9000002    1    1    2    0    0 -0.24210716494E+00  0.26849291723E+00  0.88347668620E-01  0.10091350933E+01  0.93800000000E+00 0. -1.
         22    1    1    2    0    0  0.22630315262E+00 -0.21833756214E+00  0.32917299949E+01  0.33067160095E+01  0.00000000000E+00 0.  1.
</event>
<event>
 5    1  0.3005426E+001  0.1599670E+01  0.7818608E-02  0.3353722E+00
         11   -1    0    0    0    0  0.00000000000E+00  0.00000000000E+00  0.39999999674E+01  0.40000000000E+01  0.51100000000E-03 0.  1.
    9000002   -1    0    0    0    0 -0.00000000000E+00 -0.00000000000E+00  0.00000000000E+00  0.93800000000E+00  0.93800000000E+00 0.  1.
         11    1    1    2    0    0 -0.51287701257E-01 -0.14963235938E+00  0.12881420095E+01  0.12978175407E+01  0.51100000000E-03 0.  1.
    9000002    1    1    2    0    0  0.14520577805E+00  0.44296030511E+00  0.14795196920E+00  0.10578432469E+01  0.93800000000E+00 0.  1.
         22    1    1    2    0    0 -0.93918076789E-01 -0.29332794572E+00  0.25639059887E+01  0.25823392124E+01  0.00000000000E+00 0. -1.
</event>
<event>
 5    1  0.3005426E+001  0.1599648E+01  0.7818608E-02  0.3353745E+00
         11   -1    0    0    0    0  0.00000000000E+00  0.00000000000E+00  0.39999999674E+01  0.40000000000E+01  0.51100000000E-03 0.  1.
    9000002   -1    0    0    0    0 -0.00000000000E+00 -0.00000000000E+00  0.00000000000E+00  0.93800000000E+00  0.93800000000E+00 0. -1.
         11    1    1    2    0    0 -0.17820235806E-01 -0.11908426286E-01  0.17041569185E+00  0.17175896067E+00  0.51100000000E-03 0.  1.
    9000002    1    1    2    0    0  0.45424568121E+00  0.24571087440E+00  0.18312155750E+00  0.10863196940E+01  0.93800000000E+00 0. -1.
         22    1    1    2    0    0 -0.43642544540E+00 -0.23380244812E+00  0.36464627180E+01  0.36799213454E+01  0.00000000000E+00 0.  1.
</event>
<event>
 5    1  0.3005426E+001  0.1599434E+01  0.7818608E-02  0.3353978E+00
         11   -1    0    0    0    0  0.00000000000E+00  0.00000000000E+00  0.39999999674E+01  0.40000000000E+01  0.51100000000E-03 0.  1.
    9000002   -1    0    0    0    0 -0.00000000000E+00 -0.00000000000E+00  0.00000000000E+00  0.93800000000E+00  0.93800000000E+00 0.  1.
         11    1    1    2    0    0 -0.74435700435E-01  0.28480526585E-01  0.86445823221E+00  0.86812447854E+00  0.51100000000E-03 0.  1.
    9000002    1    1    2    0    0  0.40407654116E+00 -0.13324557538E+00  0.12273110294E+00  0.10372748710E+01  0.93800000000E+00 0.  1.
         22    1    1    2    0    0 -0.32964084072E+00  0.10476504879E+00  0.30128106322E+01  0.30326006504E+01  0.00000000000E+00 0.  1.
</event>
<event>
 5    1  0.3005426E+001  0.1599660E+01  0.7818608E-02  0.3353733E+00
         11   -1    0    0    0    0  0.00000000000E+00  0.00000000000E+00  0.39999999674E+01  0.40000000000E+01  0.51100000000E-03 0. -1.
    9000002   -1    0    0    0    0 -0.00000000000E+00 -0.00000000000E+00  0.00000000000E+00  0.93800000000E+00  0.93800000000E+00 0. -1.
         11    1    1    2    0    0 -0.65879214958E-01 -0.24747932495E-01  0.47445422887E+00  0.47964529346E+00  0.51100000000E-03 0. -1.
    9000002    1    1    2    0    0  0.53000109494E+00  0.22221588951E+00  0.22924690063E+00  0.11236899945E+01  0.93800000000E+00 0. -1.
         22    1    1    2    0    0 -0.46412187998E+00 -0.19746795701E+00  0.32962988379E+01  0.33346647121E+01  0.00000000000E+00 0. -1.
</event>
<event>
 5    1  0.3005426E+001  0.1599637E+01  0.7818608E-02  0.3353758E+00
         11   -1    0    0    0    0  0.00000000000E+00  0.00000000000E+00  0.39999999674E+01  0.40000000000E+01  0.51100000000E-03 0. -1.
    9000002   -1    0    0    0    0 -0.00000000000E+00 -0.00000000000E+00  0.00000000000E+00  0.93800000000E+00  0.93800000000E+00 0.  1.
         11    1    1    2    0    0 -0.32030032083E-01 -0.83897573306E-01  0.64970469356E+00  0.65588198307E+00  0.51100000000E-03 0. -1.
    9000002    1    1    2    0    0  0.18432335524E+00  0.46096480930E+00  0.16865447122E+00  0.10745938700E+01  0.93800000000E+00 0.  1.
         22    1    1    2    0    0 -0.15229332316E+00 -0.37706723599E+00  0.31816408026E+01  0.32075241470E+01  0.00000000000E+00 0. -1.
</event>
<event>
 5    1  0.3005426E+001  0.1599663E+01  0.7818608E-02  0.3353729E+00
         11   -1    0    0    0    0  0.00000000000E+00  0.00000000000E+00  0.39999999674E+01  0.40000000000E+01  0.51100000000E-03 0. -1.
    9000002   -1    0    0    0    0 -0.00000000000E+00 -0.00000000000E+00  0.00000000000E+00  0.93800000000E+00  0.93800000000E+00 0. -1.
         11    1    1    2    0    0  0.91176972891E-01  0.12107105189E-01  0.80299006759E+00  0.80824076372E+00  0.51100000000E-03 0. -1.
    9000002    1    1    2    0    0 -0.43876257362E+00 -0.40702930258E-01  0.13170934204E+00  0.10446820929E+01  0.93800000000E+00 0. -1.
         22    1    1    2    0    0  0.34758560073E+00  0.28595825069E-01  0.30653005577E+01  0.30850771433E+01  0.00000000000E+00 0. -1.
</event>
<event>
 5    1  0.3005426E+001  0.1599537E+01  0.7818608E-02  0.3353867E+00
         11   -1    0    0    0    0  0.00000000000E+00  0.00000000000E+00  0.39999999674E+01  0.40000000000E+01  0.51100000000E-03 0.  1.
    9000002   -1    0    0    0    0 -0.00000000000E+00 -0.00000000000E+00  0.00000000000E+00  0.93800000000E+00  0.93800000000E+00 0. -1.
         11    1    1    2    0    0 -0.77148580491E-01 -0.13570252855E-01  0.55434860018E+00  0.55985595189E+00  0.51100000000E-03 0.  1.
    9000002    1    1    2    0    0  0.47453998939E+00  0.13073525391E+00  0.16576545215E+00  0.10721949885E+01  0.93800000000E+00 0. -1.
         22    1    1    2    0    0 -0.39739140890E+00 -0.11716500106E+00  0.32798859150E+01  0.33059490596E+01  0.00000000000E+00 0.  1.
</event>
<event>
 5    1  0.3005426E+001  0.1599676E+01  0.7818608E-02  0.3353716E+00
         11   -1    0    0    0    0  0.00000000000E+00  0.00000000000E+00  0.39999999674E+01  0.40000000000E+01  0.51100000000E-03 0. -1.
    9000002   -1    0    0    0    0 -0.00000000000E+00 -0.00000000000E+00  0.00000000000E+00  0.93800000000E+00  0.93800000000E+00 0. -1.
         11    1    1    2    0    0 -0.22427264242E+00  0.49971454878E-02  0.10396827317E+01  0.10636087783E+01  0.51100000000E-03 0. -1.
    9000002    1    1    2    0    0  0.76769804713E+00 -0.20835368853E-01  0.42993761641E+00  0.12862677630E+01  0.93800000000E+00 0. -1.
         22    1    1    2    0    0 -0.54342540471E+00  0.15838223366E-01  0.25303796192E+01  0.25881234586E+01  0.00000000000E+00 0. -1.
</event>
<event>
 5    1  0.3005426E+001  0.1552708E+01  0.7818608E-02  0.3406348E+00
         11   -1    0    0    0    0  0.00000000000E+00  0.00000000000E+00  0.39999999674E+01  0.40000000000E+01  0.51100000000E-03 0.  1.
    9000002   -1    0    0    0    0 -0.00000000000E+00 -0.00000000000E+00  0.00000000000E+00  0.93800000000E+00  0.93800000000E+00 0.  1.
         11    1    1    2    0    0 -0.18905958727E+00  0.17294229612E+00  0.13015224139E+01  0.13265042105E+01  0.51100000000E-03 0.  1.
    9000002    1    1    2    0    0 -0.82032653444E-01 -0.17063431179E+00  0.59644784201E-01  0.95877365675E+00  0.93800000000E+00 0.  1.
         22    1    1    2    0    0  0.27109224071E+00 -0.23079843302E-02  0.26388327692E+01  0.26527221328E+01  0.00000000000E+00 0.  1.
</event>
<event>
 5    1  0.3005426E+001  0.1599348E+01  0.7818608E-02  0.3354071E+00
         11   -1    0    0    0    0  0.00000000000E+00  0.00000000000E+00  0.39999999674E+01  0.40000000000E+01  0.51100000000E-03 0. -1.
    9000002   -1    0    0    0    0 -0.00000000000E+00 -0.00000000000E+00  0.00000000000E+00  0.93800000000E+00  0.93800000000E+00 0.  1.
         11    1    1    2    0    0 -0.82284429107E-02  0.48308361009E-01  0.37953861159E+00  0.38268946135E+00  0.51100000000E-03 0. -1.
    9000002    1    1    2    0    0  0.47189209191E-01 -0.36884784268E+00  0.93215390681E-01  0.10133156772E+01  0.93800000000E+00 0.  1.
         22    1    1    2    0    0 -0.38960766281E-01  0.32053948168E+00  0.35272459651E+01  0.35419948615E+01  0.00000000000E+00 0. -1.
</event>
<event>
 5    1  0.3005426E+001  0.1599652E+01  0.7818608E-02  0.3353741E+00
         11   -1    0    0    0    0  0.00000000000E+00  0.00000000000E+00  0.39999999674E+01  0.40000000000E+01  0.51100000000E-03 0.  1.
    9000002   -1    0    0    0    0 -0.00000000000E+00 -0.00000000000E+00  0.00000000000E+00  0.93800000000E+00  0.93800000000E+00 0.  1.
         11    1    1    2    0    0 -0.72828455868E-02 -0.21809029293E-01  0.15921210399E+00  0.16086462873E+00  0.51100000000E-03 0.  1.
    9000002    1    1    2    0    0  0.12502424100E+00  0.54794267442E+00  0.21870320740E+00  0.11151445324E+01  0.93800000000E+00 0.  1.
         22    1    1    2    0    0 -0.11774139541E+00 -0.52613364513E+00  0.36220846560E+01  0.36619908388E+01  0.00000000000E+00 0.  1.
</event>
<event>
 5    1  0.3005426E+001  0.1593010E+01  0.7818608E-02  0.3360985E+00
         11   -1    0    0    0    0  0.00000000000E+00  0.00000000000E+00  0.39999999674E+01  0.40000000000E+01  0.51100000000E-03 0.  1.
    9000002   -1    0    0    0    0 -0.00000000000E+00 -0.00000000000E+00  0.00000000000E+00  0.93800000000E+00  0.93800000000E+00 0.  1.
         11    1    1    2    0    0  0.83524779653E-01 -0.16353284310E+00  0.11081849816E+01  0.11232958623E+01  0.51100000000E-03 0.  1.
    9000002    1    1    2    0    0 -0.23120686612E-01  0.41502692390E+00  0.12241554440E+00  0.10332528632E+01  0.93800000000E+00 0.  1.
         22    1    1    2    0    0 -0.60404093041E-01 -0.25149408080E+00  0.27693994414E+01  0.27814512746E+01  0.00000000000E+00 0.  1.
</event>
<event>
 5    1  0.3005426E+001  0.1599675E+01  0.7818608E-02  0.3353716E+00
         11   -1    0    0    0    0  0.00000000000E+00  0.00000000000E+00  0.39999999674E+01  0.40000000000E+01  0.51100000000E-03 0. -1.
    9000002   -1    0    0    0    0 -0.00000000000E+00 -0.00000000000E+00  0.00000000000E+00  0.93800000000E+00  0.93800000000E+00 0.  1.
         11    1    1    2    0    0 -0.12936286203E+00 -0.44548004449E-01  0.11405606721E+01  0.11487376475E+01  0.51100000000E-03 0. -1.
    9000002    1    1    2    0    0  0.43284423429E+00  0.15370341810E+00  0.14349510346E+00  0.10542360820E+01  0.93800000000E+00 0.  1.
         22    1    1    2    0    0 -0.30348137227E+00 -0.10915541365E+00  0.27159441918E+01  0.27350262705E+01  0.00000000000E+00 0. -1.
</event>
<event>
 5    1  0.3005426E+001  0.1599497E+01  0.7818608E-02  0.3353910E+00
         11   -1    0    0    0    0  0.00000000000E+00  0.00000000000E+00  0.39999999674E+01  0.40000000000E+01  0.51100000000E-03 0.  1.
    9000002   -1    0    0    0    0 -0.00000000000E+00 -0.00000000000E+00  0.00000000000E+00  0.93800000000E+00  0.93800000000E+00 0.  1.
         11    1    1    2    0    0  0.66305054920E-01  0.13833838907E+00  0.12664933556E+01  0.12757505834E+01  0.51100000000E-03 0.  1.
    9000002    1    1    2    0    0 -0.16107605322E+00 -0.40232957861E+00  0.12740889088E+00  0.10411011527E+01  0.93800000000E+00 0.  1.
         22    1    1    2    0    0  0.94770998299E-01  0.26399118954E+00  0.26060977209E+01  0.26211482639E+01  0.00000000000E+00 0.  1.
</event>
<event>
 5    1  0.3005426E+001  0.1599672E+01  0.7818608E-02  0.3353720E+00
         11   -1    0    0    0    0  0.00000000000E+00  0.00000000000E+00  0.39999999674E+01  0.40000000000E+01  0.51100000000E-03 0.  1.
    9000002   -1    0    0    0    0 -0.00000000000E+00 -0.00000000000E+00  0.00000000000E+00  0.93800000000E+00  0.93800000000E+00 0.  1.
         11    1    1    2    0    0 -0.29540001758E-01 -0.24788181973E-03  0.24113132388E+00  0.24293466123E+00  0.51100000000E-03 0.  1.
    9000002    1    1    2    0    0  0.48819547074E+00 -0.39720293619E-02  0.16285102916E+00  0.10699135724E+01  0.93800000000E+00 0.  1.
         22    1    1    2    0    0 -0.45865546898E+00  0.42199111816E-02  0.35960176143E+01  0.36251517664E+01  0.00000000000E+00 0.  1.
</event>
<event>
 5    1  0.3005426E+001  0.1515707E+01  0.7818608E-02  0.3450261E+00
         11   -1    0    0    0    0  0.00000000000E+00  0.00000000000E+00  0.39999999674E+01  0.40000000000E+01  0.51100000000E-03 0. -1.
    9000002   -1    0    0    0    0 -0.00000000000E+00 -0.00000000000E+00  0.00000000000E+00  0.93800000000E+00  0.93800000000E+00 0.  1.
         11    1    1    2    0    0  0.29145951585E+00 -0.32793079401E+00  0.27232817405E+00  0.51638178758E+00  0.51100000000E-03 0. -1.
    9000002    1    1    2    0    0 -0.38093253634E+00  0.59884662045E+00  0.67605872719E+00  0.13566968249E+01  0.93800000000E+00 0.  1.
         22    1    1    2    0    0  0.89473020490E-01 -0.27091582645E+00  0.30516130661E+01  0.30649213875E+01  0.00000000000E+00 0. -1.
</event>
<event>
 5    1  0.3005426E+001  0.1560639E+01  0.7818608E-02  0.3397224E+00
         11   -1    0    0    0    0  0.00000000000E+00  0.00000000000E+00  0.39999999674E+01  0.40000000000E+01  0.51100000000E-03 0. -1.
    9000002   -1    0    0    0    0 -0.00000000000E+00 -0.00000000000E+00  0.00000000000E+00  0.93800000000E+00  0.93800000000E+00 0. -1.
         11    1    1    2    0    0 -0.11462279798E+00  0.20715295812E-01  0.38949989435E+00  0.40654389446E+00  0.51100000000E-03 0. -1.
    9000002    1    1    2    0    0 -0.24698977519E+00  0.11611598628E+00  0.80351201176E-01  0.98019752440E+00  0.93800000000E+00 0. -1.
         22    1    1    2    0    0  0.36161257317E+00 -0.13683128209E+00  0.35301488718E+01  0.35512585811E+01  0.00000000000E+00 0. -1.
</event>
<event>
 5    1  0.3005426E+001  0.1599674E+01  0.7818608E-02  0.3353718E+00
         11   -1    0    0    0    0  0.00000000000E+00  0.00000000000E+00  0.39999999674E+01  0.40000000000E+01  0.51100000000E-03 0.  1.
    9000002   -1    0    0    0    0 -0.00000000000E+00 -0.00000000000E+00  0.00000000000E+00  0.93800000000E+00  0.93800000000E+00 0.  1.
         11    1    1    2    0    0  0.25604484724E-01  0.42670019739E-01  0.51212723325E+00  0.51453948767E+00  0.51100000000E-03 0.  1.
    9000002    1    1    2    0    0 -0.19907050786E+00 -0.31521466692E+00  0.93439918238E-01  0.10136884983E+01  0.93800000000E+00 0.  1.
         22    1    1    2    0    0  0.17346602313E+00  0.27254464718E+00  0.33944328159E+01  0.34097720140E+01  0.00000000000E+00 0.  1.
</event>
<event>
 5    1  0.3005426E+001  0.1569371E+01  0.7818608E-02  0.3387293E+00
         11   -1    0    0    0    0  0.00000000000E+00  0.00000000000E+00  0.39999999674E+01  0.40000000000E+01  0.51100000000E-03 0.  1.
    9000002   -1    0    0    0    0 -0.00000000000E+00 -0.00000000000E+00  0.00000000000E+00  0.93800000000E+00  0.93800000000E+00 0.  1.
         11    1    1    2    0    0 -0.51347898039E-01  0.14922104889E-01  0.68185506674E-01  0.86653333974E-01  0.51100000000E-03 0.  1.
    9000002    1    1    2    0    0 -0.29198944966E+00 -0.16430233797E+00  0.99738562931E-01  0.10010219168E+01  0.93800000000E+00 0.  1.
         22    1    1    2    0    0  0.34333734770E+00  0.14938023309E+00  0.38320758978E+01  0.38503247492E+01  0.00000000000E+00 0.  1.
</event>
<event>
 5    1  0.3005426E+001  0.1599580E+01  0.7818608E-02  0.3353820E+00
         11   -1    0    0    0    0  0.00000000000E+00  0.00000000000E+00  0.39999999674E+01  0.40000000000E+01  0.51100000000E-03 0. -1.
    9000002   -1    0    0    0    0 -0.00000000000E+00 -0.00000000000E+00  0.00000000000E+00  0.93800000000E+00  0.93800000000E+00 0.  1.
         11    1    1    2    0    0 -0.67863494121E-01  0.11204098072E+00  0.13071711064E+01  0.13137180816E+01  0.51100000000E-03 0. -1.
    9000002    1    1    2    0    0  0.21974863957E+00 -0.30582566188E+00  0.95461947719E-01  0.10152712857E+01  0.93800000000E+00 0.  1.
         22    1    1    2    0    0 -0.15188514545E+00  0.19378468117E+00  0.25973669132E+01  0.26090106328E+01  0.00000000000E+00 0. -1.
</event>
<event>
 5    1  0.3005426E+001  0.1599651E+01  0.7818608E-02  0.3353743E+00
         11   -1    0    0    0    0  0.00000000000E+00  0.00000000000E+00  0.39999999674E+01  0.40000000000E+01  0.51100000000E-03 0. -1.
    9000002   -1    0    0    0    0 -0.00000000000E+00 -0.00000000000E+00  0.00000000000E+00  0.93800000000E+00  0.93800000000E+00 0.  1.
         11    1    1    2    0    0 -0.11801125582E-01  0.24201936455E-01  0.16703678300E+00  0.16919381871E+00  0.51100000000E-03 0. -1.
    9000002    1    1    2    0    0  0.30521308487E+00 -0.50467764954E+00  0.24220082315E+00  0.11341780265E+01  0.93800000000E+00 0.  1.
         22    1    1    2    0    0 -0.29341195929E+00  0.48047571309E+00  0.35907623612E+01  0.36346281548E+01  0.00000000000E+00 0. -1.
</event>
<event>
 5    1  0.3005426E+001  0.1599331E+01  0.7818608E-02  0.3354090E+00
         11   -1    0    0    0    0  0.00000000000E+00  0.00000000000E+00  0.39999999674E+01  0.40000000000E+01  0.51100000000E-03 0.  1.
    9000002   -1    0    0    0    0 -0.00000000000E+00 -0.00000000000E+00  0.00000000000E+00  0.93800000000E+00  0.93800000000E+00 0. -1.
         11    1    1    2    0    0 -0.89547814581E-01  0.10949217296E+00  0.11216831318E+01  0.11305665201E+01  0.51100000000E-03 0.  1.
    9000002    1    1    2    0    0  0.24609235954E+00 -0.40934775890E+00  0.15590203185E+00  0.10640848090E+01  0.93800000000E+00 0. -1.
         22    1    1    2    0    0 -0.15654454496E+00  0.29985558594E+00  0.27224148037E+01  0.27433486710E+01  0.00000000000E+00 0. -1.
</event>
<event>
 5    1  0.3005426E+001  0.1599653E+01  0.7818608E-02  0.3353740E+00
         11   -1    0    0    0    0  0.00000000000E+00  0.00000000000E+00  0.39999999674E+01  0.40000000000E+01  0.51100000000E-03 0.  1.
    9000002   -1    0    0    0    0 -0.00000000000E+00 -0.00000000000E+00  0.00000000000E+00  0.93800000000E+00  0.93800000000E+00 0.  1.
         11    1    1    2    0    0  0.11465019267E+00  0.14963765654E+00  0.13005126158E+01  0.13141040369E+01  0.51100000000E-03 0.  1.
    9000002    1    1    2    0    0 -0.32150297233E+00 -0.42826823759E+00  0.19756563754E+00  0.10980227801E+01  0.93800000000E+00 0.  1.
         22    1    1    2    0    0  0.20685277967E+00  0.27863058105E+00  0.25019217140E+01  0.25258731829E+01  0.00000000000E+00 0.  1.
</event>
<event>
 5    1  0.3160686E+001  0.1522473E+01  0.7818608E-02  0.3442060E+00
         11   -1    0    0    0    0  0.00000000000E+00  0.00000000000E+00  0.39999999674E+01  0.40000000000E+01  0.51100000000E-03 0.  1.
    9000002   -1    0    0    0    0 -0.00000000000E+00 -0.00000000000E+00  0.00000000000E+00  0.93800000000E+00  0.93800000000E+00 0.  1.
         11    1    1    2    0    0  0.23818247550E+00  0.16205972567E+00  0.11379092391E+01  0.11738108638E+01  0.51100000000E-03 0.  1.
    9000002    1    1    2    0    0 -0.20800689788E-01  0.11719960185E+00  0.68204806705E-01  0.94797906677E+00  0.93800000000E+00 0.  1.
         22    1    1    2    0    0 -0.21738178571E+00 -0.27925932753E+00  0.27938859215E+01  0.28162100695E+01  0.00000000000E+00 0.  1.
</event>
<event>
 5    1  0.3005426E+001  0.1488895E+01  0.7818608E-02  0.3483547E+00
         11   -1    0    0    0    0  0.00000000000E+00  0.00000000000E+00  0.39999999674E+01  0.40000000000E+01  0.51100000000E-03 0. -1.
    9000002   -1    0    0    0    0 -0.00000000000E+00 -0.00000000000E+00  0.00000000000E+00  0.93800000000E+00  0.93800000000E+00 0. -1.
         11    1    1    2    0    0 -0.26782624978E-01  0.35982084927E+00  0.49534887571E+00  0.61282878715E+00  0.51100000000E-03 0. -1.
    9000002    1    1    2    0    0  0.26990358742E+00  0.75696633377E-01  0.22070186677E+00  0.10035592861E+01  0.93800000000E+00 0. -1.
         22    1    1    2    0    0 -0.24312096244E+00 -0.43551748265E+00  0.32839492249E+01  0.33216119267E+01  0.00000000000E+00 0. -1.
</event>
<event>
 5    1  0.3005426E+001  0.1564987E+01  0.7818608E-02  0.3392265E+00
         11   -1    0    0    0    0  0.00000000000E+00  0.00000000000E+00  0.39999999674E+01  0.40000000000E+01  0.51100000000E-03 0. -1.
    9000002   -1    0    0    0    0 -0.00000000000E+00 -0.00000000000E+00  0.00000000000E+00  0.93800000000E+00  0.93800000000E+00 0. -1.
         11    1    1    2    0    0 -0.61321410915E-02  0.88905741105E-01  0.20330876477E+00  0.22198321763E+00  0.51100000000E-03 0. -1.
    9000002    1    1    2    0    0 -0.21210108224E+00  0.20181498723E+00  0.84704953007E-01  0.98627333292E+00  0.93800000000E+00 0. -1.
         22    1    1    2    0    0  0.21823322333E+00 -0.29072072834E+00  0.37119862496E+01  0.37297434495E+01  0.00000000000E+00 0. -1.
</event>
<event>
 5    1  0.3005426E+001  0.1585620E+01  0.7818608E-02  0.3369120E+00
         11   -1    0    0    0    0  0.00000000000E+00  0.00000000000E+00  0.39999999674E+01  0.40000000000E+01  0.51100000000E-03 0.  1.
    9000002   -1    0    0    0    0 -0.00000000000E+00 -0.00000000000E+00  0.00000000000E+00  0.93800000000E+00  0.93800000000E+00 0.  1.
         11    1    1    2    0    0  0.59842396431E-01  0.69968750125E-01  0.22475039774E+00  0.24287803690E+00  0.51100000000E-03 0.  1.
    9000002    1    1    2    0    0 -0.18658982367E+00 -0.37614399971E+00  0.13119200947E+00  0.10360286744E+01  0.93800000000E+00 0.  1.
         22    1    1    2    0    0  0.12674742724E+00  0.30617524959E+00  0.36440575601E+01  0.36590932887E+01  0.00000000000E+00 0.  1.
</event>
<event>
 5    1  0.3005426E+001  0.1599674E+01  0.7818608E-02  0.3353718E+00
         11   -1    0    0    0    0  0.00000000000E+00  0.00000000000E+00  0.39999999674E+01  0.40000000000E+01  0.51100000000E-03 0.  1.
    9000002   -1    0    0    0    0 -0.00000000000E+00 -0.00000000000E+00  0.00000000000E+00  0.93800000000E+00  0.93800000000E+00 0.  1.
         11    1    1    2    0    0  0.41395433492E-01 -0.34683617212E-01  0.40162607757E+00  0.40524104249E+00  0.51100000000E-03 0.  1.
    9000002    1    1    2    0    0 -0.40073742911E+00  0.31996913685E+00  0.18041498654E+00  0.10841421969E+01  0.93800000000E+00 0.  1.
         22    1    1    2    0    0  0.35934199562E+00 -0.28528551964E+00  0.34179589033E+01  0.34486167607E+01  0.00000000000E+00 0.  1.
</event>
<event>
 5    1  0.3005426E+001  0.1599455E+01  0.7818608E-02  0.3353955E+00
         11   -1    0    0    0    0  0.00000000000E+00  0.00000000000E+00  0.39999999674E+01  0.40000000000E+01  0.51100000000E-03 0. -1.
    9000002   -1    0    0    0    0 -0.00000000000E+00 -0.00000000000E+00  0.00000000000E+00  0.93800000000E+00  0.93800000000E+00 0. -1.
         11    1    1    2    0    0 -0.49919832857E-01  0.34326950281E-01  0.71839335551E+00  0.72094355091E+00  0.51100000000E-03 0. -1.
    9000002    1    1    2    0    0  0.32417408717E+00 -0.13218970708E+00  0.82359271895E-01  0.10045844948E+01  0.93800000000E+00 0. -1.
         22    1    1    2    0    0 -0.27425425431E+00  0.97862756803E-01  0.31992473400E+01  0.32124719543E+01  0.00000000000E+00 0. -1.
</event>
<event>
 5    1  0.3005426E+001  0.1596757E+01  0.7818608E-02  0.3356890E+00
         11   -1    0    0    0    0  0.00000000000E+00  0.00000000000E+00  0.39999999674E+01  0.40000000000E+01  0.51100000000E-03 0. -1.
    9000002   -1    0    0    0    0 -0.00000000000E+00 -0.00000000000E+00  0.00000000000E+00  0.93800000000E+00  0.93800000000E+00 0. -1.
         11    1    1    2    0    0 -0.37095556611E-01 -0.10862756142E+00  0.89212719878E+00  0.89948164370E+00  0.51100000000E-03 0. -1.
    9000002    1    1    2    0    0 -0.63705186199E-01  0.39563455774E+00  0.11076244604E+00  0.10260104159E+01  0.93800000000E+00 0. -1.
         22    1    1    2    0    0  0.10080074281E+00 -0.28700699631E+00  0.29971103225E+01  0.30125079404E+01  0.00000000000E+00 0. -1.
</event>
<event>
 5    1  0.3005426E+001  0.1598677E+01  0.7818608E-02  0.3354800E+00
         11   -1    0    0    0    0  0.00000000000E+00  0.00000000000E+00  0.39999999674E+01  0.40000000000E+01  0.51100000000E-03 0. -1.
    9000002   -1    0    0    0    0 -0.00000000000E+00 -0.00000000000E+00  0.00000000000E+00  0.93800000000E+00  0.93800000000E+00 0.  1.
         11    1    1    2    0    0 -0.18966081768E-01  0.17327245837E+00  0.11996008276E+01  0.12121986074E+01  0.51100000000E-03 0. -1.
    9000002    1    1    2    0    0  0.40934878434E-01 -0.44556546719E+00  0.13678650317E+00  0.10482169610E+01  0.93800000000E+00 0.  1.
         22    1    1    2    0    0 -0.21968796666E-01  0.27229300883E+00  0.26636126365E+01  0.26775844316E+01  0.00000000000E+00 0. -1.
</event>
<event>
 5    1  0.3005426E+001  0.1599510E+01  0.7818608E-02  0.3353895E+00
         11   -1    0    0    0    0  0.00000000000E+00  0.00000000000E+00  0.39999999674E+01  0.40000000000E+01  0.51100000000E-03 0.  1.
    9000002   -1    0    0    0    0 -0.00000000000E+00 -0.00000000000E+00  0.00000000000E+00  0.93800000000E+00  0.93800000000E+00 0. -1.
         11    1    1    2    0    0 -0.33117213044E-01 -0.48886500145E-02  0.31046323039E+00  0.31226323389E+00  0.51100000000E-03 0.  1.
    9000002    1    1    2    0    0  0.49676222721E+00  0.31521545911E-02  0.16899532225E+00  0.10747958250E+01  0.93800000000E+00 0. -1.
         22    1    1    2    0    0 -0.46364501416E+00  0.17364954234E-02  0.35205414147E+01  0.35509409411E+01  0.00000000000E+00 0.  1.
</event>
<event>
 5    1  0.3005426E+001  0.1494593E+01  0.7818608E-02  0.3476365E+00
         11   -1    0    0    0    0  0.00000000000E+00  0.00000000000E+00  0.39999999674E+01  0.40000000000E+01  0.51100000000E-03 0.  1.
    9000002   -1    0    0    0    0 -0.00000000000E+00 -0.00000000000E+00  0.00000000000E+00  0.93800000000E+00  0.93800000000E+00 0. -1.
         11    1    1    2    0    0 -0.15255928989E+00 -0.16166668905E+00  0.16342647843E+00  0.27589659341E+00  0.51100000000E-03 0.  1.
    9000002    1    1    2    0    0 -0.46808498834E+00 -0.29820884834E+00  0.43429602975E+00  0.11732387289E+01  0.93800000000E+00 0. -1.
         22    1    1    2    0    0  0.62064427823E+00  0.45987553739E+00  0.34022774592E+01  0.34888646777E+01  0.00000000000E+00 0.  1.
</event>
<event>
 5    1  0.3005426E+001  0.1599677E+01  0.7818608E-02  0.3353714E+00
         11   -1    0    0    0    0  0.00000000000E+00  0.00000000000E+00  0.39999999674E+01  0.40000000000E+01  0.51100000000E-03 0.  1.
    9000002   -1    0    0    0    0 -0.00000000000E+00 -0.00000000000E+00  0.00000000000E+00  0.93800000000E+00  0.93800000000E+00 0.  1.
         11    1    1    2    0    0  0.51202527328E-01 -0.53033939290E-01  0.67095948536E+00  0.67499717751E+00  0.51100000000E-03 0.  1.
    9000002    1    1    2    0    0 -0.29800799421E+00  0.30624026299E+00  0.12361187472E+00  0.10381308968E+01  0.93800000000E+00 0.  1.
         22    1    1    2    0    0  0.24680546688E+00 -0.25320632370E+00  0.32054286073E+01  0.32248719257E+01  0.00000000000E+00 0.  1.
</event>
<event>
 5    1  0.3005426E+001  0.1598566E+01  0.7818608E-02  0.3354921E+00
         11   -1    0    0    0    0  0.00000000000E+00  0.00000000000E+00  0.39999999674E+01  0.40000000000E+01  0.51100000000E-03 0. -1.
    9000002   -1    0    0    0    0 -0.00000000000E+00 -0.00000000000E+00  0.00000000000E+00  0.93800000000E+00  0.93800000000E+00 0.  1.
         11    1    1    2    0    0  0.11012167100E-01 -0.21467664955E-01  0.23385987703E+00  0.23510174748E+00  0.51100000000E-03 0. -1.
    9000002    1    1    2    0    0 -0.21733785700E+00  0.64414269775E+00  0.32975651559E+00  0.12044662381E+01  0.93800000000E+00 0.  1.
         22    1    1    2    0    0  0.20632568990E+00 -0.62267503280E+00  0.34363835747E+01  0.34984320144E+01  0.00000000000E+00 0. -1.
</event>
<event>
 5    1  0.3005426E+001  0.1594290E+01  0.7818608E-02  0.3359584E+00
         11   -1    0    0    0    0  0.00000000000E+00  0.00000000000E+00  0.39999999674E+01  0.40000000000E+01  0.51100000000E-03 0.  1.
    9000002   -1    0    0    0    0 -0.00000000000E+00 -0.00000000000E+00  0.00000000000E+00  0.93800000000E+00  0.93800000000E+00 0.  1.
         11    1    1    2    0    0 -0.24100899649E-01 -0.93687177601E-01  0.12792441738E+01  0.12828967448E+01  0.51100000000E-03 0.  1.
    9000002    1    1    2    0    0  0.32354835089E+00  0.25335849310E+00  0.11860219820E+00  0.10309144207E+01  0.93800000000E+00 0.  1.
         22    1    1    2    0    0 -0.29944745124E+00 -0.15967131550E+00  0.26021535954E+01  0.26241888345E+01  0.00000000000E+00 0.  1.
</event>
<event>
 5    1  0.3005426E+001  0.1599654E+01  0.7818608E-02  0.3353738E+00
         11   -1    0    0    0    0  0.00000000000E+00  0.00000000000E+00  0.39999999674E+01  0.40000000000E+01  0.51100000000E-03 0.  1.
    9000002   -1    0    0    0    0 -0.00000000000E+00 -0.00000000000E+00  0.00000000000E+00  0.93800000000E+00  0.93800000000E+00 0.  1.
         11    1    1    2    0    0  0.40096644767E-01  0.12250420473E-01  0.40716853154E+00  0.40932174133E+00  0.51100000000E-03 0.  1.
    9000002    1    1    2    0    0 -0.35154560749E+00 -0.11487479978E+00  0.91938431885E-01  0.10124609667E+01  0.93800000000E+00 0.  1.
         22    1    1    2    0    0  0.31144896272E+00  0.10262437930E+00  0.35008930039E+01  0.35162172920E+01  0.00000000000E+00 0.  1.
</event>
<event>
 5    1  0.3005426E+001  0.1599669E+01  0.7818608E-02  0.3353723E+00
         11   -1    0    0    0    0  0.00000000000E+00  0.00000000000E+00  0.39999999674E+01  0.40000000000E+01  0.51100000000E-03 0. -1.
    9000002   -1    0    0    0    0 -0.00000000000E+00 -0.00000000000E+00  0.00000000000E+00  0.93800000000E+00  0.93800000000E+00 0.  1.
         11    1    1    2    0    0  0.12551807616E+00  0.11680743919E+00  0.13828416004E+01  0.13934309880E+01  0.51100000000E-03 0. -1.
    9000002    1    1    2    0    0 -0.35730272359E+00 -0.32701334048E+00  0.16019309774E+00  0.10677587694E+01  0.93800000000E+00 0.  1.
         22    1    1    2    0    0  0.23178464743E+00  0.21020590129E+00  0.24569652692E+01  0.24768102426E+01  0.00000000000E+00 0. -1.
</event>
<event>
 5    1  0.3005426E+001  0.1599397E+01  0.7818608E-02  0.3354018E+00
         11   -1    0    0    0    0  0.00000000000E+00  0.00000000000E+00  0.39999999674E+01  0.40000000000E+01  0.51100000000E-03 0.  1.
    9000002   -1    0    0    0    0 -0.00000000000E+00 -0.00000000000E+00  0.00000000000E+00  0.93800000000E+00  0.93800000000E+00 0.  1.
         11    1    1    2    0    0  0.14881074519E+00 -0.62648834905E-01  0.10684811276E+01  0.10806117228E+01  0.51100000000E-03 0.  1.
    9000002    1    1    2    0    0 -0.46993558685E+00  0.20381105014E+00  0.18024270874E+00  0.10838403176E+01  0.93800000000E+00 0.  1.
         22    1    1    2    0    0  0.32112484166E+00 -0.14116221523E+00  0.27512761310E+01  0.27735479596E+01  0.00000000000E+00 0.  1.
</event>
<event>
 5    1  0.3005426E+001  0.1599675E+01  0.7818608E-02  0.3353716E+00
         11   -1    0    0    0    0  0.00000000000E+00  0.00000000000E+00  0.39999999674E+01  0.40000000000E+01  0.51100000000E-03 0. -1.
    9000002   -1    0    0    0    0 -0.00000000000E+00 -0.00000000000E+00  0.00000000000E+00  0.93800000000E+00  0.93800000000E+00 0.  1.
         11    1    1    2    0    0 -0.10354168136E+00 -0.81464727980E-01  0.83492094028E+00  0.84525180824E+00  0.51100000000E-03 0. -1.
    9000002    1    1    2    0    0  0.47178687130E+00  0.36497973306E+00  0.24805283765E+00  0.11389325124E+01  0.93800000000E+00 0.  1.
         22    1    1    2    0    0 -0.36824518994E+00 -0.28351500508E+00  0.29170261894E+01  0.29538156794E+01  0.00000000000E+00 0. -1.
</event>
<event>
 5    1  0.3005426E+001  0.1594007E+01  0.7818608E-02  0.3359893E+00
         11   -1    0    0    0    0  0.00000000000E+00  0.00000000000E+00  0.39999999674E+01  0.40000000000E+01  0.51100000000E-03 0. -1.
    9000002   -1    0    0    0    0 -0.00000000000E+00 -0.00000000000E+00  0.00000000000E+00  0.93800000000E+00  0.93800000000E+00 0. -1.
         11    1    1    2    0    0 -0.21736934377E-01  0.18187383023E+00  0.11976482404E+01  0.12115742459E+01  0.51100000000E-03 0. -1.
    9000002    1    1    2    0    0  0.32778800164E+00 -0.57889661214E+00  0.31956554795E+00  0.11935377669E+01  0.93800000000E+00 0. -1.
         22    1    1    2    0    0 -0.30605106726E+00  0.39702278191E+00  0.24827861790E+01  0.25328879872E+01  0.00000000000E+00 0. -1.
</event>
<event>
 5    1  0.3005426E+001  0.1599643E+01  0.7818608E-02  0.3353751E+00
         11   -1    0    0    0    0  0.00000000000E+00  0.00000000000E+00  0.39999999674E+01  0.40000000000E+01  0.51100000000E-03 0. -1.
    9000002   -1    0    0    0    0 -0.00000000000E+00 -0.00000000000E+00  0.00000000000E+00  0.93800000000E+00  0.93800000000E+00 0. -1.
         11    1    1    2    0    0 -0.38894223967E-01  0.39736282671E-01  0.60500064018E+00  0.60755063045E+00  0.51100000000E-03 0. -1.
    9000002    1    1    2    0    0  0.23925281616E+00 -0.28695963884E+00  0.93876034635E-01  0.10140238923E+01  0.93800000000E+00 0. -1.
         22    1    1    2    0    0 -0.20035859219E+00  0.24722335617E+00  0.33011232925E+01  0.33164254772E+01  0.00000000000E+00 0. -1.
</event>
<event>
 5    1  0.3005426E+001  0.1598249E+01  0.7818608E-02  0.3355266E+00
         11   -1    0    0    0    0  0.00000000000E+00  0.00000000000E+00  0.39999999674E+01  0.40000000000E+01  0.51100000000E-03 0. -1.
    9000002   -1    0    0    0    0 -0.00000000000E+00 -0.00000000000E+00  0.00000000000E+00  0.93800000000E+00  0.93800000000E+00 0. -1.
         11    1    1    2    0    0  0.58226065453E-01  0.12187437173E+00  0.12916668646E+01  0.12987098165E+01  0.51100000000E-03 0. -1.
    9000002    1    1    2    0    0 -0.28565179686E+00 -0.42005169662E+00  0.17817838679E+00  0.10814952216E+01  0.93800000000E+00 0. -1.
         22    1    1    2    0    0  0.22742573141E+00  0.29817732489E+00  0.25301547160E+01  0.25577949619E+01  0.00000000000E+00 0. -1.
</event>
<event>
 5    1  0.3005426E+001  0.1599667E+01  0.7818608E-02  0.3353725E+00
         11   -1    0    0    0    0  0.00000000000E+00  0.00000000000E+00  0.39999999674E+01  0.40000000000E+01  0.51100000000E-03 0. -1.
    9000002   -1    0    0    0    0 -0.00000000000E+00 -0.00000000000E+00  0.00000000000E+00  0.93800000000E+00  0.93800000000E+00 0.  1.
         11    1    1    2    0    0  0.55001646990E-01 -0.10119421085E+00  0.11897491362E+01  0.11953111385E+01  0.51100000000E-03 0. -1.
    9000002    1    1    2    0    0 -0.16941128140E+00  0.32961761845E+00  0.92317937486E-01  0.10127756702E+01  0.93800000000E+00 0.  1.
         22    1    1    2    0    0  0.11440963441E+00 -0.22842340760E+00  0.27179328936E+01  0.27299131913E+01  0.00000000000E+00 0. -1.
</event>
<event>
 5    1  0.3005426E+001  0.1520968E+01  0.7818608E-02  0.3443878E+00
         11   -1    0    0    0    0  0.00000000000E+00  0.00000000000E+00  0.39999999674E+01  0.40000000000E+01  0.51100000000E-03 0. -1.
    9000002   -1    0    0    0    0 -0.00000000000E+00 -0.00000000000E+00  0.00000000000E+00  0.93800000000E+00  0.93800000000E+00 0. -1.
         11    1    1    2    0    0  0.18432369844E+00 -0.21625300640E+00  0.11328960942E+01  0.11679873330E+01  0.51100000000E-03 0. -1.
    9000002    1    1    2    0    0  0.30207686833E-01 -0.74580493246E-01  0.63902707843E-01  0.94361131319E+00  0.93800000000E+00 0. -1.
         22    1    1    2    0    0 -0.21453138527E+00  0.29083349965E+00  0.28032011653E+01  0.28264013539E+01  0.00000000000E+00 0. -1.
</event>
<event>
 5    1  0.3005426E+001  0.1599668E+01  0.7818608E-02  0.3353724E+00
         11   -1    0    0    0    0  0.00000000000E+00  0.00000000000E+00  0.39999999674E+01  0.40000000000E+01  0.51100000000E-03 0. -1.
    9000002   -1    0    0    0    0 -0.00000000000E+00 -0.00000000000E+00  0.00000000000E+00  0.93800000000E+00  0.93800000000E+00 0. -1.
         11    1    1    2    0    0 -0.12070486140E+00  0.67611204451E-01  0.13824868209E+01  0.13893923166E+01  0.51100000000E-03 0. -1.
    9000002    1    1    2    0    0  0.33367798898E+00 -0.18403805161E+00  0.97723810684E-01  0.10171553214E+01  0.93800000000E+00 0. -1.
         22    1    1    2    0    0 -0.21297312758E+00  0.11642684716E+00  0.25197893358E+01  0.25314523619E+01  0.00000000000E+00 0. -1.
</event>
<event>
 5    1  0.3005426E+001  0.1599626E+01  0.7818608E-02  0.3353770E+00
         11   -1    0    0    0    0  0.00000000000E+00  0.00000000000E+00  0.39999999674E+01  0.40000000000E+01  0.51100000000E-03 0. -1.
    9000002   -1    0    0    0    0 -0.00000000000E+00 -0.00000000000E+00  0.00000000000E+00  0.93800000000E+00  0.93800000000E+00 0. -1.
         11    1    1    2    0    0  0.15307712141E+00  0.22939545241E-01  0.14000605924E+01  0.14085910519E+01  0.51100000000E-03 0. -1.
    9000002    1    1    2    0    0 -0.44303401261E+00 -0.73468724396E-01  0.13700164570E+00  0.10489472059E+01  0.93800000000E+00 0. -1.
         22    1    1    2    0    0  0.28995689119E+00  0.50529179154E-01  0.24629377292E+01  0.24804617423E+01  0.00000000000E+00 0. -1.
</event>
<event>
 5    1  0.3005426E+001  0.1596615E+01  0.7818608E-02  0.3357046E+00
         11   -1    0    0    0    0  0.00000000000E+00  0.00000000000E+00  0.39999999674E+01  0.40000000000E+01  0.51100000000E-03 0. -1.
    9000002   -1    0    0    0    0 -0.00000000000E+00 -0.00000000000E+00  0.00000000000E+00  0.93800000000E+00  0.93800000000E+00 0. -1.
         11    1    1    2    0    0 -0.21925269572E-01  0.36258944584E-01  0.57026143791E+00  0.57183371463E+00  0.51100000000E-03 0. -1.
    9000002    1    1    2    0    0 -0.99907425477E-01 -0.44736824738E+00  0.14555599419E+00  0.10541111848E+01  0.93800000000E+00 0. -1.
         22    1    1    2    0    0  0.12183269505E+00  0.41110930279E+00  0.32841825353E+01  0.33120551006E+01  0.00000000000E+00 0. -1.
</event>
<event>
 5    1  0.3005426E+001  0.1599655E+01  0.7818608E-02  0.3353738E+00
         11   -1    0    0    0    0  0.00000000000E+00  0.00000000000E+00  0.39999999674E+01  0.40000000000E+01  0.51100000000E-03 0.  1.
    9000002   -1    0    0    0    0 -0.00000000000E+00 -0.00000000000E+00  0.00000000000E+00  0.93800000000E+00  0.93800000000E+00 0.  1.
         11    1    1    2    0    0  0.11686081230E+00 -0.82048972358E-01  0.14014928059E+01  0.14087479652E+01  0.51100000000E-03 0.  1.
    9000002    1    1    2    0    0 -0.32056974602E+00  0.24240890259E+00  0.10899841491E+00  0.10262805136E+01  0.93800000000E+00 0.  1.
         22    1    1    2    0    0  0.20370893372E+00 -0.16035993023E+00  0.24895087466E+01  0.25029715212E+01  0.00000000000E+00 0.  1.
</event>
<event>
 5    1  0.3005426E+001  0.1594688E+01  0.7818608E-02  0.3359149E+00
         11   -1    0    0    0    0  0.00000000000E+00  0.00000000000E+00  0.39999999674E+01  0.40000000000E+01  0.51100000000E-03 0. -1.
    9000002   -1    0    0    0    0 -0.00000000000E+00 -0.00000000000E+00  0.00000000000E+00  0.93800000000E+00  0.93800000000E+00 0.  1.
         11    1    1    2    0    0 -0.20039131802E+00  0.88275322728E-01  0.10660953149E+01  0.10883513654E+01  0.51100000000E-03 0. -1.
    9000002    1    1    2    0    0  0.46314666534E+00 -0.20873150185E+00  0.18144540315E+00  0.10820536529E+01  0.93800000000E+00 0.  1.
         22    1    1    2    0    0 -0.26275534731E+00  0.12045617912E+00  0.27524592493E+01  0.27675949817E+01  0.00000000000E+00 0. -1.
</event>
<event>
 5    1  0.3005426E+001  0.1531018E+01  0.7818608E-02  0.3431815E+00
         11   -1    0    0    0    0  0.00000000000E+00  0.00000000000E+00  0.39999999674E+01  0.40000000000E+01  0.51100000000E-03 0. -1.
    9000002   -1    0    0    0    0 -0.00000000000E+00 -0.00000000000E+00  0.00000000000E+00  0.93800000000E+00  0.93800000000E+00 0. -1.
         11    1    1    2    0    0 -0.26710597090E+00  0.19407224362E+00  0.28436988242E+00  0.43574777863E+00  0.51100000000E-03 0. -1.
    9000002    1    1    2    0    0  0.68645680531E-01  0.26643231418E+00  0.26147031457E+00  0.10118839523E+01  0.93800000000E+00 0. -1.
         22    1    1    2    0    0  0.19846029036E+00 -0.46050455780E+00  0.34541597704E+01  0.34903682691E+01  0.00000000000E+00 0. -1.
</event>
<event>
 5    1  0.3005426E+001  0.1599677E+01  0.7818608E-02  0.3353714E+00
         11   -1    0    0    0    0  0.00000000000E+00  0.00000000000E+00  0.39999999674E+01  0.40000000000E+01  0.51100000000E-03 0. -1.
    9000002   -1    0    0    0    0 -0.00000000000E+00 -0.00000000000E+00  0.00000000000E+00  0.93800000000E+00  0.93800000000E+00 0. -1.
         11    1    1    2    0    0  0.95038976131E-01  0.11066409686E+00  0.10874197603E+01  0.10971604010E+01  0.51100000000E-03 0.  1.
    9000002    1    1    2    0    0 -0.33458248782E+00 -0.39012032444E+00  0.18124970536E+00  0.10848201530E+01  0.93800000000E+00 0. -1.
         22    1    1    2    0    0  0.23954351169E+00  0.27945622758E+00  0.27313305017E+01  0.27560194460E+01  0.00000000000E+00 0. -1.
</event>
<event>
 5    1  0.3005426E+001  0.1654503E+01  0.7818608E-02  0.3296253E+00
         11   -1    0    0    0    0  0.00000000000E+00  0.00000000000E+00  0.39999999674E+01  0.40000000000E+01  0.51100000000E-03 0. -1.
    9000002   -1    0    0    0    0 -0.00000000000E+00 -0.00000000000E+00  0.00000000000E+00  0.93800000000E+00  0.93800000000E+00 0.  1.
         11    1    1    2    0    0  0.18645771551E+00  0.13958890976E+00 -0.24246105069E-01  0.23417873118E+00  0.51100000000E-03 0. -1.
    9000002    1    1    2    0    0  0.35750217845E-01  0.35892185368E+00  0.47270001012E+00  0.11105819532E+01  0.93800000000E+00 0.  1.
         22    1    1    2    0    0 -0.22220793336E+00 -0.49851076345E+00  0.35515460623E+01  0.35932393157E+01  0.00000000000E+00 0. -1.
</event>
<event>
 5    1  0.4946249E+001  0.1585291E+01  0.7818608E-02  0.3369484E+00
         11   -1    0    0    0    0  0.00000000000E+00  0.00000000000E+00  0.39999999674E+01  0.40000000000E+01  0.51100000000E-03 0.  1.
    9000002   -1    0    0    0    0 -0.00000000000E+00 -0.00000000000E+00  0.00000000000E+00  0.93800000000E+00  0.93800000000E+00 0. -1.
         11    1    1    2    0    0  0.15938727118E-01  0.99535287665E-01  0.14900987461E+01  0.14935045533E+01  0.51100000000E-03 0.  1.
    9000002    1    1    2    0    0  0.15071581713E+00  0.53195814285E-01  0.27596936388E-01  0.95191945200E+00  0.93800000000E+00 0. -1.
         22    1    1    2    0    0 -0.16665454425E+00 -0.15273110195E+00  0.24823042849E+01  0.24925759947E+01  0.00000000000E+00 0.  1.
</event>
<event>
 5    1  0.3005426E+001  0.1599674E+01  0.7818608E-02  0.3353718E+00
         11   -1    0    0    0    0  0.00000000000E+00  0.00000000000E+00  0.39999999674E+01  0.40000000000E+01  0.51100000000E-03 0.  1.
    9000002   -1    0    0    0    0 -0.00000000000E+00 -0.00000000000E+00  0.00000000000E+00  0.93800000000E+00  0.93800000000E+00 0. -1.
         11    1    1    2    0    0 -0.14090251009E+00 -0.45765373017E-03  0.14671030503E+01  0.14738539101E+01  0.51100000000E-03 0.  1.
    9000002    1    1    2    0    0  0.37549563199E+00  0.68310848293E-02  0.94851859685E-01  0.10148322564E+01  0.93800000000E+00 0. -1.
         22    1    1    2    0    0 -0.23459312190E+00 -0.63734310991E-02  0.24380450573E+01  0.24493138335E+01  0.00000000000E+00 0.  1.
</event>
<event>
 5    1  0.3005426E+001  0.1497141E+01  0.7818608E-02  0.3473173E+00
         11   -1    0    0    0    0  0.00000000000E+00  0.00000000000E+00  0.39999999674E+01  0.40000000000E+01  0.51100000000E-03 0.  1.
    9000002   -1    0    0    0    0 -0.00000000000E+00 -0.00000000000E+00  0.00000000000E+00  0.93800000000E+00  0.93800000000E+00 0. -1.
         11    1    1    2    0    0  0.27971096269E+00 -0.24149552733E+00  0.10189328493E+01  0.10838739432E+01  0.51100000000E-03 0.  1.
    9000002    1    1    2    0    0 -0.19201007432E+00 -0.43954890568E-01  0.10680324454E+00  0.96439143199E+00  0.93800000000E+00 0. -1.
         22    1    1    2    0    0 -0.87700888371E-01  0.28545041789E+00  0.28742638735E+01  0.28897346248E+01  0.00000000000E+00 0.  1.
</event>
<event>
 5    1  0.3005426E+001  0.1599471E+01  0.7818608E-02  0.3353938E+00
         11   -1    0    0    0    0  0.00000000000E+00  0.00000000000E+00  0.39999999674E+01  0.40000000000E+01  0.51100000000E-03 0. -1.
    9000002   -1    0    0    0    0 -0.00000000000E+00 -0.00000000000E+00  0.00000000000E+00  0.93800000000E+00  0.93800000000E+00 0. -1.
         11    1    1    2    0    0 -0.37238250085E-01  0.77297334490E-01  0.10381247586E+01  0.10416644569E+01  0.51100000000E-03 0. -1.
    9000002    1    1    2    0    0  0.11146255004E+00 -0.34123594891E+00  0.86659926853E-01  0.10080772866E+01  0.93800000000E+00 0.  1.
         22    1    1    2    0    0 -0.74224299955E-01  0.26393861442E+00  0.28752152819E+01  0.28882582565E+01  0.00000000000E+00 0. -1.
</event>
<event>
 5    1  0.3005426E+001  0.1587178E+01  0.7818608E-02  0.3367398E+00
         11   -1    0    0    0    0  0.00000000000E+00  0.00000000000E+00  0.39999999674E+01  0.40000000000E+01  0.51100000000E-03 0.  1.
    9000002   -1    0    0    0    0 -0.00000000000E+00 -0.00000000000E+00  0.00000000000E+00  0.93800000000E+00  0.93800000000E+00 0.  1.
         11    1    1    2    0    0  0.17925725998E+00  0.29660902713E-01  0.11597404508E+01  0.11738871788E+01  0.51100000000E-03 0.  1.
    9000002    1    1    2    0    0 -0.33103439162E+00  0.21337861670E+00  0.11497403250E+00  0.10238052699E+01  0.93800000000E+00 0.  1.
         22    1    1    2    0    0  0.15177713164E+00 -0.24303951942E+00  0.27252854841E+01  0.27403075513E+01  0.00000000000E+00 0.  1.
</event>
<event>
 5    1  0.3005426E+001  0.1598992E+01  0.7818608E-02  0.3354458E+00
         11   -1    0    0    0    0  0.00000000000E+00  0.00000000000E+00  0.39999999674E+01  0.40000000000E+01  0.51100000000E-03 0.  1.
    9000002   -1    0    0    0    0 -0.00000000000E+00 -0.00000000000E+00  0.00000000000E+00  0.93800000000E+00  0.93800000000E+00 0.  1.
         11    1    1    2    0    0 -0.11697144324E+00  0.80929761401E-01  0.10032730199E+01  0.10133059549E+01  0.51100000000E-03 0.  1.
    9000002    1    1    2    0    0  0.35297375889E+00 -0.26807095537E+00  0.13388388372E+00  0.10460503840E+01  0.93800000000E+00 0.  1.
         22    1    1    2    0    0 -0.23600231565E+00  0.18714119396E+00  0.28628430638E+01  0.28786436611E+01  0.00000000000E+00 0.  1.
</event>
<event>
 5    1  0.3005426E+001  0.1598102E+01  0.7818608E-02  0.3355425E+00
         11   -1    0    0    0    0  0.00000000000E+00  0.00000000000E+00  0.39999999674E+01  0.40000000000E+01  0.51100000000E-03 0.  1.
    9000002   -1    0    0    0    0 -0.00000000000E+00 -0.00000000000E+00  0.00000000000E+00  0.93800000000E+00  0.93800000000E+00 0. -1.
         11    1    1    2    0    0 -0.22680458747E+00  0.11399121157E+00  0.81066717586E+00  0.84947975158E+00  0.51100000000E-03 0.  1.
    9000002    1    1    2    0    0  0.76842804618E+00 -0.47696174209E+00  0.62975818104E+00  0.14472088765E+01  0.93800000000E+00 0. -1.
         22    1    1    2    0    0 -0.54162345871E+00  0.36297053052E+00  0.25595746105E+01  0.26413113719E+01  0.00000000000E+00 0.  1.
</event>
<event>
 5    1  0.3005426E+001  0.1599481E+01  0.7818608E-02  0.3353927E+00
         11   -1    0    0    0    0  0.00000000000E+00  0.00000000000E+00  0.39999999674E+01  0.40000000000E+01  0.51100000000E-03 0. -1.
    9000002   -1    0    0    0    0 -0.00000000000E+00 -0.00000000000E+00  0.00000000000E+00  0.93800000000E+00  0.93800000000E+00 0. -1.
         11    1    1    2    0    0 -0.17446218946E+00 -0.52150282688E-01  0.13694342863E+01  0.13814873265E+01  0.51100000000E-03 0. -1.
    9000002    1    1    2    0    0  0.48025317485E+00  0.10153701627E+00  0.16487127741E+00  0.10714380130E+01  0.93800000000E+00 0. -1.
         22    1    1    2    0    0 -0.30579098539E+00 -0.49386733579E-01  0.24656944037E+01  0.24850746605E+01  0.00000000000E+00 0. -1.
</event>
<event>
 5    1  0.3005426E+001  0.1599677E+01  0.7818608E-02  0.3353714E+00
         11   -1    0    0    0    0  0.00000000000E+00  0.00000000000E+00  0.39999999674E+01  0.40000000000E+01  0.51100000000E-03 0. -1.
    9000002   -1    0    0    0    0 -0.00000000000E+00 -0.00000000000E+00  0.00000000000E+00  0.93800000000E+00  0.93800000000E+00 0.  1.
         11    1    1    2    0    0 -0.11548110449E+00  0.19206827226E-01  0.12761638587E+01  0.12815222367E+01  0.51100000000E-03 0. -1.
    9000002    1    1    2    0    0  0.35339446715E+00 -0.58709123257E-01  0.86128854597E-01  0.10077681232E+01  0.93800000000E+00 0.  1.
         22    1    1    2    0    0 -0.23791336266E+00  0.39502296031E-01  0.26377072540E+01  0.26487096401E+01  0.00000000000E+00 0. -1.
</event>
<event>
 5    1  0.3005426E+001  0.1599247E+01  0.7818608E-02  0.3354182E+00
         11   -1    0    0    0    0  0.00000000000E+00  0.00000000000E+00  0.39999999674E+01  0.40000000000E+01  0.51100000000E-03 0.  1.
    9000002   -1    0    0    0    0 -0.00000000000E+00 -0.00000000000E+00  0.00000000000E+00  0.93800000000E+00  0.93800000000E+00 0.  1.
         11    1    1    2    0    0 -0.55911156170E-01  0.47502634709E-01  0.49334087617E+00  0.49876651743E+00  0.51100000000E-03 0.  1.
    9000002    1    1    2    0    0  0.36753811529E+00 -0.26071367753E+00  0.13829691588E+00  0.10497742256E+01  0.93800000000E+00 0.  1.
         22    1    1    2    0    0 -0.31162695912E+00  0.21321104282E+00  0.33683621753E+01  0.33894592569E+01  0.00000000000E+00 0.  1.
</event>
<event>
 5    1  0.3005426E+001  0.1599676E+01  0.7818608E-02  0.3353715E+00
         11   -1    0    0    0    0  0.00000000000E+00  0.00000000000E+00  0.39999999674E+01  0.40000000000E+01  0.51100000000E-03 0.  1.
    9000002   -1    0    0    0    0 -0.00000000000E+00 -0.00000000000E+00  0.00000000000E+00  0.93800000000E+00  0.93800000000E+00 0. -1.
         11    1    1    2    0    0  0.54124430782E-01 -0.10473943889E+00  0.12254431758E+01  0.12311015564E+01  0.51100000000E-03 0.  1.
    9000002    1    1    2    0    0 -0.17457146935E+00  0.33089005731E+00  0.94107442338E-01  0.10142305648E+01  0.93800000000E+00 0. -1.
         22    1    1    2    0    0  0.12044703857E+00 -0.22615061842E+00  0.26804493493E+01  0.26926678788E+01  0.00000000000E+00 0.  1.
</event>
<event>
 5    1  0.3005426E+001  0.1599674E+01  0.7818608E-02  0.3353717E+00
         11   -1    0    0    0    0  0.00000000000E+00  0.00000000000E+00  0.39999999674E+01  0.40000000000E+01  0.51100000000E-03 0.  1.
    9000002   -1    0    0    0    0 -0.00000000000E+00 -0.00000000000E+00  0.00000000000E+00  0.93800000000E+00  0.93800000000E+00 0.  1.
         11    1    1    2    0    0 -0.60274183651E-01  0.11541514857E+00  0.85086829222E+00  0.86077334157E+00  0.51100000000E-03 0.  1.
    9000002    1    1    2    0    0  0.26582707078E+00 -0.51795455096E+00  0.23560124157E+00  0.11288458236E+01  0.93800000000E+00 0.  1.
         22    1    1    2    0    0 -0.20555288713E+00  0.40253940239E+00  0.29135304336E+01  0.29483808348E+01  0.00000000000E+00 0. -1.
</event>
<event>
 5    1  0.3005426E+001  0.1599617E+01  0.7818608E-02  0.3353779E+00
         11   -1    0    0    0    0  0.00000000000E+00  0.00000000000E+00  0.39999999674E+01  0.40000000000E+01  0.51100000000E-03 0.  1.
    9000002   -1    0    0    0    0 -0.00000000000E+00 -0.00000000000E+00  0.00000000000E+00  0.93800000000E+00  0.93800000000E+00 0. -1.
         11    1    1    2    0    0  0.26526359529E-01  0.18932851948E-01  0.20653714500E+00  0.20909317066E+00  0.51100000000E-03 0.  1.
    9000002    1    1    2    0    0 -0.48801723067E+00 -0.26949512534E+00  0.21502706485E+00  0.11121461588E+01  0.93800000000E+00 0. -1.
         22    1    1    2    0    0  0.46149087114E+00  0.25056227339E+00  0.35784357575E+01  0.36167606705E+01  0.00000000000E+00 0.  1.
</event>
<event>
 5    1  0.3005426E+001  0.1593472E+01  0.7818608E-02  0.3360479E+00
         11   -1    0    0    0    0  0.00000000000E+00  0.00000000000E+00  0.39999999674E+01  0.40000000000E+01  0.51100000000E-03 0.  1.
    9000002   -1    0    0    0    0 -0.00000000000E+00 -0.00000000000E+00  0.00000000000E+00  0.93800000000E+00  0.93800000000E+00 0.  1.
         11    1    1    2    0    0  0.17584512138E+00  0.16886005999E+00  0.11789700523E+01  0.12039127343E+01  0.51100000000E-03 0.  1.
    9000002    1    1    2    0    0 -0.45669488830E+00 -0.28064605569E+00  0.20374392854E+00  0.10994034828E+01  0.93800000000E+00 0.  1.
         22    1    1    2    0    0  0.28084976692E+00  0.11178599570E+00  0.26172859866E+01  0.26346837829E+01  0.00000000000E+00 0.  1.
</event>
<event>
 5    1  0.3005426E+001  0.1599528E+01  0.7818608E-02  0.3353876E+00
         11   -1    0    0    0    0  0.00000000000E+00  0.00000000000E+00  0.39999999674E+01  0.40000000000E+01  0.51100000000E-03 0.  1.
    9000002   -1    0    0    0    0 -0.00000000000E+00 -0.00000000000E+00  0.00000000000E+00  0.93800000000E+00  0.93800000000E+00 0. -1.
         11    1    1    2    0    0  0.80319518139E-01  0.10764303712E+00  0.11624586583E+01  0.11701917116E+01  0.51100000000E-03 0.  1.
    9000002    1    1    2    0    0 -0.25791587321E+00 -0.31612130066E+00  0.11251699236E+00  0.10290565329E+01  0.93800000000E+00 0. -1.
         22    1    1    2    0    0  0.17759635507E+00  0.20847826354E+00  0.27250243167E+01  0.27387517555E+01  0.00000000000E+00 0.  1.
</event>
<event>
 5    1  0.3005426E+001  0.1592331E+01  0.7818608E-02  0.3361730E+00
         11   -1    0    0    0    0  0.00000000000E+00  0.00000000000E+00  0.39999999674E+01  0.40000000000E+01  0.51100000000E-03 0. -1.
    9000002   -1    0    0    0    0 -0.00000000000E+00 -0.00000000000E+00  0.00000000000E+00  0.93800000000E+00  0.93800000000E+00 0.  1.
         11    1    1    2    0    0  0.89909349488E-01  0.53862533751E-01  0.10843812489E+01  0.10894346322E+01  0.51100000000E-03 0. -1.
    9000002    1    1    2    0    0 -0.29128536495E+00  0.13711911258E+00  0.75133928170E-01  0.99455413228E+00  0.93800000000E+00 0.  1.
         22    1    1    2    0    0  0.20137601546E+00 -0.19098164633E+00  0.28404847903E+01  0.28540112356E+01  0.00000000000E+00 0. -1.
</event>
<event>
 5    1  0.3005426E+001  0.1518322E+01  0.7818608E-02  0.3447082E+00
         11   -1    0    0    0    0  0.00000000000E+00  0.00000000000E+00  0.39999999674E+01  0.40000000000E+01  0.51100000000E-03 0.  1.
    9000002   -1    0    0    0    0 -0.00000000000E+00 -0.00000000000E+00  0.00000000000E+00  0.93800000000E+00  0.93800000000E+00 0. -1.
         11    1    1    2    0    0 -0.66706509728E-02 -0.33551695431E+00  0.12671780966E+01  0.13108610582E+01  0.51100000000E-03 0.  1.
    9000002    1    1    2    0    0  0.63279442115E-01  0.43969492638E-01  0.65610853211E-01  0.94344389772E+00  0.93800000000E+00 0. -1.
         22    1    1    2    0    0 -0.56608791142E-01  0.29154746168E+00  0.26672110175E+01  0.26836950441E+01  0.00000000000E+00 0.  1.
</event>
<event>
 5    1  0.3005426E+001  0.1599571E+01  0.7818608E-02  0.3353829E+00
         11   -1    0    0    0    0  0.00000000000E+00  0.00000000000E+00  0.39999999674E+01  0.40000000000E+01  0.51100000000E-03 0.  1.
    9000002   -1    0    0    0    0 -0.00000000000E+00 -0.00000000000E+00  0.00000000000E+00  0.93800000000E+00  0.93800000000E+00 0. -1.
         11    1    1    2    0    0 -0.55491144769E-01 -0.24086556116E+00  0.14088732935E+01  0.14303914513E+01  0.51100000000E-03 0.  1.
    9000002    1    1    2    0    0  0.16745262013E+00  0.61158436756E+00  0.28277266641E+00  0.11669962294E+01  0.93800000000E+00 0. -1.
         22    1    1    2    0    0 -0.11196147536E+00 -0.37071880641E+00  0.23083540075E+01  0.23406123193E+01  0.00000000000E+00 0.  1.
</event>
<event>
 5    1  0.3005426E+001  0.1599213E+01  0.7818608E-02  0.3354218E+00
         11   -1    0    0    0    0  0.00000000000E+00  0.00000000000E+00  0.39999999674E+01  0.40000000000E+01  0.51100000000E-03 0. -1.
    9000002   -1    0    0    0    0 -0.00000000000E+00 -0.00000000000E+00  0.00000000000E+00  0.93800000000E+00  0.93800000000E+00 0. -1.
         11    1    1    2    0    0  0.61355003350E-01  0.13577999696E+00  0.13931189197E+01  0.14010643203E+01  0.51100000000E-03 0. -1.
    9000002    1    1    2    0    0 -0.15403842883E+00 -0.44266256443E+00  0.15003133883E+00  0.10592598294E+01  0.93800000000E+00 0. -1.
         22    1    1    2    0    0  0.92683425484E-01  0.30688256747E+00  0.24568497089E+01  0.24776758504E+01  0.00000000000E+00 0. -1.
</event>
<event>
 5    1  0.3005426E+001  0.1538886E+01  0.7818608E-02  0.3422488E+00
         11   -1    0    0    0    0  0.00000000000E+00  0.00000000000E+00  0.39999999674E+01  0.40000000000E+01  0.51100000000E-03 0. -1.
    9000002   -1    0    0    0    0 -0.00000000000E+00 -0.00000000000E+00  0.00000000000E+00  0.93800000000E+00  0.93800000000E+00 0. -1.
         11    1    1    2    0    0 -0.14114662187E+00 -0.18436580923E+00  0.13692343926E+01  0.13887822736E+01  0.51100000000E-03 0. -1.
    9000002    1    1    2    0    0 -0.11134454503E+00 -0.96578207121E-01  0.60598368502E-01  0.95144160097E+00  0.93800000000E+00 0. -1.
         22    1    1    2    0    0  0.25249116690E+00  0.28094401636E+00  0.25701672062E+01  0.25977761254E+01  0.00000000000E+00 0. -1.
</event>
<event>
 5    1  0.3005426E+001  0.1599642E+01  0.7818608E-02  0.3353752E+00
         11   -1    0    0    0    0  0.00000000000E+00  0.00000000000E+00  0.39999999674E+01  0.40000000000E+01  0.51100000000E-03 0. -1.
    9000002   -1    0    0    0    0 -0.00000000000E+00 -0.00000000000E+00  0.00000000000E+00  0.93800000000E+00  0.93800000000E+00 0.  1.
         11    1    1    2    0    0 -0.11557891258E+00 -0.22846962034E-01  0.85609479804E+00  0.86416377675E+00  0.51100000000E-03 0. -1.
    9000002    1    1    2    0    0  0.53501646965E+00  0.11455877088E+00  0.20669360015E+00  0.11054105930E+01  0.93800000000E+00 0.  1.
         22    1    1    2    0    0 -0.41943755707E+00 -0.91711808842E-01  0.29372115692E+01  0.29684256302E+01  0.00000000000E+00 0.  1.
</event>
<event>
 5    1  0.3005426E+001  0.1595565E+01  0.7818608E-02  0.3358191E+00
         11   -1    0    0    0    0  0.00000000000E+00  0.00000000000E+00  0.39999999674E+01  0.40000000000E+01  0.51100000000E-03 0. -1.
    9000002   -1    0    0    0    0 -0.00000000000E+00 -0.00000000000E+00  0.00000000000E+00  0.93800000000E+00  0.93800000000E+00 0.  1.
         11    1    1    2    0    0  0.97348451741E-01  0.11243265102E+00  0.73256110639E+00  0.74750508881E+00  0.51100000000E-03 0. -1.
    9000002    1    1    2    0    0 -0.28402653491E+00 -0.36358760683E+00  0.14841455183E+00  0.10558114887E+01  0.93800000000E+00 0.  1.
         22    1    1    2    0    0  0.18667808317E+00  0.25115495581E+00  0.31190243091E+01  0.31346834225E+01  0.00000000000E+00 0. -1.
</event>
<event>
 5    1  0.3005426E+001  0.1599068E+01  0.7818608E-02  0.3354375E+00
         11   -1    0    0    0    0  0.00000000000E+00  0.00000000000E+00  0.39999999674E+01  0.40000000000E+01  0.51100000000E-03 0.  1.
    9000002   -1    0    0    0    0 -0.00000000000E+00 -0.00000000000E+00  0.00000000000E+00  0.93800000000E+00  0.93800000000E+00 0. -1.
         11    1    1    2    0    0 -0.52853308650E-01 -0.19485997232E+00  0.10917272834E+01  0.11102398856E+01  0.51100000000E-03 0.  1.
    9000002    1    1    2    0    0  0.20215297192E+00  0.57630870330E+00  0.26145761590E+00  0.11494353529E+01  0.93800000000E+00 0. -1.
         22    1    1    2    0    0 -0.14929966327E+00 -0.38144873098E+00  0.26468150680E+01  0.26783247615E+01  0.00000000000E+00 0.  1.
</event>
<event>
 5    1  0.3005426E+001  0.1599677E+01  0.7818608E-02  0.3353714E+00
         11   -1    0    0    0    0  0.00000000000E+00  0.00000000000E+00  0.39999999674E+01  0.40000000000E+01  0.51100000000E-03 0. -1.
    9000002   -1    0    0    0    0 -0.00000000000E+00 -0.00000000000E+00  0.00000000000E+00  0.93800000000E+00  0.93800000000E+00 0.  1.
         11    1    1    2    0    0 -0.16303740558E-01 -0.17018437900E+00  0.10788762315E+01  0.10923381889E+01  0.51100000000E-03 0. -1.
    9000002    1    1    2    0    0  0.56169050315E-01  0.59369137223E+00  0.24792593020E+00  0.11388308367E+01  0.93800000000E+00 0.  1.
         22    1    1    2    0    0 -0.39865309756E-01 -0.42350699323E+00  0.26731978056E+01  0.27068309745E+01  0.00000000000E+00 0. -1.
</event>
<event>
 5    1  0.3005426E+001  0.1459218E+01  0.7818608E-02  0.3521933E+00
         11   -1    0    0    0    0  0.00000000000E+00  0.00000000000E+00  0.39999999674E+01  0.40000000000E+01  0.51100000000E-03 0. -1.
    9000002   -1    0    0    0    0 -0.00000000000E+00 -0.00000000000E+00  0.00000000000E+00  0.93800000000E+00  0.93800000000E+00 0. -1.
         11    1    1    2    0    0 -0.18361715243E-02  0.31561996812E+00  0.33131544020E+00  0.45759099405E+00  0.51100000000E-03 0. -1.
    9000002    1    1    2    0    0  0.58724422366E+00 -0.36333210944E+00  0.51682666756E+00  0.12742918835E+01  0.93800000000E+00 0. -1.
         22    1    1    2    0    0 -0.58540805214E+00  0.47712141327E-01  0.31518578596E+01  0.32061171225E+01  0.00000000000E+00 0. -1.
</event>
<event>
 5    1  0.3005426E+001  0.1599574E+01  0.7818608E-02  0.3353826E+00
         11   -1    0    0    0    0  0.00000000000E+00  0.00000000000E+00  0.39999999674E+01  0.40000000000E+01  0.51100000000E-03 0. -1.
    9000002   -1    0    0    0    0 -0.00000000000E+00 -0.00000000000E+00  0.00000000000E+00  0.93800000000E+00  0.93800000000E+00 0.  1.
         11    1    1    2    0    0 -0.89008979537E-01 -0.79138951902E-01  0.62306227547E+00  0.63434409619E+00  0.51100000000E-03 0. -1.
    9000002    1    1    2    0    0  0.52490854838E+00  0.51216227694E+00  0.38810395125E+00  0.12523209888E+01  0.93800000000E+00 0.  1.
         22    1    1    2    0    0 -0.43589956885E+00 -0.43302332503E+00  0.29888337406E+01  0.30513349150E+01  0.00000000000E+00 0. -1.
</event>
<event>
 5    1  0.3005426E+001  0.1477458E+01  0.7818608E-02  0.3498142E+00
         11   -1    0    0    0    0  0.00000000000E+00  0.00000000000E+00  0.39999999674E+01  0.40000000000E+01  0.51100000000E-03 0.  1.
    9000002   -1    0    0    0    0 -0.00000000000E+00 -0.00000000000E+00  0.00000000000E+00  0.93800000000E+00  0.93800000000E+00 0. -1.
         11    1    1    2    0    0  0.23821324404E-01  0.38472224387E+00  0.12660324878E+01  0.13234111915E+01  0.51100000000E-03 0.  1.
    9000002    1    1    2    0    0 -0.22647797899E+00  0.23481669241E-01  0.13342901274E+00  0.97441827015E+00  0.93800000000E+00 0. -1.
         22    1    1    2    0    0  0.20265665458E+00 -0.40820391312E+00  0.26005384668E+01  0.26401705384E+01  0.00000000000E+00 0.  1.
</event>
<event>
 5    1  0.3005426E+001  0.1599598E+01  0.7818608E-02  0.3353800E+00
         11   -1    0    0    0    0  0.00000000000E+00  0.00000000000E+00  0.39999999674E+01  0.40000000000E+01  0.51100000000E-03 0. -1.
    9000002   -1    0    0    0    0 -0.00000000000E+00 -0.00000000000E+00  0.00000000000E+00  0.93800000000E+00  0.93800000000E+00 0.  1.
         11    1    1    2    0    0 -0.10748758827E+00  0.12155713188E-01  0.81402395856E+00  0.82118001024E+00  0.51100000000E-03 0. -1.
    9000002    1    1    2    0    0  0.49759775592E+00 -0.16846562718E-01  0.16970365431E+00  0.10754211564E+01  0.93800000000E+00 0.  1.
         22    1    1    2    0    0 -0.39011016765E+00  0.46908495308E-02  0.30162723545E+01  0.30413988333E+01  0.00000000000E+00 0. -1.
</event>
<event>
 5    1  0.3005426E+001  0.1565144E+01  0.7818608E-02  0.3392086E+00
         11   -1    0    0    0    0  0.00000000000E+00  0.00000000000E+00  0.39999999674E+01  0.40000000000E+01  0.51100000000E-03 0. -1.
    9000002   -1    0    0    0    0 -0.00000000000E+00 -0.00000000000E+00  0.00000000000E+00  0.93800000000E+00  0.93800000000E+00 0.  1.
         11    1    1    2    0    0  0.59629401511E-01 -0.15748500283E+00  0.13811353861E+01  0.13913635066E+01  0.51100000000E-03 0. -1.
    9000002    1    1    2    0    0 -0.10265381523E+00 -0.15568699228E+00  0.49222672857E-01  0.95762368228E+00  0.93800000000E+00 0.  1.
         22    1    1    2    0    0  0.43024413721E-01  0.31317199511E+00  0.25696419084E+01  0.25890128111E+01  0.00000000000E+00 0. -1.
</event>
<event>
 5    1  0.3005426E+001  0.1599318E+01  0.7818608E-02  0.3354103E+00
         11   -1    0    0    0    0  0.00000000000E+00  0.00000000000E+00  0.39999999674E+01  0.40000000000E+01  0.51100000000E-03 0. -1.
    9000002   -1    0    0    0    0 -0.00000000000E+00 -0.00000000000E+00  0.00000000000E+00  0.93800000000E+00  0.93800000000E+00 0.  1.
         11    1    1    2    0    0 -0.78707584542E-01 -0.92897174456E-02  0.56209602812E+00  0.56765604785E+00  0.51100000000E-03 0. -1.
    9000002    1    1    2    0    0  0.50009151311E+00  0.16728030654E+00  0.19159451762E+00  0.10929897903E+01  0.93800000000E+00 0.  1.
         22    1    1    2    0    0 -0.42138392857E+00 -0.15799058909E+00  0.32463094216E+01  0.32773541619E+01  0.00000000000E+00 0. -1.
</event>
<event>
 5    1  0.3005426E+001  0.1599671E+01  0.7818608E-02  0.3353720E+00
         11   -1    0    0    0    0  0.00000000000E+00  0.00000000000E+00  0.39999999674E+01  0.40000000000E+01  0.51100000000E-03 0.  1.
    9000002   -1    0    0    0    0 -0.00000000000E+00 -0.00000000000E+00  0.00000000000E+00  0.93800000000E+00  0.93800000000E+00 0.  1.
         11    1    1    2    0    0 -0.80708017044E-01  0.28072488469E-01  0.86228650910E+00  0.86651031934E+00  0.51100000000E-03 0.  1.
    9000002    1    1    2    0    0  0.37443586014E+00 -0.13114343794E+00  0.10613061968E+00  0.10239670518E+01  0.93800000000E+00 0.  1.
         22    1    1    2    0    0 -0.29372784310E+00  0.10307094947E+00  0.30315828386E+01  0.30475226289E+01  0.00000000000E+00 0.  1.
</event>
<event>
 5    1  0.3005426E+001  0.1587290E+01  0.7818608E-02  0.3367274E+00
         11   -1    0    0    0    0  0.00000000000E+00  0.00000000000E+00  0.39999999674E+01  0.40000000000E+01  0.51100000000E-03 0. -1.
    9000002   -1    0    0    0    0 -0.00000000000E+00 -0.00000000000E+00  0.00000000000E+00  0.93800000000E+00  0.93800000000E+00 0.  1.
         11    1    1    2    0    0 -0.11892447905E+00  0.25720794014E-01  0.38483197672E+00  0.40360934379E+00  0.51100000000E-03 0. -1.
    9000002    1    1    2    0    0  0.43149789995E+00  0.44445649079E-01  0.13814124932E+00  0.10426374529E+01  0.93800000000E+00 0.  1.
         22    1    1    2    0    0 -0.31257342090E+00 -0.70166443093E-01  0.34770267413E+01  0.34917532033E+01  0.00000000000E+00 0. -1.
</event>
<event>
 5    1  0.3005426E+001  0.1547917E+01  0.7818608E-02  0.3411908E+00
         11   -1    0    0    0    0  0.00000000000E+00  0.00000000000E+00  0.39999999674E+01  0.40000000000E+01  0.51100000000E-03 0. -1.
    9000002   -1    0    0    0    0 -0.00000000000E+00 -0.00000000000E+00  0.00000000000E+00  0.93800000000E+00  0.93800000000E+00 0.  1.
         11    1    1    2    0    0  0.24725378647E+00  0.27276088884E-01  0.12366013253E+01  0.12613728707E+01  0.51100000000E-03 0. -1.
    9000002    1    1    2    0    0  0.18780270518E-01 -0.16405034238E+00  0.57406538159E-01  0.95415131086E+00  0.93800000000E+00 0.  1.
         22    1    1    2    0    0 -0.26603405699E+00  0.13677425349E+00  0.27059921039E+01  0.27224758185E+01  0.00000000000E+00 0. -1.
</event>
<event>
 5    1  0.3005426E+001  0.1478899E+01  0.7818608E-02  0.3496291E+00
         11   -1    0    0    0    0  0.00000000000E+00  0.00000000000E+00  0.39999999674E+01  0.40000000000E+01  0.51100000000E-03 0. -1.
    9000002   -1    0    0    0    0 -0.00000000000E+00 -0.00000000000E+00  0.00000000000E+00  0.93800000000E+00  0.93800000000E+00 0.  1.
         11    1    1    2    0    0  0.21323829832E+00 -0.36973125258E-01  0.34170200330E+00  0.40447262459E+00  0.51100000000E-03 0. -1.
    9000002    1    1    2    0    0  0.27785206882E+00 -0.21862151187E+00  0.18868261707E+00  0.10200207192E+01  0.93800000000E+00 0.  1.
         22    1    1    2    0    0 -0.49109036714E+00  0.25559463713E+00  0.34696153470E+01  0.35135066562E+01  0.00000000000E+00 0. -1.
</event>
<event>
 5    1  0.3005426E+001  0.1585740E+01  0.7818608E-02  0.3368988E+00
         11   -1    0    0    0    0  0.00000000000E+00  0.00000000000E+00  0.39999999674E+01  0.40000000000E+01  0.51100000000E-03 0.  1.
    9000002   -1    0    0    0    0 -0.00000000000E+00 -0.00000000000E+00  0.00000000000E+00  0.93800000000E+00  0.93800000000E+00 0. -1.
         11    1    1    2    0    0  0.21388475956E-01  0.46080778978E-01  0.23809882547E+00  0.24345886081E+00  0.51100000000E-03 0.  1.
    9000002    1    1    2    0    0  0.33394219949E+00  0.12632784651E+00  0.96899026246E-01  0.10083201568E+01  0.93800000000E+00 0. -1.
         22    1    1    2    0    0 -0.35533067544E+00 -0.17240862549E+00  0.36650021156E+01  0.36862209824E+01  0.00000000000E+00 0.  1.
</event>
<event>
 5    1  0.3005426E+001  0.1478914E+01  0.7818608E-02  0.3496271E+00
         11   -1    0    0    0    0  0.00000000000E+00  0.00000000000E+00  0.39999999674E+01  0.40000000000E+01  0.51100000000E-03 0. -1.
    9000002   -1    0    0    0    0 -0.00000000000E+00 -0.00000000000E+00  0.00000000000E+00  0.93800000000E+00  0.93800000000E+00 0.  1.
         11    1    1    2    0    0  0.25369604721E+00  0.34311733864E+00  0.13028702262E+01  0.13709712907E+01  0.51100000000E-03 0. -1.
    9000002    1    1    2    0    0 -0.12573480436E+00 -0.23843800722E-01  0.10536033223E+00  0.95253481168E+00  0.93800000000E+00 0.  1.
         22    1    1    2    0    0 -0.12796124285E+00 -0.31927353792E+00  0.25917694089E+01  0.26144938976E+01  0.00000000000E+00 0. -1.
</event>
<event>
 5    1  0.3005426E+001  0.1598735E+01  0.7818608E-02  0.3354737E+00
         11   -1    0    0    0    0  0.00000000000E+00  0.00000000000E+00  0.39999999674E+01  0.40000000000E+01  0.51100000000E-03 0.  1.
    9000002   -1    0    0    0    0 -0.00000000000E+00 -0.00000000000E+00  0.00000000000E+00  0.93800000000E+00  0.93800000000E+00 0.  1.
         11    1    1    2    0    0 -0.32244305980E-01  0.28017876501E-01  0.72970233686E+00  0.73095174821E+00  0.51100000000E-03 0.  1.
    9000002    1    1    2    0    0  0.15712491468E+00 -0.30438768594E+00  0.79369274868E-01  0.10017402777E+01  0.93800000000E+00 0.  1.
         22    1    1    2    0    0 -0.12488060870E+00  0.27636980944E+00  0.31909283556E+01  0.32053079741E+01  0.00000000000E+00 0.  1.
</event>
<event>
 5    1  0.3005426E+001  0.1599617E+01  0.7818608E-02  0.3353779E+00
         11   -1    0    0    0    0  0.00000000000E+00  0.00000000000E+00  0.39999999674E+01  0.40000000000E+01  0.51100000000E-03 0. -1.
    9000002   -1    0    0    0    0 -0.00000000000E+00 -0.00000000000E+00  0.00000000000E+00  0.93800000000E+00  0.93800000000E+00 0.  1.
         11    1    1    2    0    0  0.21822787751E-02 -0.62554726054E-02  0.51323176273E-01  0.51751548981E-01  0.51100000000E-03 0. -1.
    9000002    1    1    2    0    0 -0.65510760007E-01  0.35592648326E+00  0.87986255878E-01  0.10092377829E+01  0.93800000000E+00 0.  1.
         22    1    1    2    0    0  0.63328481232E-01 -0.34967101066E+00  0.38606905352E+01  0.38770106681E+01  0.00000000000E+00 0. -1.
</event>
<event>
 5    1  0.3005426E+001  0.1599554E+01  0.7818608E-02  0.3353848E+00
         11   -1    0    0    0    0  0.00000000000E+00  0.00000000000E+00  0.39999999674E+01  0.40000000000E+01  0.51100000000E-03 0. -1.
    9000002   -1    0    0    0    0 -0.00000000000E+00 -0.00000000000E+00  0.00000000000E+00  0.93800000000E+00  0.93800000000E+00 0. -1.
         11    1    1    2    0    0 -0.10941322572E+00  0.91843674334E-01  0.13128142482E+01  0.13205635258E+01  0.51100000000E-03 0. -1.
    9000002    1    1    2    0    0  0.30137608065E+00 -0.24332025272E+00  0.10114028290E+00  0.10198556977E+01  0.93800000000E+00 0. -1.
         22    1    1    2    0    0 -0.19196285494E+00  0.15147657839E+00  0.25860454363E+01  0.25975807764E+01  0.00000000000E+00 0. -1.
</event>
<event>
 5    1  0.3005426E+001  0.1599668E+01  0.7818608E-02  0.3353723E+00
         11   -1    0    0    0    0  0.00000000000E+00  0.00000000000E+00  0.39999999674E+01  0.40000000000E+01  0.51100000000E-03 0.  1.
    9000002   -1    0    0    0    0 -0.00000000000E+00 -0.00000000000E+00  0.00000000000E+00  0.93800000000E+00  0.93800000000E+00 0.  1.
         11    1    1    2    0    0 -0.13304937199E+00  0.82386253793E-01  0.12699617840E+01  0.12795674364E+01  0.51100000000E-03 0.  1.
    9000002    1    1    2    0    0  0.40944978402E+00 -0.25643187221E+00  0.15934489770E+00  0.10670713318E+01  0.93800000000E+00 0.  1.
         22    1    1    2    0    0 -0.27640041203E+00  0.17404561841E+00  0.25706932856E+01  0.25913612318E+01  0.00000000000E+00 0.  1.
</event>
<event>
 5    1  0.3005426E+001  0.1599608E+01  0.7818608E-02  0.3353789E+00
         11   -1    0    0    0    0  0.00000000000E+00  0.00000000000E+00  0.39999999674E+01  0.40000000000E+01  0.51100000000E-03 0.  1.
    9000002   -1    0    0    0    0 -0.00000000000E+00 -0.00000000000E+00  0.00000000000E+00  0.93800000000E+00  0.93800000000E+00 0.  1.
         11    1    1    2    0    0 -0.47955647239E-01  0.40453063171E-02  0.53119033803E+00  0.53336623904E+00  0.51100000000E-03 0.  1.
    9000002    1    1    2    0    0  0.36125882079E+00  0.19861148881E-01  0.87943774399E-01  0.10091979530E+01  0.93800000000E+00 0.  1.
         22    1    1    2    0    0 -0.31330317355E+00 -0.23906455199E-01  0.33808658549E+01  0.33954358080E+01  0.00000000000E+00 0.  1.
</event>
<event>
 5    1  0.3005426E+001  0.1489359E+01  0.7818608E-02  0.3482960E+00
         11   -1    0    0    0    0  0.00000000000E+00  0.00000000000E+00  0.39999999674E+01  0.40000000000E+01  0.51100000000E-03 0.  1.
    9000002   -1    0    0    0    0 -0.00000000000E+00 -0.00000000000E+00  0.00000000000E+00  0.93800000000E+00  0.93800000000E+00 0.  1.
         11    1    1    2    0    0 -0.20780689765E+00  0.20305462477E+00  0.68466465857E+00  0.74376128104E+00  0.51100000000E-03 0.  1.
    9000002    1    1    2    0    0 -0.12312587145E-02  0.13136376354E+00  0.97313026634E-01  0.95214063012E+00  0.93800000000E+00 0.  1.
         22    1    1    2    0    0  0.20903815636E+00 -0.33441838831E+00  0.32180222822E+01  0.32420980888E+01  0.00000000000E+00 0.  1.
</event>
<event>
 5    1  0.3005426E+001  0.1599626E+01  0.7818608E-02  0.3353770E+00
         11   -1    0    0    0    0  0.00000000000E+00  0.00000000000E+00  0.39999999674E+01  0.40000000000E+01  0.51100000000E-03 0.  1.
    9000002   -1    0    0    0    0 -0.00000000000E+00 -0.00000000000E+00  0.00000000000E+00  0.93800000000E+00  0.93800000000E+00 0. -1.
         11    1    1    2    0    0 -0.43709329408E-01  0.14678557478E+00  0.11151178661E+01  0.11255863480E+01  0.51100000000E-03 0.  1.
    9000002    1    1    2    0    0  0.15608404857E+00 -0.52519748628E+00  0.20731067621E+00  0.11059006946E+01  0.93800000000E+00 0. -1.
         22    1    1    2    0    0 -0.11237471916E+00  0.37841191150E+00  0.26775714250E+01  0.27065129574E+01  0.00000000000E+00 0.  1.
</event>
<event>
 5    1  0.3005426E+001  0.1599361E+01  0.7818608E-02  0.3354058E+00
         11   -1    0    0    0    0  0.00000000000E+00  0.00000000000E+00  0.39999999674E+01  0.40000000000E+01  0.51100000000E-03 0.  1.
    9000002   -1    0    0    0    0 -0.00000000000E+00 -0.00000000000E+00  0.00000000000E+00  0.93800000000E+00  0.93800000000E+00 0. -1.
         11    1    1    2    0    0 -0.22738866622E-01 -0.58052903531E-03  0.14517047390E+00  0.14694257614E+00  0.51100000000E-03 0.  1.
    9000002    1    1    2    0    0  0.39579526483E+00  0.61832029567E-01  0.10851666131E+00  0.10257177766E+01  0.93800000000E+00 0. -1.
         22    1    1    2    0    0 -0.37305639821E+00 -0.61251500532E-01  0.37463128322E+01  0.37653396472E+01  0.00000000000E+00 0.  1.
</event>
<event>
 5    1  0.3005426E+001  0.1597896E+01  0.7818608E-02  0.3355650E+00
         11   -1    0    0    0    0  0.00000000000E+00  0.00000000000E+00  0.39999999674E+01  0.40000000000E+01  0.51100000000E-03 0.  1.
    9000002   -1    0    0    0    0 -0.00000000000E+00 -0.00000000000E+00  0.00000000000E+00  0.93800000000E+00  0.93800000000E+00 0. -1.
         11    1    1    2    0    0  0.11525663742E+00 -0.74148056296E-01  0.13969516690E+01  0.14036581683E+01  0.51100000000E-03 0.  1.
    9000002    1    1    2    0    0 -0.37551728461E+00  0.32429617137E+00  0.17001717880E+00  0.10746771975E+01  0.93800000000E+00 0. -1.
         22    1    1    2    0    0  0.26026064719E+00 -0.25014811507E+00  0.24330311196E+01  0.24596646342E+01  0.00000000000E+00 0.  1.
</event>
<event>
 5    1  0.3005426E+001  0.1599281E+01  0.7818608E-02  0.3354144E+00
         11   -1    0    0    0    0  0.00000000000E+00  0.00000000000E+00  0.39999999674E+01  0.40000000000E+01  0.51100000000E-03 0. -1.
    9000002   -1    0    0    0    0 -0.00000000000E+00 -0.00000000000E+00  0.00000000000E+00  0.93800000000E+00  0.93800000000E+00 0.  1.
         11    1    1    2    0    0  0.19179295112E-01  0.15466325394E-01  0.40034989553E+00  0.40110765706E+00  0.51100000000E-03 0. -1.
    9000002    1    1    2    0    0 -0.28246419421E+00 -0.25585629657E+00  0.98067587407E-01  0.10172068213E+01  0.93800000000E+00 0.  1.
         22    1    1    2    0    0  0.26328489910E+00  0.24038997118E+00  0.35015824844E+01  0.35196855217E+01  0.00000000000E+00 0. -1.
</event>
<event>
 5    1  0.3005426E+001  0.1597644E+01  0.7818608E-02  0.3355924E+00
         11   -1    0    0    0    0  0.00000000000E+00  0.00000000000E+00  0.39999999674E+01  0.40000000000E+01  0.51100000000E-03 0.  1.
    9000002   -1    0    0    0    0 -0.00000000000E+00 -0.00000000000E+00  0.00000000000E+00  0.93800000000E+00  0.93800000000E+00 0.  1.
         11    1    1    2    0    0 -0.28050379928E-01 -0.45642384666E-01  0.20763843464E+00  0.21443887650E+00  0.51100000000E-03 0.  1.
    9000002    1    1    2    0    0  0.94662336098E-01  0.62413726993E+00  0.28206858720E+00  0.11652960900E+01  0.93800000000E+00 0.  1.
         22    1    1    2    0    0 -0.66611956170E-01 -0.57849488526E+00  0.35102929455E+01  0.35582650335E+01  0.00000000000E+00 0.  1.
</event>
<event>
 5    1  0.3005426E+001  0.1599671E+01  0.7818608E-02  0.3353720E+00
         11   -1    0    0    0    0  0.00000000000E+00  0.00000000000E+00  0.39999999674E+01  0.40000000000E+01  0.51100000000E-03 0. -1.
    9000002   -1    0    0    0    0 -0.00000000000E+00 -0.00000000000E+00  0.00000000000E+00  0.93800000000E+00  0.93800000000E+00 0.  1.
         11    1    1    2    0    0 -0.13373689748E+00  0.10205740069E+00  0.14343842207E+01  0.14442159204E+01  0.51100000000E-03 0. -1.
    9000002    1    1    2    0    0  0.36369552825E+00 -0.26831740810E+00  0.13878111741E+00  0.10504155689E+01  0.93800000000E+00 0.  1.
         22    1    1    2    0    0 -0.22995863077E+00  0.16626000741E+00  0.24268346292E+01  0.24433685108E+01  0.00000000000E+00 0. -1.
</event>
<event>
 5    1  0.3005426E+001  0.1597692E+01  0.7818608E-02  0.3355872E+00
         11   -1    0    0    0    0  0.00000000000E+00  0.00000000000E+00  0.39999999674E+01  0.40000000000E+01  0.51100000000E-03 0. -1.
    9000002   -1    0    0    0    0 -0.00000000000E+00 -0.00000000000E+00  0.00000000000E+00  0.93800000000E+00  0.93800000000E+00 0. -1.
         11    1    1    2    0    0 -0.23184998258E-01 -0.18171473401E+00  0.93438337972E+00  0.95217138695E+00  0.51100000000E-03 0. -1.
    9000002    1    1    2    0    0  0.27011895203E+00  0.68363511586E+00  0.39230183003E+00  0.12546178485E+01  0.93800000000E+00 0. -1.
         22    1    1    2    0    0 -0.24693395378E+00 -0.50192038185E+00  0.26733147576E+01  0.27312107646E+01  0.00000000000E+00 0. -1.
</event>
<event>
 5    1  0.3005426E+001  0.1584092E+01  0.7818608E-02  0.3370813E+00
         11   -1    0    0    0    0  0.00000000000E+00  0.00000000000E+00  0.39999999674E+01  0.40000000000E+01  0.51100000000E-03 0.  1.
    9000002   -1    0    0    0    0 -0.00000000000E+00 -0.00000000000E+00  0.00000000000E+00  0.93800000000E+00  0.93800000000E+00 0.  1.
         11    1    1    2    0    0 -0.26752372852E-01  0.90429911694E-01  0.77086573260E+00  0.77661283611E+00  0.51100000000E-03 0.  1.
    9000002    1    1    2    0    0  0.28185335530E+00  0.12957929675E+00  0.76627262452E-01  0.99093281578E+00  0.93800000000E+00 0.  1.
         22    1    1    2    0    0 -0.25510098245E+00 -0.22000920844E+00  0.31525069723E+01  0.31704543481E+01  0.00000000000E+00 0.  1.
</event>
<event>
 5    1  0.3005426E+001  0.1598324E+01  0.7818608E-02  0.3355184E+00
         11   -1    0    0    0    0  0.00000000000E+00  0.00000000000E+00  0.39999999674E+01  0.40000000000E+01  0.51100000000E-03 0. -1.
    9000002   -1    0    0    0    0 -0.00000000000E+00 -0.00000000000E+00  0.00000000000E+00  0.93800000000E+00  0.93800000000E+00 0. -1.
         11    1    1    2    0    0  0.62332606211E-01 -0.28517487958E-01  0.79190728698E+00  0.79486855090E+00  0.51100000000E-03 0. -1.
    9000002    1    1    2    0    0 -0.37191787910E+00 -0.22636553687E-01  0.94437192400E-01  0.10137049401E+01  0.93800000000E+00 0. -1.
         22    1    1    2    0    0  0.30958527288E+00  0.51154041645E-01  0.31136554880E+01  0.31294265090E+01  0.00000000000E+00 0. -1.
</event>
<event>
 5    1  0.3005426E+001  0.1599674E+01  0.7818608E-02  0.3353717E+00
         11   -1    0    0    0    0  0.00000000000E+00  0.00000000000E+00  0.39999999674E+01  0.40000000000E+01  0.51100000000E-03 0.  1.
    9000002   -1    0    0    0    0 -0.00000000000E+00 -0.00000000000E+00  0.00000000000E+00  0.93800000000E+00  0.93800000000E+00 0. -1.
         11    1    1    2    0    0  0.13845629411E+00  0.61091910414E-01  0.42788047431E+00  0.45385496396E+00  0.51100000000E-03 0.  1.
    9000002    1    1    2    0    0 -0.98510913455E+00 -0.43648138508E+00  0.98227653958E+00  0.17336860173E+01  0.93800000000E+00 0. -1.
         22    1    1    2    0    0  0.84665284044E+00  0.37538947467E+00  0.25898429535E+01  0.27504590187E+01  0.00000000000E+00 0.  1.
</event>
<event>
 5    1  0.3005426E+001  0.1599671E+01  0.7818608E-02  0.3353721E+00
         11   -1    0    0    0    0  0.00000000000E+00  0.00000000000E+00  0.39999999674E+01  0.40000000000E+01  0.51100000000E-03 0.  1.
    9000002   -1    0    0    0    0 -0.00000000000E+00 -0.00000000000E+00  0.00000000000E+00  0.93800000000E+00  0.93800000000E+00 0.  1.
         11    1    1    2    0    0  0.47617109706E-01  0.46711626285E-01  0.66467022914E+00  0.66800908661E+00  0.51100000000E-03 0.  1.
    9000002    1    1    2    0    0 -0.27489210176E+00 -0.28598591562E+00  0.10609821288E+00  0.10239406439E+01  0.93800000000E+00 0.  1.
         22    1    1    2    0    0  0.22727499206E+00  0.23927428933E+00  0.32292315253E+01  0.32460502694E+01  0.00000000000E+00 0.  1.
</event>
<event>
 5    1  0.3005426E+001  0.1599672E+01  0.7818608E-02  0.3353720E+00
         11   -1    0    0    0    0  0.00000000000E+00  0.00000000000E+00  0.39999999674E+01  0.40000000000E+01  0.51100000000E-03 0.  1.
    9000002   -1    0    0    0    0 -0.00000000000E+00 -0.00000000000E+00  0.00000000000E+00  0.93800000000E+00  0.93800000000E+00 0. -1.
         11    1    1    2    0    0 -0.19982324032E-01  0.11852756625E+00  0.13075017716E+01  0.13130153164E+01  0.51100000000E-03 0.  1.
    9000002    1    1    2    0    0  0.67482958761E-01 -0.35569598616E+00  0.88009491519E-01  0.10092884894E+01  0.93800000000E+00 0. -1.
         22    1    1    2    0    0 -0.47500634729E-01  0.23716841991E+00  0.26044887043E+01  0.26156961942E+01  0.00000000000E+00 0.  1.
</event>
<event>
 5    1  0.3005426E+001  0.1599634E+01  0.7818608E-02  0.3353761E+00
         11   -1    0    0    0    0  0.00000000000E+00  0.00000000000E+00  0.39999999674E+01  0.40000000000E+01  0.51100000000E-03 0. -1.
    9000002   -1    0    0    0    0 -0.00000000000E+00 -0.00000000000E+00  0.00000000000E+00  0.93800000000E+00  0.93800000000E+00 0.  1.
         11    1    1    2    0    0 -0.22215811481E-02 -0.14916279359E+00  0.10525311008E+01  0.10630505415E+01  0.51100000000E-03 0. -1.
    9000002    1    1    2    0    0 -0.18947823508E-02  0.55976928489E+00  0.21687542319E+00  0.11136535331E+01  0.93800000000E+00 0.  1.
         22    1    1    2    0    0  0.41163634989E-02 -0.41060649130E+00  0.27305934434E+01  0.27612959255E+01  0.00000000000E+00 0. -1.
</event>
<event>
 5    1  0.3005426E+001  0.1599673E+01  0.7818608E-02  0.3353718E+00
         11   -1    0    0    0    0  0.00000000000E+00  0.00000000000E+00  0.39999999674E+01  0.40000000000E+01  0.51100000000E-03 0.  1.
    9000002   -1    0    0    0    0 -0.00000000000E+00 -0.00000000000E+00  0.00000000000E+00  0.93800000000E+00  0.93800000000E+00 0.  1.
         11    1    1    2    0    0  0.12480802498E+00 -0.17415521968E+00  0.14667992429E+01  0.14823654623E+01  0.51100000000E-03 0.  1.
    9000002    1    1    2    0    0 -0.31972315710E+00  0.45486617895E+00  0.21376197775E+00  0.11111544992E+01  0.93800000000E+00 0.  1.
         22    1    1    2    0    0  0.19491513212E+00 -0.28071095927E+00  0.23194387467E+01  0.23444800385E+01  0.00000000000E+00 0.  1.
</event>
<event>
 5    1  0.3005426E+001  0.1595509E+01  0.7818608E-02  0.3358252E+00
         11   -1    0    0    0    0  0.00000000000E+00  0.00000000000E+00  0.39999999674E+01  0.40000000000E+01  0.51100000000E-03 0. -1.
    9000002   -1    0    0    0    0 -0.00000000000E+00 -0.00000000000E+00  0.00000000000E+00  0.93800000000E+00  0.93800000000E+00 0. -1.
         11    1    1    2    0    0  0.30241157360E-02 -0.95429998086E-02  0.25467330644E+00  0.25487049311E+00  0.51100000000E-03 0. -1.
    9000002    1    1    2    0    0  0.91051039168E-01 -0.42451821499E+00  0.13130234242E+00  0.10419166530E+01  0.93800000000E+00 0. -1.
         22    1    1    2    0    0 -0.94075154904E-01  0.43406121480E+00  0.36140243185E+01  0.36412128539E+01  0.00000000000E+00 0. -1.
</event>
<event>
 5    1  0.3005426E+001  0.1599599E+01  0.7818608E-02  0.3353799E+00
         11   -1    0    0    0    0  0.00000000000E+00  0.00000000000E+00  0.39999999674E+01  0.40000000000E+01  0.51100000000E-03 0. -1.
    9000002   -1    0    0    0    0 -0.00000000000E+00 -0.00000000000E+00  0.00000000000E+00  0.93800000000E+00  0.93800000000E+00 0. -1.
         11    1    1    2    0    0  0.12685105488E+00  0.12503381681E+00  0.10016983871E+01  0.10174107162E+01  0.51100000000E-03 0. -1.
    9000002    1    1    2    0    0 -0.44319612304E+00 -0.44348193499E+00  0.27598136959E+00  0.11615114061E+01  0.93800000000E+00 0. -1.
         22    1    1    2    0    0  0.31634506816E+00  0.31844811818E+00  0.27223202106E+01  0.27590778777E+01  0.00000000000E+00 0. -1.
</event>
<event>
 5    1  0.3005426E+001  0.1599673E+01  0.7818608E-02  0.3353719E+00
         11   -1    0    0    0    0  0.00000000000E+00  0.00000000000E+00  0.39999999674E+01  0.40000000000E+01  0.51100000000E-03 0. -1.
    9000002   -1    0    0    0    0 -0.00000000000E+00 -0.00000000000E+00  0.00000000000E+00  0.93800000000E+00  0.93800000000E+00 0.  1.
         11    1    1    2    0    0 -0.11059690956E+00  0.14661186544E-01  0.63848626557E+00  0.64816016481E+00  0.51100000000E-03 0. -1.
    9000002    1    1    2    0    0  0.63251721786E+00 -0.86478832491E-01  0.28680753316E+00  0.11703243911E+01  0.93800000000E+00 0.  1.
         22    1    1    2    0    0 -0.52192030830E+00  0.71817645947E-01  0.30747061686E+01  0.31195154441E+01  0.00000000000E+00 0. -1.
</event>
<event>
 5    1  0.3005426E+001  0.1598474E+01  0.7818608E-02  0.3355021E+00
         11   -1    0    0    0    0  0.00000000000E+00  0.00000000000E+00  0.39999999674E+01  0.40000000000E+01  0.51100000000E-03 0.  1.
    9000002   -1    0    0    0    0 -0.00000000000E+00 -0.00000000000E+00  0.00000000000E+00  0.93800000000E+00  0.93800000000E+00 0. -1.
         11    1    1    2    0    0  0.14428096708E+00  0.93236578095E-01  0.13919554204E+01  0.14025156721E+01  0.51100000000E-03 0.  1.
    9000002    1    1    2    0    0 -0.37591744675E+00 -0.15174946187E+00  0.11193427651E+00  0.10279664918E+01  0.93800000000E+00 0. -1.
         22    1    1    2    0    0  0.23163647968E+00  0.58512883770E-01  0.24961102705E+01  0.25075178362E+01  0.00000000000E+00 0.  1.
</event>
<event>
 5    1  0.3005426E+001  0.1599656E+01  0.7818608E-02  0.3353736E+00
         11   -1    0    0    0    0  0.00000000000E+00  0.00000000000E+00  0.39999999674E+01  0.40000000000E+01  0.51100000000E-03 0. -1.
    9000002   -1    0    0    0    0 -0.00000000000E+00 -0.00000000000E+00  0.00000000000E+00  0.93800000000E+00  0.93800000000E+00 0.  1.
         11    1    1    2    0    0 -0.75214291486E-01 -0.10913983551E+00  0.13608371449E+01  0.13672771077E+01  0.51100000000E-03 0. -1.
    9000002    1    1    2    0    0  0.22015980983E+00  0.32658006397E+00  0.10457018868E+00  0.10226943847E+01  0.93800000000E+00 0.  1.
         22    1    1    2    0    0 -0.14494551834E+00 -0.21744022846E+00  0.25345926338E+01  0.25480285076E+01  0.00000000000E+00 0. -1.
</event>
<event>
 5    1  0.3005426E+001  0.1592200E+01  0.7818608E-02  0.3361873E+00
         11   -1    0    0    0    0  0.00000000000E+00  0.00000000000E+00  0.39999999674E+01  0.40000000000E+01  0.51100000000E-03 0.  1.
    9000002   -1    0    0    0    0 -0.00000000000E+00 -0.00000000000E+00  0.00000000000E+00  0.93800000000E+00  0.93800000000E+00 0.  1.
         11    1    1    2    0    0 -0.72164010996E-01  0.78698915280E-01  0.13436489550E+01  0.13478849873E+01  0.51100000000E-03 0.  1.
    9000002    1    1    2    0    0  0.30628828432E+00  0.42418103725E-01  0.69743815554E-01  0.99011110914E+00  0.93800000000E+00 0.  1.
         22    1    1    2    0    0 -0.23412427333E+00 -0.12111701900E+00  0.25866071968E+01  0.26000039035E+01  0.00000000000E+00 0.  1.
</event>
<event>
 5    1  0.3005426E+001  0.1599676E+01  0.7818608E-02  0.3353715E+00
         11   -1    0    0    0    0  0.00000000000E+00  0.00000000000E+00  0.39999999674E+01  0.40000000000E+01  0.51100000000E-03 0. -1.
    9000002   -1    0    0    0    0 -0.00000000000E+00 -0.00000000000E+00  0.00000000000E+00  0.93800000000E+00  0.93800000000E+00 0. -1.
         11    1    1    2    0    0 -0.42778051963E-01 -0.49987776725E-01  0.41316763657E+00  0.41837363275E+00  0.51100000000E-03 0.  1.
    9000002    1    1    2    0    0  0.38664068789E+00  0.45707765226E+00  0.24999275541E+00  0.11405048792E+01  0.93800000000E+00 0.  1.
         22    1    1    2    0    0 -0.34386263592E+00 -0.40708987553E+00  0.33368395754E+01  0.33791214880E+01  0.00000000000E+00 0. -1.
</event>
<event>
 5    1  0.3005426E+001  0.1497260E+01  0.7818608E-02  0.3473025E+00
         11   -1    0    0    0    0  0.00000000000E+00  0.00000000000E+00  0.39999999674E+01  0.40000000000E+01  0.51100000000E-03 0. -1.
    9000002   -1    0    0    0    0 -0.00000000000E+00 -0.00000000000E+00  0.00000000000E+00  0.93800000000E+00  0.93800000000E+00 0. -1.
         11    1    1    2    0    0  0.85431270194E-01 -0.16675620161E+00  0.25768535956E+00  0.31860341862E+00  0.51100000000E-03 0. -1.
    9000002    1    1    2    0    0 -0.19576390103E+00 -0.30305593633E+00  0.17564527937E+00  0.10202262836E+01  0.93800000000E+00 0. -1.
         22    1    1    2    0    0  0.11033263083E+00  0.46981213795E+00  0.35666693284E+01  0.35991702978E+01  0.00000000000E+00 0. -1.
</event>
<event>
 5    1  0.3005426E+001  0.1597462E+01  0.7818608E-02  0.3356123E+00
         11   -1    0    0    0    0  0.00000000000E+00  0.00000000000E+00  0.39999999674E+01  0.40000000000E+01  0.51100000000E-03 0. -1.
    9000002   -1    0    0    0    0 -0.00000000000E+00 -0.00000000000E+00  0.00000000000E+00  0.93800000000E+00  0.93800000000E+00 0. -1.
         11    1    1    2    0    0  0.11565227561E-01 -0.29126531158E-01  0.94594861828E-01  0.99652186685E-01  0.51100000000E-03 0. -1.
    9000002    1    1    2    0    0 -0.83525633248E+00  0.51335736996E+00  0.76896187570E+00  0.15595945936E+01  0.93800000000E+00 0. -1.
         22    1    1    2    0    0  0.82369110492E+00 -0.48423083880E+00  0.31364432298E+01  0.32787532197E+01  0.00000000000E+00 0. -1.
</event>
<event>
 5    1  0.3005426E+001  0.1599673E+01  0.7818608E-02  0.3353718E+00
         11   -1    0    0    0    0  0.00000000000E+00  0.00000000000E+00  0.39999999674E+01  0.40000000000E+01  0.51100000000E-03 0. -1.
    9000002   -1    0    0    0    0 -0.00000000000E+00 -0.00000000000E+00  0.00000000000E+00  0.93800000000E+00  0.93800000000E+00 0. -1.
         11    1    1    2    0    0 -0.32093662961E+00  0.12960929855E+00  0.41641727270E+00  0.54148176019E+00  0.51100000000E-03 0. -1.
    9000002    1    1    2    0    0  0.11966813213E+01 -0.47584131229E+00  0.24548959438E+01  0.29265729504E+01  0.93800000000E+00 0. -1.
         22    1    1    2    0    0 -0.87574469165E+00  0.34623201374E+00  0.11286867509E+01  0.14699452894E+01  0.00000000000E+00 0. -1.
</event>
<event>
 5    1  0.3005426E+001  0.1599523E+01  0.7818608E-02  0.3353881E+00
         11   -1    0    0    0    0  0.00000000000E+00  0.00000000000E+00  0.39999999674E+01  0.40000000000E+01  0.51100000000E-03 0.  1.
    9000002   -1    0    0    0    0 -0.00000000000E+00 -0.00000000000E+00  0.00000000000E+00  0.93800000000E+00  0.93800000000E+00 0.  1.
         11    1    1    2    0    0  0.16491120478E+00 -0.41798268239E+00  0.10690179056E+01  0.11596140616E+01  0.51100000000E-03 0.  1.
    9000002    1    1    2    0    0 -0.39170598350E+00  0.10952807815E+01  0.12366113520E+01  0.19396198606E+01  0.93800000000E+00 0.  1.
         22    1    1    2    0    0  0.22679477872E+00 -0.67729809909E+00  0.16943707098E+01  0.18387660778E+01  0.00000000000E+00 0.  1.
</event>
<event>
 5    1  0.3005426E+001  0.1597216E+01  0.7818608E-02  0.3356391E+00
         11   -1    0    0    0    0  0.00000000000E+00  0.00000000000E+00  0.39999999674E+01  0.40000000000E+01  0.51100000000E-03 0. -1.
    9000002   -1    0    0    0    0 -0.00000000000E+00 -0.00000000000E+00  0.00000000000E+00  0.93800000000E+00  0.93800000000E+00 0. -1.
         11    1    1    2    0    0  0.15643235098E+00 -0.89379165323E-01  0.13754075698E+01  0.13871575108E+01  0.51100000000E-03 0. -1.
    9000002    1    1    2    0    0 -0.29058101271E+00  0.31021845020E+00  0.12436229101E+00  0.10372959034E+01  0.93800000000E+00 0. -1.
         22    1    1    2    0    0  0.13414866173E+00 -0.22083928488E+00  0.25002301065E+01  0.25135465858E+01  0.00000000000E+00 0. -1.
</event>
<event>
 5    1  0.3005426E+001  0.1457034E+01  0.7818608E-02  0.3524826E+00
         11   -1    0    0    0    0  0.00000000000E+00  0.00000000000E+00  0.39999999674E+01  0.40000000000E+01  0.51100000000E-03 0. -1.
    9000002   -1    0    0    0    0 -0.00000000000E+00 -0.00000000000E+00  0.00000000000E+00  0.93800000000E+00  0.93800000000E+00 0.  1.
         11    1    1    2    0    0  0.29979956607E+00 -0.10274687298E+00  0.44043761662E+00  0.54260690650E+00  0.51100000000E-03 0. -1.
    9000002    1    1    2    0    0  0.65683091120E-01  0.12625608467E+00  0.14323009698E+00  0.95948617919E+00  0.93800000000E+00 0.  1.
         22    1    1    2    0    0 -0.36548265719E+00 -0.23509211692E-01  0.34163322538E+01  0.34359069143E+01  0.00000000000E+00 0. -1.
</event>
<event>
 5    1  0.3249728E+001  0.1597971E+01  0.7818608E-02  0.3355568E+00
         11   -1    0    0    0    0  0.00000000000E+00  0.00000000000E+00  0.39999999674E+01  0.40000000000E+01  0.51100000000E-03 0.  1.
    9000002   -1    0    0    0    0 -0.00000000000E+00 -0.00000000000E+00  0.00000000000E+00  0.93800000000E+00  0.93800000000E+00 0.  1.
         11    1    1    2    0    0 -0.22164082412E-01  0.45229634764E-01  0.12469784975E+01  0.12479954330E+01  0.51100000000E-03 0.  1.
    9000002    1    1    2    0    0  0.15597574105E+00 -0.26115151801E+00  0.63090337995E-01  0.98810573215E+00  0.93800000000E+00 0.  1.
         22    1    1    2    0    0 -0.13381165864E+00  0.21592188325E+00  0.26899311319E+01  0.27018988349E+01  0.00000000000E+00 0.  1.
</event>
<event>
 5    1  0.3005426E+001  0.1583440E+01  0.7818608E-02  0.3371536E+00
         11   -1    0    0    0    0  0.00000000000E+00  0.00000000000E+00  0.39999999674E+01  0.40000000000E+01  0.51100000000E-03 0. -1.
    9000002   -1    0    0    0    0 -0.00000000000E+00 -0.00000000000E+00  0.00000000000E+00  0.93800000000E+00  0.93800000000E+00 0.  1.
         11    1    1    2    0    0  0.17334566240E-01  0.45147754466E-01  0.12870766107E+01  0.12879849650E+01  0.51100000000E-03 0. -1.
    9000002    1    1    2    0    0  0.35054063040E+00 -0.29661760850E+00  0.15767636006E+00  0.10562038505E+01  0.93800000000E+00 0.  1.
         22    1    1    2    0    0 -0.36787519664E+00  0.25146985404E+00  0.25552469966E+01  0.25938111846E+01  0.00000000000E+00 0. -1.
</event>
<event>
 5    1  0.3005426E+001  0.1596822E+01  0.7818608E-02  0.3356820E+00
         11   -1    0    0    0    0  0.00000000000E+00  0.00000000000E+00  0.39999999674E+01  0.40000000000E+01  0.51100000000E-03 0.  1.
    9000002   -1    0    0    0    0 -0.00000000000E+00 -0.00000000000E+00  0.00000000000E+00  0.93800000000E+00  0.93800000000E+00 0. -1.
         11    1    1    2    0    0 -0.18611234154E+00  0.11587806889E+00  0.11776880206E+01  0.11979210598E+01  0.51100000000E-03 0.  1.
    9000002    1    1    2    0    0  0.42890643586E+00 -0.28806420000E+00  0.18587461884E+00  0.10868923994E+01  0.93800000000E+00 0. -1.
         22    1    1    2    0    0 -0.24279409432E+00  0.17218613110E+00  0.26364373280E+01  0.26531865408E+01  0.00000000000E+00 0.  1.
</event>
<event>
 5    1  0.3005426E+001  0.1599677E+01  0.7818608E-02  0.3353714E+00
         11   -1    0    0    0    0  0.00000000000E+00  0.00000000000E+00  0.39999999674E+01  0.40000000000E+01  0.51100000000E-03 0.  1.
    9000002   -1    0    0    0    0 -0.00000000000E+00 -0.00000000000E+00  0.00000000000E+00  0.93800000000E+00  0.93800000000E+00 0.  1.
         11    1    1    2    0    0 -0.16588600614E+00  0.10636575100E+00  0.11582923860E+01  0.11749354674E+01  0.51100000000E-03 0.  1.
    9000002    1    1    2    0    0  0.53368131121E+00 -0.34139528823E+00  0.28212812757E+00  0.11665362254E+01  0.93800000000E+00 0.  1.
         22    1    1    2    0    0 -0.36779530507E+00  0.23502953723E+00  0.25595794538E+01  0.25965283072E+01  0.00000000000E+00 0.  1.
</event>
<event>
 5    1  0.3005426E+001  0.1740103E+01  0.7818608E-02  0.3214064E+00
         11   -1    0    0    0    0  0.00000000000E+00  0.00000000000E+00  0.39999999674E+01  0.40000000000E+01  0.51100000000E-03 0.  1.
    9000002   -1    0    0    0    0 -0.00000000000E+00 -0.00000000000E+00  0.00000000000E+00  0.93800000000E+00  0.93800000000E+00 0.  1.
         11    1    1    2    0    0  0.34477165996E+00 -0.44434907092E+00  0.90772114571E+00  0.10678349750E+01  0.51100000000E-03 0.  1.
    9000002    1    1    2    0    0  0.56391631518E+00 -0.27698643895E+00  0.11771805317E+01  0.16310490802E+01  0.93800000000E+00 0.  1.
         22    1    1    2    0    0 -0.90868797514E+00  0.72133550987E+00  0.19150982900E+01  0.22391159448E+01  0.00000000000E+00 0.  1.
</event>
<event>
 5    1  0.3005426E+001  0.1598502E+01  0.7818608E-02  0.3354991E+00
         11   -1    0    0    0    0  0.00000000000E+00  0.00000000000E+00  0.39999999674E+01  0.40000000000E+01  0.51100000000E-03 0. -1.
    9000002   -1    0    0    0    0 -0.00000000000E+00 -0.00000000000E+00  0.00000000000E+00  0.93800000000E+00  0.93800000000E+00 0.  1.
         11    1    1    2    0    0  0.29394651205E+00 -0.82309711055E-01  0.11138766824E+01  0.11549463040E+01  0.51100000000E-03 0. -1.
    9000002    1    1    2    0    0 -0.82570902838E+00  0.34686168330E+00  0.61458995838E+00  0.14351561740E+01  0.93800000000E+00 0.  1.
         22    1    1    2    0    0  0.53176251633E+00 -0.26455197224E+00  0.22715333266E+01  0.23478975220E+01  0.00000000000E+00 0.  1.
</event>
<event>
 5    1  0.3005426E+001  0.1599282E+01  0.7818608E-02  0.3354143E+00
         11   -1    0    0    0    0  0.00000000000E+00  0.00000000000E+00  0.39999999674E+01  0.40000000000E+01  0.51100000000E-03 0. -1.
    9000002   -1    0    0    0    0 -0.00000000000E+00 -0.00000000000E+00  0.00000000000E+00  0.93800000000E+00  0.93800000000E+00 0. -1.
         11    1    1    2    0    0  0.25761451689E-01 -0.95869583573E-01  0.75542189759E+00  0.76191675000E+00  0.51100000000E-03 0. -1.
    9000002    1    1    2    0    0 -0.10954690453E+00  0.39777380898E+00  0.11534027618E+00  0.10311992566E+01  0.93800000000E+00 0. -1.
         22    1    1    2    0    0  0.83785452838E-01 -0.30190422541E+00  0.31292377936E+01  0.31448839934E+01  0.00000000000E+00 0. -1.
</event>
<event>
 5    1  0.3005426E+001  0.1599658E+01  0.7818608E-02  0.3353734E+00
         11   -1    0    0    0    0  0.00000000000E+00  0.00000000000E+00  0.39999999674E+01  0.40000000000E+01  0.51100000000E-03 0.  1.
    9000002   -1    0    0    0    0 -0.00000000000E+00 -0.00000000000E+00  0.00000000000E+00  0.93800000000E+00  0.93800000000E+00 0.  1.
         11    1    1    2    0    0  0.12856847490E-01  0.12879977751E+00  0.12625203233E+01  0.12691384909E+01  0.51100000000E-03 0.  1.
    9000002    1    1    2    0    0 -0.26198977607E-01 -0.39091629337E+00  0.10344780720E+00  0.10217863689E+01  0.93800000000E+00 0.  1.
         22    1    1    2    0    0  0.13342130116E-01  0.26211651586E+00  0.26340318368E+01  0.26470751402E+01  0.00000000000E+00 0.  1.
</event>
<event>
 5    1  0.3005426E+001  0.1599651E+01  0.7818608E-02  0.3353742E+00
         11   -1    0    0    0    0  0.00000000000E+00  0.00000000000E+00  0.39999999674E+01  0.40000000000E+01  0.51100000000E-03 0. -1.
    9000002   -1    0    0    0    0 -0.00000000000E+00 -0.00000000000E+00  0.00000000000E+00  0.93800000000E+00  0.93800000000E+00 0. -1.
         11    1    1    2    0    0  0.59228101796E-01  0.12141352381E-01  0.46061564451E+00  0.46456690968E+00  0.51100000000E-03 0. -1.
    9000002    1    1    2    0    0 -0.50254795478E+00 -0.69677610722E-01  0.17645445302E+00  0.10809207142E+01  0.93800000000E+00 0. -1.
         22    1    1    2    0    0  0.44331985299E+00  0.57536258340E-01  0.33629298698E+01  0.33925123762E+01  0.00000000000E+00 0. -1.
</event>
<event>
 5    1  0.3005426E+001  0.1599664E+01  0.7818608E-02  0.3353728E+00
         11   -1    0    0    0    0  0.00000000000E+00  0.00000000000E+00  0.39999999674E+01  0.40000000000E+01  0.51100000000E-03 0.  1.
    9000002   -1    0    0    0    0 -0.00000000000E+00 -0.00000000000E+00  0.00000000000E+00  0.93800000000E+00  0.93800000000E+00 0.  1.
         11    1    1    2    0    0  0.59863476791E-01  0.33994137880E-01  0.64060814475E+00  0.64429674336E+00  0.51100000000E-03 0.  1.
    9000002    1    1    2    0    0 -0.37603418160E+00 -0.19182451311E+00  0.12056248497E+00  0.10356532539E+01  0.93800000000E+00 0.  1.
         22    1    1    2    0    0  0.31617070481E+00  0.15783037523E+00  0.32388293376E+01  0.32580500027E+01  0.00000000000E+00 0.  1.
</event>
<event>
 5    1  0.3005426E+001  0.1592488E+01  0.7818608E-02  0.3361557E+00
         11   -1    0    0    0    0  0.00000000000E+00  0.00000000000E+00  0.39999999674E+01  0.40000000000E+01  0.51100000000E-03 0. -1.
    9000002   -1    0    0    0    0 -0.00000000000E+00 -0.00000000000E+00  0.00000000000E+00  0.93800000000E+00  0.93800000000E+00 0. -1.
         11    1    1    2    0    0 -0.33964367967E-01 -0.13106825894E+00  0.56152131958E+00  0.57761485460E+00  0.51100000000E-03 0. -1.
    9000002    1    1    2    0    0  0.75677939716E-01  0.42651447201E+00  0.13328820008E+00  0.10417540447E+01  0.93800000000E+00 0. -1.
         22    1    1    2    0    0 -0.41713571749E-01 -0.29544621307E+00  0.33051904477E+01  0.33186311007E+01  0.00000000000E+00 0. -1.
</event>
<event>
 5    1  0.3005426E+001  0.1599660E+01  0.7818608E-02  0.3353732E+00
         11   -1    0    0    0    0  0.00000000000E+00  0.00000000000E+00  0.39999999674E+01  0.40000000000E+01  0.51100000000E-03 0.  1.
    9000002   -1    0    0    0    0 -0.00000000000E+00 -0.00000000000E+00  0.00000000000E+00  0.93800000000E+00  0.93800000000E+00 0.  1.
         11    1    1    2    0    0  0.54715612326E-01  0.20430571221E-01  0.65024152187E+00  0.65285948286E+00  0.51100000000E-03 0.  1.
    9000002    1    1    2    0    0 -0.35009391542E+00 -0.11693997762E+00  0.91563088627E-01  0.10121603169E+01  0.93800000000E+00 0.  1.
         22    1    1    2    0    0  0.29537830309E+00  0.96509406399E-01  0.32581953569E+01  0.32729802002E+01  0.00000000000E+00 0.  1.
</event>
<event>
 5    1  0.3005426E+001  0.1598102E+01  0.7818608E-02  0.3355426E+00
         11   -1    0    0    0    0  0.00000000000E+00  0.00000000000E+00  0.39999999674E+01  0.40000000000E+01  0.51100000000E-03 0.  1.
    9000002   -1    0    0    0    0 -0.00000000000E+00 -0.00000000000E+00  0.00000000000E+00  0.93800000000E+00  0.93800000000E+00 0.  1.
         11    1    1    2    0    0 -0.53868866313E-02  0.12614067601E-02  0.86654658278E-01  0.86832601118E-01  0.51100000000E-03 0.  1.
    9000002    1    1    2    0    0 -0.17505942598E+00 -0.52581355607E+00  0.21379543982E+00  0.11102604147E+01  0.93800000000E+00 0.  1.
         22    1    1    2    0    0  0.18044631261E+00  0.52455214931E+00  0.36995498693E+01  0.37409069842E+01  0.00000000000E+00 0.  1.
</event>
<event>
 5    1  0.4245834E+001  0.1599356E+01  0.7818608E-02  0.3354063E+00
         11   -1    0    0    0    0  0.00000000000E+00  0.00000000000E+00  0.39999999674E+01  0.40000000000E+01  0.51100000000E-03 0. -1.
    9000002   -1    0    0    0    0 -0.00000000000E+00 -0.00000000000E+00  0.00000000000E+00  0.93800000000E+00  0.93800000000E+00 0.  1.
         11    1    1    2    0    0  0.14023335215E+00  0.28287411132E+00  0.14663455724E+01  0.14999509175E+01  0.51100000000E-03 0. -1.
    9000002    1    1    2    0    0 -0.34132249982E+00 -0.73085381339E+00  0.48078830730E+00  0.13272715404E+01  0.93800000000E+00 0.  1.
         22    1    1    2    0    0  0.20108914767E+00  0.44797970207E+00  0.20528660876E+01  0.21107775422E+01  0.00000000000E+00 0. -1.
</event>
<event>
 5    1  0.3005426E+001  0.1592855E+01  0.7818608E-02  0.3361154E+00
         11   -1    0    0    0    0  0.00000000000E+00  0.00000000000E+00  0.39999999674E+01  0.40000000000E+01  0.51100000000E-03 0.  1.
    9000002   -1    0    0    0    0 -0.00000000000E+00 -0.00000000000E+00  0.00000000000E+00  0.93800000000E+00  0.93800000000E+00 0.  1.
         11    1    1    2    0    0  0.88529530567E-01 -0.92573002465E-01  0.38680196408E+00  0.40745951836E+00  0.51100000000E-03 0.  1.
    9000002    1    1    2    0    0 -0.32599301714E+00  0.58394999903E+00  0.32445399753E+00  0.11968222279E+01  0.93800000000E+00 0.  1.
         22    1    1    2    0    0  0.23746348658E+00 -0.49137699657E+00  0.32887440057E+01  0.33337182538E+01  0.00000000000E+00 0.  1.
</event>
<event>
 5    1  0.3005426E+001  0.1599306E+01  0.7818608E-02  0.3354117E+00
         11   -1    0    0    0    0  0.00000000000E+00  0.00000000000E+00  0.39999999674E+01  0.40000000000E+01  0.51100000000E-03 0. -1.
    9000002   -1    0    0    0    0 -0.00000000000E+00 -0.00000000000E+00  0.00000000000E+00  0.93800000000E+00  0.93800000000E+00 0.  1.
         11    1    1    2    0    0  0.29878288266E-01 -0.29021203462E-02  0.47650933665E+00  0.47745423178E+00  0.51100000000E-03 0. -1.
    9000002    1    1    2    0    0 -0.32283199408E+00  0.12211052393E+00  0.80134684399E-01  0.10026948908E+01  0.93800000000E+00 0.  1.
         22    1    1    2    0    0  0.29295370582E+00 -0.11920840358E+00  0.34433559463E+01  0.34578508774E+01  0.00000000000E+00 0. -1.
</event>
<event>
 5    1  0.3005426E+001  0.1599676E+01  0.7818608E-02  0.3353715E+00
         11   -1    0    0    0    0  0.00000000000E+00  0.00000000000E+00  0.39999999674E+01  0.40000000000E+01  0.51100000000E-03 0.  1.
    9000002   -1    0    0    0    0 -0.00000000000E+00 -0.00000000000E+00  0.00000000000E+00  0.93800000000E+00  0.93800000000E+00 0. -1.
         11    1    1    2    0    0 -0.70818627538E-01 -0.77804616049E-01  0.11310732204E+01  0.11359558650E+01  0.51100000000E-03 0.  1.
    9000002    1    1    2    0    0  0.24861879723E+00  0.27006007571E+00  0.90522987937E-01  0.10113269314E+01  0.93800000000E+00 0. -1.
         22    1    1    2    0    0 -0.17780016970E+00 -0.19225545966E+00  0.27784037591E+01  0.27907172036E+01  0.00000000000E+00 0.  1.
</event>
<event>
 5    1  0.3044097E+001  0.1584833E+01  0.7818608E-02  0.3369991E+00
         11   -1    0    0    0    0  0.00000000000E+00  0.00000000000E+00  0.39999999674E+01  0.40000000000E+01  0.51100000000E-03 0.  1.
    9000002   -1    0    0    0    0 -0.00000000000E+00 -0.00000000000E+00  0.00000000000E+00  0.93800000000E+00  0.93800000000E+00 0. -1.
         11    1    1    2    0    0 -0.61273885927E-01  0.34762505641E-01  0.14585249729E+01  0.14602254204E+01  0.51100000000E-03 0.  1.
    9000002    1    1    2    0    0 -0.21186286172E+00 -0.27446509265E-01  0.41502891310E-01  0.96291519514E+00  0.93800000000E+00 0. -1.
         22    1    1    2    0    0  0.27313674765E+00 -0.73159963764E-02  0.24999721032E+01  0.25148593844E+01  0.00000000000E+00 0.  1.
</event>
<event>
 5    1  0.3005426E+001  0.1599668E+01  0.7818608E-02  0.3353724E+00
         11   -1    0    0    0    0  0.00000000000E+00  0.00000000000E+00  0.39999999674E+01  0.40000000000E+01  0.51100000000E-03 0.  1.
    9000002   -1    0    0    0    0 -0.00000000000E+00 -0.00000000000E+00  0.00000000000E+00  0.93800000000E+00  0.93800000000E+00 0. -1.
         11    1    1    2    0    0  0.98014720342E-02 -0.40922077998E-01  0.38900620989E+00  0.39127583337E+00  0.51100000000E-03 0.  1.
    9000002    1    1    2    0    0 -0.76957454591E-01  0.41426086913E+00  0.12009733653E+00  0.10352786522E+01  0.93800000000E+00 0. -1.
         22    1    1    2    0    0  0.67155982557E-01 -0.37333879113E+00  0.34908964209E+01  0.35114455144E+01  0.00000000000E+00 0.  1.
</event>
<event>
 5    1  0.3005426E+001  0.1599638E+01  0.7818608E-02  0.3353756E+00
         11   -1    0    0    0    0  0.00000000000E+00  0.00000000000E+00  0.39999999674E+01  0.40000000000E+01  0.51100000000E-03 0. -1.
    9000002   -1    0    0    0    0 -0.00000000000E+00 -0.00000000000E+00  0.00000000000E+00  0.93800000000E+00  0.93800000000E+00 0. -1.
         11    1    1    2    0    0  0.13271742837E+00 -0.18376627757E-01  0.14652587787E+01  0.14713718652E+01  0.51100000000E-03 0. -1.
    9000002    1    1    2    0    0 -0.35821491910E+00  0.30029329797E-01  0.86766627719E-01  0.10082619385E+01  0.93800000000E+00 0. -1.
         22    1    1    2    0    0  0.22549749074E+00 -0.11652702040E-01  0.24479745610E+01  0.24583661963E+01  0.00000000000E+00 0. -1.
</event>
<event>
 5    1  0.3005426E+001  0.1597931E+01  0.7818608E-02  0.3355612E+00
         11   -1    0    0    0    0  0.00000000000E+00  0.00000000000E+00  0.39999999674E+01  0.40000000000E+01  0.51100000000E-03 0.  1.
    9000002   -1    0    0    0    0 -0.00000000000E+00 -0.00000000000E+00  0.00000000000E+00  0.93800000000E+00  0.93800000000E+00 0.  1.
         11    1    1    2    0    0 -0.15056015292E+00 -0.51975433340E-02  0.13130669781E+01  0.13216809464E+01  0.51100000000E-03 0.  1.
    9000002    1    1    2    0    0  0.47829353525E+00 -0.11881230802E+00  0.16763195074E+00  0.10727653710E+01  0.93800000000E+00 0.  1.
         22    1    1    2    0    0 -0.32773338233E+00  0.12400985136E+00  0.25193010385E+01  0.25435536825E+01  0.00000000000E+00 0.  1.
</event>
<event>
 5    1  0.3005426E+001  0.1599635E+01  0.7818608E-02  0.3353760E+00
         11   -1    0    0    0    0  0.00000000000E+00  0.00000000000E+00  0.39999999674E+01  0.40000000000E+01  0.51100000000E-03 0.  1.
    9000002   -1    0    0    0    0 -0.00000000000E+00 -0.00000000000E+00  0.00000000000E+00  0.93800000000E+00  0.93800000000E+00 0. -1.
         11    1    1    2    0    0 -0.84173602897E-01 -0.94620080731E-01  0.12925404481E+01  0.12987298512E+01  0.51100000000E-03 0.  1.
    9000002    1    1    2    0    0  0.25293100355E+00  0.30719738481E+00  0.10681302946E+00  0.10244985842E+01  0.93800000000E+00 0. -1.
         22    1    1    2    0    0 -0.16875740066E+00 -0.21257730408E+00  0.26006464898E+01  0.26147715646E+01  0.00000000000E+00 0.  1.
</event>
<event>
 5    1  0.3005426E+001  0.1599676E+01  0.7818608E-02  0.3353715E+00
         11   -1    0    0    0    0  0.00000000000E+00  0.00000000000E+00  0.39999999674E+01  0.40000000000E+01  0.51100000000E-03 0.  1.
    9000002   -1    0    0    0    0 -0.00000000000E+00 -0.00000000000E+00  0.00000000000E+00  0.93800000000E+00  0.93800000000E+00 0.  1.
         11    1    1    2    0    0 -0.61303835198E-01  0.12713756344E+00  0.11150702824E+01  0.11239680227E+01  0.51100000000E-03 0.  1.
    9000002    1    1    2    0    0  0.21425482331E+00 -0.43805127899E+00  0.16245190330E+00  0.10695927605E+01  0.93800000000E+00 0.  1.
         22    1    1    2    0    0 -0.15295098811E+00  0.31091371555E+00  0.27224777817E+01  0.27444392169E+01  0.00000000000E+00 0.  1.
</event>
<event>
 5    1  0.3005426E+001  0.1509101E+01  0.7818608E-02  0.3458343E+00
         11   -1    0    0    0    0  0.00000000000E+00  0.00000000000E+00  0.39999999674E+01  0.40000000000E+01  0.51100000000E-03 0.  1.
    9000002   -1    0    0    0    0 -0.00000000000E+00 -0.00000000000E+00  0.00000000000E+00  0.93800000000E+00  0.93800000000E+00 0.  1.
         11    1    1    2    0    0  0.45419813473E+00  0.23791578267E+00  0.86489222373E+00  0.10054544669E+01  0.51100000000E-03 0.  1.
    9000002    1    1    2    0    0 -0.19357396920E+00  0.29802164991E-01  0.20653412861E+00  0.98023435813E+00  0.93800000000E+00 0.  1.
         22    1    1    2    0    0 -0.26062416554E+00 -0.26771794766E+00  0.29285736150E+01  0.29523111750E+01  0.00000000000E+00 0.  1.
</event>
<event>
 5    1  0.3005426E+001  0.1506281E+01  0.7818608E-02  0.3461818E+00
         11   -1    0    0    0    0  0.00000000000E+00  0.00000000000E+00  0.39999999674E+01  0.40000000000E+01  0.51100000000E-03 0.  1.
    9000002   -1    0    0    0    0 -0.00000000000E+00 -0.00000000000E+00  0.00000000000E+00  0.93800000000E+00  0.93800000000E+00 0.  1.
         11    1    1    2    0    0 -0.11339238309E+00 -0.37502284790E+00  0.12644716429E+01  0.13237782162E+01  0.51100000000E-03 0.  1.
    9000002    1    1    2    0    0 -0.12671637091E+00  0.20049490295E+00  0.11203302534E+00  0.97398698325E+00  0.93800000000E+00 0.  1.
         22    1    1    2    0    0  0.24010875400E+00  0.17452794496E+00  0.26234952991E+01  0.26402348005E+01  0.00000000000E+00 0. -1.
</event>
<event>
 5    1  0.3005426E+001  0.1599374E+01  0.7818608E-02  0.3354043E+00
         11   -1    0    0    0    0  0.00000000000E+00  0.00000000000E+00  0.39999999674E+01  0.40000000000E+01  0.51100000000E-03 0. -1.
    9000002   -1    0    0    0    0 -0.00000000000E+00 -0.00000000000E+00  0.00000000000E+00  0.93800000000E+00  0.93800000000E+00 0. -1.
         11    1    1    2    0    0 -0.83648745458E-01 -0.12138035262E+00  0.83142146735E+00  0.84438866650E+00  0.51100000000E-03 0. -1.
    9000002    1    1    2    0    0  0.33604631510E+00  0.48139370742E+00  0.24011770337E+00  0.11323283706E+01  0.93800000000E+00 0. -1.
         22    1    1    2    0    0 -0.25239756964E+00 -0.36001335479E+00  0.29284607966E+01  0.29612829629E+01  0.00000000000E+00 0. -1.
</event>
<event>
 5    1  0.3005426E+001  0.1580405E+01  0.7818608E-02  0.3374909E+00
         11   -1    0    0    0    0  0.00000000000E+00  0.00000000000E+00  0.39999999674E+01  0.40000000000E+01  0.51100000000E-03 0. -1.
    9000002   -1    0    0    0    0 -0.00000000000E+00 -0.00000000000E+00  0.00000000000E+00  0.93800000000E+00  0.93800000000E+00 0.  1.
         11    1    1    2    0    0 -0.91648962055E-01 -0.10245456654E+00  0.93857311371E+00  0.94858643326E+00  0.51100000000E-03 0. -1.
    9000002    1    1    2    0    0  0.28898118275E+00 -0.16042329172E+00  0.88598706255E-01  0.99846857099E+00  0.93800000000E+00 0.  1.
         22    1    1    2    0    0 -0.19733222069E+00  0.26287785826E+00  0.29728281474E+01  0.29909449958E+01  0.00000000000E+00 0. -1.
</event>
<event>
 5    1  0.3005426E+001  0.1599672E+01  0.7818608E-02  0.3353719E+00
         11   -1    0    0    0    0  0.00000000000E+00  0.00000000000E+00  0.39999999674E+01  0.40000000000E+01  0.51100000000E-03 0. -1.
    9000002   -1    0    0    0    0 -0.00000000000E+00 -0.00000000000E+00  0.00000000000E+00  0.93800000000E+00  0.93800000000E+00 0. -1.
         11    1    1    2    0    0  0.27311063039E-01 -0.97335019799E-01  0.10887172060E+01  0.10934008487E+01  0.51100000000E-03 0. -1.
    9000002    1    1    2    0    0 -0.92828123408E-01  0.35580967454E+00  0.90850873996E-01  0.10115905626E+01  0.93800000000E+00 0. -1.
         22    1    1    2    0    0  0.65517060369E-01 -0.25847465474E+00  0.28204318874E+01  0.28330085887E+01  0.00000000000E+00 0. -1.
</event>
<event>
 5    1  0.3005426E+001  0.1544180E+01  0.7818608E-02  0.3416270E+00
         11   -1    0    0    0    0  0.00000000000E+00  0.00000000000E+00  0.39999999674E+01  0.40000000000E+01  0.51100000000E-03 0.  1.
    9000002   -1    0    0    0    0 -0.00000000000E+00 -0.00000000000E+00  0.00000000000E+00  0.93800000000E+00  0.93800000000E+00 0. -1.
         11    1    1    2    0    0  0.12479900845E+00 -0.22169623665E-01  0.25785494567E+00  0.28732511003E+00  0.51100000000E-03 0.  1.
    9000002    1    1    2    0    0  0.27487761080E+00  0.16798049311E+00  0.11472303311E+00  0.99838896294E+00  0.93800000000E+00 0. -1.
         22    1    1    2    0    0 -0.39967661925E+00 -0.14581086945E+00  0.36274219886E+01  0.36522859270E+01  0.00000000000E+00 0.  1.
</event>
<event>
 5    1  0.3005426E+001  0.1597807E+01  0.7818608E-02  0.3355747E+00
         11   -1    0    0    0    0  0.00000000000E+00  0.00000000000E+00  0.39999999674E+01  0.40000000000E+01  0.51100000000E-03 0. -1.
    9000002   -1    0    0    0    0 -0.00000000000E+00 -0.00000000000E+00  0.00000000000E+00  0.93800000000E+00  0.93800000000E+00 0. -1.
         11    1    1    2    0    0 -0.20710819393E-01 -0.60895162707E-01  0.54714361626E+00  0.55091156896E+00  0.51100000000E-03 0. -1.
    9000002    1    1    2    0    0  0.30345223417E+00  0.22883603162E+00  0.98728654299E-01  0.10168778368E+01  0.93800000000E+00 0. -1.
         22    1    1    2    0    0 -0.28274141478E+00 -0.16794086892E+00  0.33541276968E+01  0.33702105942E+01  0.00000000000E+00 0. -1.
</event>
<event>
 5    1  0.3005426E+001  0.1599676E+01  0.7818608E-02  0.3353715E+00
         11   -1    0    0    0    0  0.00000000000E+00  0.00000000000E+00  0.39999999674E+01  0.40000000000E+01  0.51100000000E-03 0. -1.
    9000002   -1    0    0    0    0 -0.00000000000E+00 -0.00000000000E+00  0.00000000000E+00  0.93800000000E+00  0.93800000000E+00 0.  1.
         11    1    1    2    0    0 -0.10725452780E+00  0.80035579007E-01  0.11648323001E+01  0.11724946806E+01  0.51100000000E-03 0.  1.
    9000002    1    1    2    0    0  0.35858202854E+00 -0.26393882865E+00  0.13455162350E+00  0.10469923189E+01  0.93800000000E+00 0.  1.
         22    1    1    2    0    0 -0.25132750074E+00  0.18390324964E+00  0.27006160438E+01  0.27185130005E+01  0.00000000000E+00 0. -1.
</event>
<event>
 5    1  0.3113690E+001  0.1545846E+01  0.7818608E-02  0.3414323E+00
         11   -1    0    0    0    0  0.00000000000E+00  0.00000000000E+00  0.39999999674E+01  0.40000000000E+01  0.51100000000E-03 0.  1.
    9000002   -1    0    0    0    0 -0.00000000000E+00 -0.00000000000E+00  0.00000000000E+00  0.93800000000E+00  0.93800000000E+00 0. -1.
         11    1    1    2    0    0 -0.11151352815E+00  0.15936527297E+00  0.65442053836E+00  0.68271447863E+00  0.51100000000E-03 0.  1.
    9000002    1    1    2    0    0 -0.14883204147E+00 -0.67718499575E-02  0.55481553883E-01  0.95137744210E+00  0.93800000000E+00 0. -1.
         22    1    1    2    0    0  0.26034556962E+00 -0.15259342301E+00  0.32900978751E+01  0.33039080793E+01  0.00000000000E+00 0.  1.
</event>
<event>
 5    1  0.3005426E+001  0.1599527E+01  0.7818608E-02  0.3353876E+00
         11   -1    0    0    0    0  0.00000000000E+00  0.00000000000E+00  0.39999999674E+01  0.40000000000E+01  0.51100000000E-03 0. -1.
    9000002   -1    0    0    0    0 -0.00000000000E+00 -0.00000000000E+00  0.00000000000E+00  0.93800000000E+00  0.93800000000E+00 0. -1.
         11    1    1    2    0    0 -0.36143923127E-01  0.77537296843E-01  0.10374281197E+01  0.10409494609E+01  0.51100000000E-03 0. -1.
    9000002    1    1    2    0    0  0.11960699913E+00 -0.33864068051E+00  0.86694298838E-01  0.10081385055E+01  0.93800000000E+00 0. -1.
         22    1    1    2    0    0 -0.83463076004E-01  0.26110338367E+00  0.28758775489E+01  0.28889120336E+01  0.00000000000E+00 0. -1.
</event>
<event>
 5    1  0.3005426E+001  0.1599661E+01  0.7818608E-02  0.3353731E+00
         11   -1    0    0    0    0  0.00000000000E+00  0.00000000000E+00  0.39999999674E+01  0.40000000000E+01  0.51100000000E-03 0.  1.
    9000002   -1    0    0    0    0 -0.00000000000E+00 -0.00000000000E+00  0.00000000000E+00  0.93800000000E+00  0.93800000000E+00 0.  1.
         11    1    1    2    0    0  0.17768994290E-01  0.71149438517E-02  0.15979542663E+00  0.16093849470E+00  0.51100000000E-03 0.  1.
    9000002    1    1    2    0    0 -0.38756142002E+00 -0.18520991260E+00  0.12496025545E+00  0.10392139488E+01  0.93800000000E+00 0.  1.
         22    1    1    2    0    0  0.36979242573E+00  0.17809496875E+00  0.37152442853E+01  0.37378475565E+01  0.00000000000E+00 0.  1.
</event>
<event>
 5    1  0.3005426E+001  0.1598847E+01  0.7818608E-02  0.3354616E+00
         11   -1    0    0    0    0  0.00000000000E+00  0.00000000000E+00  0.39999999674E+01  0.40000000000E+01  0.51100000000E-03 0. -1.
    9000002   -1    0    0    0    0 -0.00000000000E+00 -0.00000000000E+00  0.00000000000E+00  0.93800000000E+00  0.93800000000E+00 0. -1.
         11    1    1    2    0    0 -0.14946996054E+00  0.73250450890E-01  0.13044523813E+01  0.13150297236E+01  0.51100000000E-03 0. -1.
    9000002    1    1    2    0    0  0.34759806709E+00 -0.22879892642E+00  0.11775579984E+00  0.10329006697E+01  0.93800000000E+00 0. -1.
         22    1    1    2    0    0 -0.19812810655E+00  0.15554847554E+00  0.25777917862E+01  0.25900696068E+01  0.00000000000E+00 0. -1.
</event>
<event>
 5    1  0.3005426E+001  0.1599612E+01  0.7818608E-02  0.3353785E+00
         11   -1    0    0    0    0  0.00000000000E+00  0.00000000000E+00  0.39999999674E+01  0.40000000000E+01  0.51100000000E-03 0. -1.
    9000002   -1    0    0    0    0 -0.00000000000E+00 -0.00000000000E+00  0.00000000000E+00  0.93800000000E+00  0.93800000000E+00 0. -1.
         11    1    1    2    0    0 -0.77221819413E-02  0.85478113044E-01  0.68604780500E+00  0.69139568394E+00  0.51100000000E-03 0. -1.
    9000002    1    1    2    0    0  0.32678143590E-01 -0.51602760190E+00  0.18361374086E+00  0.10866969922E+01  0.93800000000E+00 0. -1.
         22    1    1    2    0    0 -0.24955961649E-01  0.43054948886E+00  0.31303384215E+01  0.31599073239E+01  0.00000000000E+00 0. -1.
</event>
<event>
 5    1  0.3005426E+001  0.1567809E+01  0.7818608E-02  0.3389061E+00
         11   -1    0    0    0    0  0.00000000000E+00  0.00000000000E+00  0.39999999674E+01  0.40000000000E+01  0.51100000000E-03 0.  1.
    9000002   -1    0    0    0    0 -0.00000000000E+00 -0.00000000000E+00  0.00000000000E+00  0.93800000000E+00  0.93800000000E+00 0. -1.
         11    1    1    2    0    0  0.93834342755E-01  0.78083003373E-01  0.92901623436E+00  0.93700227541E+00  0.51100000000E-03 0.  1.
    9000002    1    1    2    0    0  0.33693597648E+00 -0.91210675044E-01  0.10779496346E+00  0.10066325018E+01  0.93800000000E+00 0. -1.
         22    1    1    2    0    0 -0.43077031923E+00  0.13127671671E-01  0.29631887695E+01  0.29943652228E+01  0.00000000000E+00 0. -1.
</event>
<event>
 5    1  0.3005426E+001  0.1599651E+01  0.7818608E-02  0.3353742E+00
         11   -1    0    0    0    0  0.00000000000E+00  0.00000000000E+00  0.39999999674E+01  0.40000000000E+01  0.51100000000E-03 0. -1.
    9000002   -1    0    0    0    0 -0.00000000000E+00 -0.00000000000E+00  0.00000000000E+00  0.93800000000E+00  0.93800000000E+00 0. -1.
         11    1    1    2    0    0  0.13620386929E+00 -0.67509756784E-01  0.13695734504E+01  0.13779843100E+01  0.51100000000E-03 0. -1.
    9000002    1    1    2    0    0 -0.36963968295E+00  0.18902871846E+00  0.11651743602E+00  0.10323689575E+01  0.93800000000E+00 0. -1.
         22    1    1    2    0    0  0.23343581365E+00 -0.12151896168E+00  0.25139090809E+01  0.25276467325E+01  0.00000000000E+00 0. -1.
</event>
<event>
 5    1  0.3005426E+001  0.1523745E+01  0.7818608E-02  0.3440528E+00
         11   -1    0    0    0    0  0.00000000000E+00  0.00000000000E+00  0.39999999674E+01  0.40000000000E+01  0.51100000000E-03 0. -1.
    9000002   -1    0    0    0    0 -0.00000000000E+00 -0.00000000000E+00  0.00000000000E+00  0.93800000000E+00  0.93800000000E+00 0. -1.
         11    1    1    2    0    0  0.69519128594E-01 -0.34666665987E+00  0.12400936756E+01  0.12895128024E+01  0.51100000000E-03 0. -1.
    9000002    1    1    2    0    0 -0.37314671531E+00  0.12253683155E+00  0.16974349957E+00  0.10309755583E+01  0.93800000000E+00 0. -1.
         22    1    1    2    0    0  0.30362758672E+00  0.22412982832E+00  0.25901627922E+01  0.26175116392E+01  0.00000000000E+00 0.  1.
</event>
<event>
 5    1  0.3005426E+001  0.1599405E+01  0.7818608E-02  0.3354009E+00
         11   -1    0    0    0    0  0.00000000000E+00  0.00000000000E+00  0.39999999674E+01  0.40000000000E+01  0.51100000000E-03 0.  1.
    9000002   -1    0    0    0    0 -0.00000000000E+00 -0.00000000000E+00  0.00000000000E+00  0.93800000000E+00  0.93800000000E+00 0.  1.
         11    1    1    2    0    0  0.34719540634E-01  0.39535182457E-01  0.41625274621E+00  0.41956535486E+00  0.51100000000E-03 0.  1.
    9000002    1    1    2    0    0 -0.25480051433E+00 -0.45627915507E+00  0.18794321426E+00  0.10900828506E+01  0.93800000000E+00 0.  1.
         22    1    1    2    0    0  0.22008097369E+00  0.41674397261E+00  0.33958040069E+01  0.34283517945E+01  0.00000000000E+00 0.  1.
</event>
<event>
 5    1  0.3005426E+001  0.1599658E+01  0.7818608E-02  0.3353735E+00
         11   -1    0    0    0    0  0.00000000000E+00  0.00000000000E+00  0.39999999674E+01  0.40000000000E+01  0.51100000000E-03 0. -1.
    9000002   -1    0    0    0    0 -0.00000000000E+00 -0.00000000000E+00  0.00000000000E+00  0.93800000000E+00  0.93800000000E+00 0. -1.
         11    1    1    2    0    0 -0.19868300222E+00 -0.43871863759E-01  0.81717299359E+00  0.84212329167E+00  0.51100000000E-03 0. -1.
    9000002    1    1    2    0    0  0.82388212924E+00  0.18217015001E+00  0.53274543583E+00  0.13695362083E+01  0.93800000000E+00 0. -1.
         22    1    1    2    0    0 -0.62519912702E+00 -0.13829828625E+00  0.26500815379E+01  0.27263405000E+01  0.00000000000E+00 0. -1.
</event>
<event>
 5    1  0.3005426E+001  0.1537675E+01  0.7818608E-02  0.3423917E+00
         11   -1    0    0    0    0  0.00000000000E+00  0.00000000000E+00  0.39999999674E+01  0.40000000000E+01  0.51100000000E-03 0. -1.
    9000002   -1    0    0    0    0 -0.00000000000E+00 -0.00000000000E+00  0.00000000000E+00  0.93800000000E+00  0.93800000000E+00 0. -1.
         11    1    1    2    0    0  0.46849935018E-01 -0.22762924744E+00  0.89289376688E+00  0.92264268856E+00  0.51100000000E-03 0. -1.
    9000002    1    1    2    0    0  0.69815034153E-02 -0.84321336225E-01  0.51306741005E-01  0.94320475550E+00  0.93800000000E+00 0. -1.
         22    1    1    2    0    0 -0.53831438433E-01  0.31195058366E+00  0.30557994595E+01  0.30721525559E+01  0.00000000000E+00 0. -1.
</event>
<event>
 5    1  0.3005426E+001  0.1594051E+01  0.7818608E-02  0.3359845E+00
         11   -1    0    0    0    0  0.00000000000E+00  0.00000000000E+00  0.39999999674E+01  0.40000000000E+01  0.51100000000E-03 0.  1.
    9000002   -1    0    0    0    0 -0.00000000000E+00 -0.00000000000E+00  0.00000000000E+00  0.93800000000E+00  0.93800000000E+00 0. -1.
         11    1    1    2    0    0 -0.25315350235E-01  0.15793069085E-01  0.48181761531E+00  0.48274088653E+00  0.51100000000E-03 0.  1.
    9000002    1    1    2    0    0 -0.25056526371E+00 -0.28229091460E+00  0.10045451884E+00  0.10160739256E+01  0.93800000000E+00 0. -1.
         22    1    1    2    0    0  0.27588061394E+00  0.26649784552E+00  0.34177278332E+01  0.34391851879E+01  0.00000000000E+00 0.  1.
</event>
<event>
 5    1  0.3005426E+001  0.1599670E+01  0.7818608E-02  0.3353721E+00
         11   -1    0    0    0    0  0.00000000000E+00  0.00000000000E+00  0.39999999674E+01  0.40000000000E+01  0.51100000000E-03 0. -1.
    9000002   -1    0    0    0    0 -0.00000000000E+00 -0.00000000000E+00  0.00000000000E+00  0.93800000000E+00  0.93800000000E+00 0. -1.
         11    1    1    2    0    0  0.11335630682E+00 -0.26755917207E-01  0.11133764273E+01  0.11194520362E+01  0.51100000000E-03 0. -1.
    9000002    1    1    2    0    0 -0.38929544315E+00  0.86582011820E-01  0.10726987582E+00  0.10248893663E+01  0.93800000000E+00 0. -1.
         22    1    1    2    0    0  0.27593913633E+00 -0.59826094613E-01  0.27793536643E+01  0.27936585976E+01  0.00000000000E+00 0. -1.
</event>
<event>
 5    1  0.3005426E+001  0.1599673E+01  0.7818608E-02  0.3353718E+00
         11   -1    0    0    0    0  0.00000000000E+00  0.00000000000E+00  0.39999999674E+01  0.40000000000E+01  0.51100000000E-03 0. -1.
    9000002   -1    0    0    0    0 -0.00000000000E+00 -0.00000000000E+00  0.00000000000E+00  0.93800000000E+00  0.93800000000E+00 0. -1.
         11    1    1    2    0    0  0.15652561530E-01  0.84942378198E-01  0.69393448692E+00  0.69928931320E+00  0.51100000000E-03 0. -1.
    9000002    1    1    2    0    0 -0.78610927165E-01 -0.46620632907E+00  0.15234661749E+00  0.10614054414E+01  0.93800000000E+00 0. -1.
         22    1    1    2    0    0  0.62958365635E-01  0.38126395087E+00  0.31537188630E+01  0.31773052454E+01  0.00000000000E+00 0. -1.
</event>
<event>
 5    1  0.3005426E+001  0.1551301E+01  0.7818608E-02  0.3407978E+00
         11   -1    0    0    0    0  0.00000000000E+00  0.00000000000E+00  0.39999999674E+01  0.40000000000E+01  0.51100000000E-03 0. -1.
    9000002   -1    0    0    0    0 -0.00000000000E+00 -0.00000000000E+00  0.00000000000E+00  0.93800000000E+00  0.93800000000E+00 0.  1.
         11    1    1    2    0    0 -0.11178243935E+00 -0.93526073703E-01  0.43457655151E+00  0.45836609872E+00  0.51100000000E-03 0. -1.
    9000002    1    1    2    0    0 -0.31014093121E+00  0.10465939169E+00  0.11114944097E+00  0.99966953725E+00  0.93800000000E+00 0.  1.
         22    1    1    2    0    0  0.42192337056E+00 -0.11133317988E-01  0.34542739749E+01  0.34799643640E+01  0.00000000000E+00 0. -1.
</event>
<event>
 5    1  0.3005426E+001  0.1599660E+01  0.7818608E-02  0.3353733E+00
         11   -1    0    0    0    0  0.00000000000E+00  0.00000000000E+00  0.39999999674E+01  0.40000000000E+01  0.51100000000E-03 0.  1.
    9000002   -1    0    0    0    0 -0.00000000000E+00 -0.00000000000E+00  0.00000000000E+00  0.93800000000E+00  0.93800000000E+00 0.  1.
         11    1    1    2    0    0  0.48774939642E-01 -0.76400432531E-01  0.94297714269E+00  0.94732368997E+00  0.51100000000E-03 0.  1.
    9000002    1    1    2    0    0 -0.18480643726E+00  0.31338645662E+00  0.88904307655E-01  0.10100061714E+01  0.93800000000E+00 0.  1.
         22    1    1    2    0    0  0.13603149762E+00 -0.23698602409E+00  0.29681185170E+01  0.29806701386E+01  0.00000000000E+00 0.  1.
</event>
<event>
 5    1  0.3005426E+001  0.1528718E+01  0.7818608E-02  0.3434561E+00
         11   -1    0    0    0    0  0.00000000000E+00  0.00000000000E+00  0.39999999674E+01  0.40000000000E+01  0.51100000000E-03 0. -1.
    9000002   -1    0    0    0    0 -0.00000000000E+00 -0.00000000000E+00  0.00000000000E+00  0.93800000000E+00  0.93800000000E+00 0. -1.
         11    1    1    2    0    0 -0.12612592731E+00 -0.40966970816E+00  0.71106870867E+00  0.83027464667E+00  0.51100000000E-03 0. -1.
    9000002    1    1    2    0    0  0.17602989862E+00  0.74089254089E+00  0.51456798475E+00  0.13132145648E+01  0.93800000000E+00 0. -1.
         22    1    1    2    0    0 -0.49903971306E-01 -0.33122283272E+00  0.27743632739E+01  0.27945107885E+01  0.00000000000E+00 0. -1.
</event>
<event>
 5    1  0.3005426E+001  0.1513421E+01  0.7818608E-02  0.3453050E+00
         11   -1    0    0    0    0  0.00000000000E+00  0.00000000000E+00  0.39999999674E+01  0.40000000000E+01  0.51100000000E-03 0. -1.
    9000002   -1    0    0    0    0 -0.00000000000E+00 -0.00000000000E+00  0.00000000000E+00  0.93800000000E+00  0.93800000000E+00 0. -1.
         11    1    1    2    0    0  0.14652447148E+00 -0.38945529983E+00  0.13262481950E+01  0.13899925853E+01  0.51100000000E-03 0. -1.
    9000002    1    1    2    0    0 -0.32584993785E+00  0.15400245236E+00  0.16074652289E+00  0.10176337170E+01  0.93800000000E+00 0. -1.
         22    1    1    2    0    0  0.17932546637E+00  0.23545284747E+00  0.25130052495E+01  0.25303736977E+01  0.00000000000E+00 0.  1.
</event>
<event>
 5    1  0.3005426E+001  0.1599576E+01  0.7818608E-02  0.3353824E+00
         11   -1    0    0    0    0  0.00000000000E+00  0.00000000000E+00  0.39999999674E+01  0.40000000000E+01  0.51100000000E-03 0. -1.
    9000002   -1    0    0    0    0 -0.00000000000E+00 -0.00000000000E+00  0.00000000000E+00  0.93800000000E+00  0.93800000000E+00 0. -1.
         11    1    1    2    0    0 -0.68949697974E-01 -0.21871941921E-01  0.65990612984E+00  0.66385902420E+00  0.51100000000E-03 0. -1.
    9000002    1    1    2    0    0  0.35700353268E+00  0.11217330885E+00  0.94238108275E-01  0.10142776714E+01  0.93800000000E+00 0. -1.
         22    1    1    2    0    0 -0.28805383471E+00 -0.90301366927E-01  0.32458557292E+01  0.32598633044E+01  0.00000000000E+00 0. -1.
</event>
<event>
 5    1  0.3005426E+001  0.1584854E+01  0.7818608E-02  0.3369968E+00
         11   -1    0    0    0    0  0.00000000000E+00  0.00000000000E+00  0.39999999674E+01  0.40000000000E+01  0.51100000000E-03 0. -1.
    9000002   -1    0    0    0    0 -0.00000000000E+00 -0.00000000000E+00  0.00000000000E+00  0.93800000000E+00  0.93800000000E+00 0. -1.
         11    1    1    2    0    0  0.67319902076E-01  0.41997728617E-01  0.11230309767E+01  0.11258306330E+01  0.51100000000E-03 0. -1.
    9000002    1    1    2    0    0  0.13075107373E+00  0.13723004113E+00  0.34922144495E-01  0.95759672287E+00  0.93800000000E+00 0. -1.
         22    1    1    2    0    0 -0.19807097581E+00 -0.17922776975E+00  0.28420468462E+01  0.28545726442E+01  0.00000000000E+00 0. -1.
</event>
<event>
 5    1  0.3005426E+001  0.1599671E+01  0.7818608E-02  0.3353721E+00
         11   -1    0    0    0    0  0.00000000000E+00  0.00000000000E+00  0.39999999674E+01  0.40000000000E+01  0.51100000000E-03 0. -1.
    9000002   -1    0    0    0    0 -0.00000000000E+00 -0.00000000000E+00  0.00000000000E+00  0.93800000000E+00  0.93800000000E+00 0. -1.
         11    1    1    2    0    0  0.13445514519E-01  0.23088905960E-01  0.28352206921E+00  0.28477869353E+00  0.51100000000E-03 0. -1.
    9000002    1    1    2    0    0 -0.19743030354E+00 -0.33363355696E+00  0.10122125914E+00  0.10199901070E+01  0.93800000000E+00 0. -1.
         22    1    1    2    0    0  0.18398478902E+00  0.31054465100E+00  0.36152566390E+01  0.36332311995E+01  0.00000000000E+00 0. -1.
</event>
<event>
 5    1  0.3005426E+001  0.1597759E+01  0.7818608E-02  0.3355799E+00
         11   -1    0    0    0    0  0.00000000000E+00  0.00000000000E+00  0.39999999674E+01  0.40000000000E+01  0.51100000000E-03 0.  1.
    9000002   -1    0    0    0    0 -0.00000000000E+00 -0.00000000000E+00  0.00000000000E+00  0.93800000000E+00  0.93800000000E+00 0. -1.
         11    1    1    2    0    0 -0.62947537540E-01 -0.10153686053E+00  0.12088818824E+01  0.12147706751E+01  0.51100000000E-03 0.  1.
    9000002    1    1    2    0    0  0.29075188929E+00  0.19726258137E+00  0.84333278433E-01  0.10051891807E+01  0.93800000000E+00 0. -1.
         22    1    1    2    0    0 -0.22780435175E+00 -0.95725720838E-01  0.27067848066E+01  0.27180401442E+01  0.00000000000E+00 0. -1.
</event>
<event>
 5    1  0.3005426E+001  0.1570882E+01  0.7818608E-02  0.3385586E+00
         11   -1    0    0    0    0  0.00000000000E+00  0.00000000000E+00  0.39999999674E+01  0.40000000000E+01  0.51100000000E-03 0.  1.
    9000002   -1    0    0    0    0 -0.00000000000E+00 -0.00000000000E+00  0.00000000000E+00  0.93800000000E+00  0.93800000000E+00 0. -1.
         11    1    1    2    0    0 -0.31434997209E-01  0.19327546626E+00  0.14665967924E+01  0.14796114278E+01  0.51100000000E-03 0.  1.
    9000002    1    1    2    0    0 -0.30292017640E+00 -0.15719371514E+00  0.10145483700E+00  0.10032983511E+01  0.93800000000E+00 0. -1.
         22    1    1    2    0    0  0.33435517361E+00 -0.36081751124E-01  0.24319483380E+01  0.24550902211E+01  0.00000000000E+00 0.  1.
</event>
<event>
 5    1  0.3005426E+001  0.1533726E+01  0.7818608E-02  0.3428593E+00
         11   -1    0    0    0    0  0.00000000000E+00  0.00000000000E+00  0.39999999674E+01  0.40000000000E+01  0.51100000000E-03 0.  1.
    9000002   -1    0    0    0    0 -0.00000000000E+00 -0.00000000000E+00  0.00000000000E+00  0.93800000000E+00  0.93800000000E+00 0.  1.
         11    1    1    2    0    0  0.21268357695E+00 -0.22493633932E+00  0.87781874843E+00  0.93080431717E+00  0.51100000000E-03 0.  1.
    9000002    1    1    2    0    0  0.10934149790E+00  0.48306700075E+00  0.22957041941E+00  0.10852906836E+01  0.93800000000E+00 0.  1.
         22    1    1    2    0    0 -0.32202507485E+00 -0.25813066143E+00  0.28926107995E+01  0.29219049993E+01  0.00000000000E+00 0.  1.
</event>
<event>
 5    1  0.3005426E+001  0.1599663E+01  0.7818608E-02  0.3353729E+00
         11   -1    0    0    0    0  0.00000000000E+00  0.00000000000E+00  0.39999999674E+01  0.40000000000E+01  0.51100000000E-03 0.  1.
    9000002   -1    0    0    0    0 -0.00000000000E+00 -0.00000000000E+00  0.00000000000E+00  0.93800000000E+00  0.93800000000E+00 0. -1.
         11    1    1    2    0    0 -0.78494756548E-01 -0.55388866564E-02  0.52727082954E+00  0.53311058410E+00  0.51100000000E-03 0.  1.
    9000002    1    1    2    0    0  0.54335679769E+00  0.46095511840E-01  0.20521910746E+00  0.11042283676E+01  0.93800000000E+00 0. -1.
         22    1    1    2    0    0 -0.46486204114E+00 -0.40556625184E-01  0.32675100304E+01  0.33006610483E+01  0.00000000000E+00 0.  1.
</event>
<event>
 5    1  0.3005426E+001  0.1468117E+01  0.7818608E-02  0.3510246E+00
         11   -1    0    0    0    0  0.00000000000E+00  0.00000000000E+00  0.39999999674E+01  0.40000000000E+01  0.51100000000E-03 0.  1.
    9000002   -1    0    0    0    0 -0.00000000000E+00 -0.00000000000E+00  0.00000000000E+00  0.93800000000E+00  0.93800000000E+00 0. -1.
         11    1    1    2    0    0 -0.16734899616E+00  0.20466644180E+00  0.28177355921E+00  0.38638146786E+00  0.51100000000E-03 0.  1.
    9000002    1    1    2    0    0  0.49943338655E+00  0.12745031585E+00  0.31435744459E+00  0.11155007367E+01  0.93800000000E+00 0. -1.
         22    1    1    2    0    0 -0.33208439039E+00 -0.33211675765E+00  0.34038689636E+01  0.34361177954E+01  0.00000000000E+00 0.  1.
</event>
<event>
 5    1  0.3005426E+001  0.1599629E+01  0.7818608E-02  0.3353766E+00
         11   -1    0    0    0    0  0.00000000000E+00  0.00000000000E+00  0.39999999674E+01  0.40000000000E+01  0.51100000000E-03 0.  1.
    9000002   -1    0    0    0    0 -0.00000000000E+00 -0.00000000000E+00  0.00000000000E+00  0.93800000000E+00  0.93800000000E+00 0.  1.
         11    1    1    2    0    0 -0.53491880941E-01  0.47949061324E-01  0.46993940045E+00  0.47539856439E+00  0.51100000000E-03 0.  1.
    9000002    1    1    2    0    0  0.38723627206E+00 -0.38941727656E+00  0.20832665234E+00  0.11067256841E+01  0.93800000000E+00 0.  1.
         22    1    1    2    0    0 -0.33374439112E+00  0.34146821523E+00  0.33217339146E+01  0.33558757515E+01  0.00000000000E+00 0.  1.
</event>
<event>
 5    1  0.3005426E+001  0.1591327E+01  0.7818608E-02  0.3362831E+00
         11   -1    0    0    0    0  0.00000000000E+00  0.00000000000E+00  0.39999999674E+01  0.40000000000E+01  0.51100000000E-03 0. -1.
    9000002   -1    0    0    0    0 -0.00000000000E+00 -0.00000000000E+00  0.00000000000E+00  0.93800000000E+00  0.93800000000E+00 0.  1.
         11    1    1    2    0    0 -0.64278116951E-02 -0.70402994169E-02  0.10397494329E+01  0.10397932616E+01  0.51100000000E-03 0. -1.
    9000002    1    1    2    0    0  0.32194454587E+00  0.23674093684E+00  0.11469043416E+00  0.10260080202E+01  0.93800000000E+00 0.  1.
         22    1    1    2    0    0 -0.31551673418E+00 -0.22970063743E+00  0.28455601003E+01  0.28721987182E+01  0.00000000000E+00 0. -1.
</event>
<event>
 5    1  0.3005426E+001  0.1595973E+01  0.7818608E-02  0.3357746E+00
         11   -1    0    0    0    0  0.00000000000E+00  0.00000000000E+00  0.39999999674E+01  0.40000000000E+01  0.51100000000E-03 0. -1.
    9000002   -1    0    0    0    0 -0.00000000000E+00 -0.00000000000E+00  0.00000000000E+00  0.93800000000E+00  0.93800000000E+00 0. -1.
         11    1    1    2    0    0  0.10959769758E-01  0.46699308676E-02  0.16772952493E+00  0.16815284554E+00  0.51100000000E-03 0. -1.
    9000002    1    1    2    0    0  0.43411435104E+00 -0.68532796754E-01  0.13416484262E+00  0.10445076443E+01  0.93800000000E+00 0. -1.
         22    1    1    2    0    0 -0.44507412080E+00  0.63862865886E-01  0.36981055998E+01  0.37253395102E+01  0.00000000000E+00 0. -1.
</event>
<event>
 5    1  0.3005426E+001  0.1599672E+01  0.7818608E-02  0.3353720E+00
         11   -1    0    0    0    0  0.00000000000E+00  0.00000000000E+00  0.39999999674E+01  0.40000000000E+01  0.51100000000E-03 0. -1.
    9000002   -1    0    0    0    0 -0.00000000000E+00 -0.00000000000E+00  0.00000000000E+00  0.93800000000E+00  0.93800000000E+00 0. -1.
         11    1    1    2    0    0 -0.67095320800E-03  0.77547490001E-02  0.79706632534E-01  0.80087419119E-01  0.51100000000E-03 0.  1.
    9000002    1    1    2    0    0  0.91815469215E-02 -0.36239416875E+00  0.88242732387E-01  0.10094773966E+01  0.93800000000E+00 0. -1.
         22    1    1    2    0    0 -0.85105937135E-02  0.35463941975E+00  0.38320506024E+01  0.38484351843E+01  0.00000000000E+00 0. -1.
</event>
<event>
 5    1  0.3005426E+001  0.1599456E+01  0.7818608E-02  0.3353954E+00
         11   -1    0    0    0    0  0.00000000000E+00  0.00000000000E+00  0.39999999674E+01  0.40000000000E+01  0.51100000000E-03 0.  1.
    9000002   -1    0    0    0    0 -0.00000000000E+00 -0.00000000000E+00  0.00000000000E+00  0.93800000000E+00  0.93800000000E+00 0. -1.
         11    1    1    2    0    0  0.63193018925E-01 -0.72858663124E-02  0.58402981132E+00  0.58748406201E+00  0.51100000000E-03 0.  1.
    9000002    1    1    2    0    0 -0.41194136962E+00 -0.36210043657E-01  0.11573794429E+00  0.10316230566E+01  0.93800000000E+00 0. -1.
         22    1    1    2    0    0  0.34874835069E+00  0.43495909969E-01  0.33002322118E+01  0.33188928813E+01  0.00000000000E+00 0.  1.
</event>
<event>
 5    1  0.3005426E+001  0.1593020E+01  0.7818608E-02  0.3360974E+00
         11   -1    0    0    0    0  0.00000000000E+00  0.00000000000E+00  0.39999999674E+01  0.40000000000E+01  0.51100000000E-03 0. -1.
    9000002   -1    0    0    0    0 -0.00000000000E+00 -0.00000000000E+00  0.00000000000E+00  0.93800000000E+00  0.93800000000E+00 0. -1.
         11    1    1    2    0    0  0.87930526464E-01 -0.79852236203E-01  0.71599085420E+00  0.72577635779E+00  0.51100000000E-03 0. -1.
    9000002    1    1    2    0    0 -0.62202286135E-01  0.44851487335E+00  0.14509881190E+00  0.10516331971E+01  0.93800000000E+00 0. -1.
         22    1    1    2    0    0 -0.25728240329E-01 -0.36866263714E+00  0.31389103013E+01  0.31605904451E+01  0.00000000000E+00 0.  1.
</event>
<event>
 5    1  0.3070100E+001  0.1599580E+01  0.7818608E-02  0.3353819E+00
         11   -1    0    0    0    0  0.00000000000E+00  0.00000000000E+00  0.39999999674E+01  0.40000000000E+01  0.51100000000E-03 0. -1.
    9000002   -1    0    0    0    0 -0.00000000000E+00 -0.00000000000E+00  0.00000000000E+00  0.93800000000E+00  0.93800000000E+00 0. -1.
         11    1    1    2    0    0 -0.26565844207E-01 -0.12827864695E+00  0.14685702644E+01  0.14744015864E+01  0.51100000000E-03 0. -1.
    9000002    1    1    2    0    0  0.82607036206E-01  0.36917055836E+00  0.96350381839E-01  0.10159912498E+01  0.93800000000E+00 0. -1.
         22    1    1    2    0    0 -0.56041192000E-01 -0.24089191142E+00  0.24350793211E+01  0.24476071638E+01  0.00000000000E+00 0. -1.
</event>
<event>
 5    1  0.3005426E+001  0.1599676E+01  0.7818608E-02  0.3353715E+00
         11   -1    0    0    0    0  0.00000000000E+00  0.00000000000E+00  0.39999999674E+01  0.40000000000E+01  0.51100000000E-03 0. -1.
    9000002   -1    0    0    0    0 -0.00000000000E+00 -0.00000000000E+00  0.00000000000E+00  0.93800000000E+00  0.93800000000E+00 0. -1.
         11    1    1    2    0    0  0.73884326386E-01 -0.20367735568E-01  0.74494706572E+00  0.74887924941E+00  0.51100000000E-03 0. -1.
    9000002    1    1    2    0    0 -0.38935373845E+00  0.10797708597E+00  0.11017721279E+00  0.10272479754E+01  0.93800000000E+00 0. -1.
         22    1    1    2    0    0  0.31546941207E+00 -0.87609350400E-01  0.31448756888E+01  0.31618727752E+01  0.00000000000E+00 0. -1.
</event>
<event>
 5    1  0.3005426E+001  0.1552036E+01  0.7818608E-02  0.3407125E+00
         11   -1    0    0    0    0  0.00000000000E+00  0.00000000000E+00  0.39999999674E+01  0.40000000000E+01  0.51100000000E-03 0. -1.
    9000002   -1    0    0    0    0 -0.00000000000E+00 -0.00000000000E+00  0.00000000000E+00  0.93800000000E+00  0.93800000000E+00 0.  1.
         11    1    1    2    0    0  0.16110886265E+00  0.52314146895E-01  0.51127424064E+00  0.53860416435E+00  0.51100000000E-03 0. -1.
    9000002    1    1    2    0    0 -0.46480400109E-01  0.27447978597E+00  0.89444596868E-01  0.98251916847E+00  0.93800000000E+00 0.  1.
         22    1    1    2    0    0 -0.11462846254E+00 -0.32679393286E+00  0.33992811299E+01  0.34168766672E+01  0.00000000000E+00 0. -1.
</event>
<event>
 5    1  0.3005426E+001  0.1599676E+01  0.7818608E-02  0.3353715E+00
         11   -1    0    0    0    0  0.00000000000E+00  0.00000000000E+00  0.39999999674E+01  0.40000000000E+01  0.51100000000E-03 0.  1.
    9000002   -1    0    0    0    0 -0.00000000000E+00 -0.00000000000E+00  0.00000000000E+00  0.93800000000E+00  0.93800000000E+00 0.  1.
         11    1    1    2    0    0 -0.56292266730E-02 -0.47427935268E-01  0.50935579130E+00  0.51159034440E+00  0.51100000000E-03 0.  1.
    9000002    1    1    2    0    0  0.46029156295E-01  0.36170666637E+00  0.89292357605E-01  0.10103304018E+01  0.93800000000E+00 0.  1.
         22    1    1    2    0    0 -0.40399929622E-01 -0.31427873110E+00  0.34013518185E+01  0.34160792538E+01  0.00000000000E+00 0.  1.
</event>
<event>
 5    1  0.3005426E+001  0.1535644E+01  0.7818608E-02  0.3426319E+00
         11   -1    0    0    0    0  0.00000000000E+00  0.00000000000E+00  0.39999999674E+01  0.40000000000E+01  0.51100000000E-03 0. -1.
    9000002   -1    0    0    0    0 -0.00000000000E+00 -0.00000000000E+00  0.00000000000E+00  0.93800000000E+00  0.93800000000E+00 0. -1.
         11    1    1    2    0    0 -0.30019283881E-01 -0.17379988344E+00  0.14890481866E+01  0.14994573418E+01  0.51100000000E-03 0. -1.
    9000002    1    1    2    0    0  0.32057459548E+00 -0.27754072285E+00  0.17803751008E+00  0.10446713737E+01  0.93800000000E+00 0. -1.
         22    1    1    2    0    0 -0.29055531160E+00  0.45134060630E+00  0.23329142707E+01  0.23938712844E+01  0.00000000000E+00 0.  1.
</event>
<event>
 5    1  0.3005426E+001  0.1599206E+01  0.7818608E-02  0.3354225E+00
         11   -1    0    0    0    0  0.00000000000E+00  0.00000000000E+00  0.39999999674E+01  0.40000000000E+01  0.51100000000E-03 0. -1.
    9000002   -1    0    0    0    0 -0.00000000000E+00 -0.00000000000E+00  0.00000000000E+00  0.93800000000E+00  0.93800000000E+00 0. -1.
         11    1    1    2    0    0 -0.21393814371E-01 -0.47545989864E-01  0.35103467651E+00  0.35488578681E+00  0.51100000000E-03 0. -1.
    9000002    1    1    2    0    0  0.74206292654E-01  0.55917438661E+00  0.22081795375E+00  0.11165962284E+01  0.93800000000E+00 0. -1.
         22    1    1    2    0    0 -0.52812478284E-01 -0.51162839675E+00  0.34281473371E+01  0.34665179848E+01  0.00000000000E+00 0. -1.
</event>
<event>
 5    1  0.3005426E+001  0.1599677E+01  0.7818608E-02  0.3353714E+00
         11   -1    0    0    0    0  0.00000000000E+00  0.00000000000E+00  0.39999999674E+01  0.40000000000E+01  0.51100000000E-03 0.  1.
    9000002   -1    0    0    0    0 -0.00000000000E+00 -0.00000000000E+00  0.00000000000E+00  0.93800000000E+00  0.93800000000E+00 0.  1.
         11    1    1    2    0    0  0.82851266692E-01  0.11644493377E+00  0.12523156466E+01  0.12604437690E+01  0.51100000000E-03 0.  1.
    9000002    1    1    2    0    0 -0.25499491460E+00 -0.36132686572E+00  0.13268450410E+00  0.10454801232E+01  0.93800000000E+00 0.  1.
         22    1    1    2    0    0  0.17214364791E+00  0.24488193195E+00  0.26149998166E+01  0.26320761078E+01  0.00000000000E+00 0.  1.
</event>
<event>
 5    1  0.3237259E+001  0.1593914E+01  0.7818608E-02  0.3359996E+00
         11   -1    0    0    0    0  0.00000000000E+00  0.00000000000E+00  0.39999999674E+01  0.40000000000E+01  0.51100000000E-03 0. -1.
    9000002   -1    0    0    0    0 -0.00000000000E+00 -0.00000000000E+00  0.00000000000E+00  0.93800000000E+00  0.93800000000E+00 0. -1.
         11    1    1    2    0    0  0.23385398244E-01  0.45352867923E-02  0.94174584443E+00  0.94204720811E+00  0.51100000000E-03 0. -1.
    9000002    1    1    2    0    0  0.10819512473E+00  0.23437813490E+00  0.48728982465E-01  0.97409332657E+00  0.93800000000E+00 0. -1.
         22    1    1    2    0    0 -0.13158052297E+00 -0.23891342169E+00  0.30095251405E+01  0.30218594653E+01  0.00000000000E+00 0. -1.
</event>
<event>
 5    1  0.3005426E+001  0.1598499E+01  0.7818608E-02  0.3354994E+00
         11   -1    0    0    0    0  0.00000000000E+00  0.00000000000E+00  0.39999999674E+01  0.40000000000E+01  0.51100000000E-03 0.  1.
    9000002   -1    0    0    0    0 -0.00000000000E+00 -0.00000000000E+00  0.00000000000E+00  0.93800000000E+00  0.93800000000E+00 0. -1.
         11    1    1    2    0    0  0.10683430413E+00 -0.52358952201E-01  0.14671990655E+01  0.14720150771E+01  0.51100000000E-03 0.  1.
    9000002    1    1    2    0    0 -0.26145305242E+00  0.24377085577E+00  0.86704076355E-01  0.10075433120E+01  0.93800000000E+00 0. -1.
         22    1    1    2    0    0  0.15461874828E+00 -0.19141190356E+00  0.24460968255E+01  0.24584416108E+01  0.00000000000E+00 0.  1.
</event>
<event>
 5    1  0.3005426E+001  0.1599646E+01  0.7818608E-02  0.3353748E+00
         11   -1    0    0    0    0  0.00000000000E+00  0.00000000000E+00  0.39999999674E+01  0.40000000000E+01  0.51100000000E-03 0. -1.
    9000002   -1    0    0    0    0 -0.00000000000E+00 -0.00000000000E+00  0.00000000000E+00  0.93800000000E+00  0.93800000000E+00 0. -1.
         11    1    1    2    0    0  0.86322582303E-02 -0.23072950363E-01  0.20816934832E+00  0.20962255513E+00  0.51100000000E-03 0. -1.
    9000002    1    1    2    0    0 -0.11225381033E+00  0.40268690105E+00  0.11818426278E+00  0.10337161981E+01  0.93800000000E+00 0. -1.
         22    1    1    2    0    0  0.10362155210E+00 -0.37961395069E+00  0.36736463563E+01  0.36946612468E+01  0.00000000000E+00 0. -1.
</event>
<event>
 5    1  0.3005426E+001  0.1599663E+01  0.7818608E-02  0.3353729E+00
         11   -1    0    0    0    0  0.00000000000E+00  0.00000000000E+00  0.39999999674E+01  0.40000000000E+01  0.51100000000E-03 0.  1.
    9000002   -1    0    0    0    0 -0.00000000000E+00 -0.00000000000E+00  0.00000000000E+00  0.93800000000E+00  0.93800000000E+00 0.  1.
         11    1    1    2    0    0  0.10247925127E+00 -0.12777822611E+00  0.13460667905E+01  0.13559960685E+01  0.51100000000E-03 0.  1.
    9000002    1    1    2    0    0 -0.28599119926E+00  0.37525192617E+00  0.15170330155E+00  0.10608783464E+01  0.93800000000E+00 0.  1.
         22    1    1    2    0    0  0.18351194799E+00 -0.24747370006E+00  0.25022298753E+01  0.25211255852E+01  0.00000000000E+00 0.  1.
</event>
<event>
 5    1  0.3005426E+001  0.1599156E+01  0.7818608E-02  0.3354280E+00
         11   -1    0    0    0    0  0.00000000000E+00  0.00000000000E+00  0.39999999674E+01  0.40000000000E+01  0.51100000000E-03 0.  1.
    9000002   -1    0    0    0    0 -0.00000000000E+00 -0.00000000000E+00  0.00000000000E+00  0.93800000000E+00  0.93800000000E+00 0. -1.
         11    1    1    2    0    0 -0.15621436728E+00  0.11583959656E+00  0.12427218672E+01  0.12578472248E+01  0.51100000000E-03 0.  1.
    9000002    1    1    2    0    0  0.43288951155E+00 -0.29062083120E+00  0.18726553306E+00  0.10893879826E+01  0.93800000000E+00 0. -1.
         22    1    1    2    0    0 -0.27667514427E+00  0.17478123464E+00  0.25700125671E+01  0.25907647926E+01  0.00000000000E+00 0.  1.
</event>
<event>
 5    1  0.3005426E+001  0.1599677E+01  0.7818608E-02  0.3353714E+00
         11   -1    0    0    0    0  0.00000000000E+00  0.00000000000E+00  0.39999999674E+01  0.40000000000E+01  0.51100000000E-03 0.  1.
    9000002   -1    0    0    0    0 -0.00000000000E+00 -0.00000000000E+00  0.00000000000E+00  0.93800000000E+00  0.93800000000E+00 0. -1.
         11    1    1    2    0    0  0.37120906896E+00 -0.26711975363E+00  0.12601105977E+01  0.13405327729E+01  0.51100000000E-03 0.  1.
    9000002    1    1    2    0    0 -0.88145817952E+00  0.63476306062E+00  0.10049105551E+01  0.17520222285E+01  0.93800000000E+00 0. -1.
         22    1    1    2    0    0  0.51024911056E+00 -0.36764330698E+00  0.17349788145E+01  0.18454449986E+01  0.00000000000E+00 0.  1.
</event>
<event>
 5    1  0.3005426E+001  0.1515498E+01  0.7818608E-02  0.3450516E+00
         11   -1    0    0    0    0  0.00000000000E+00  0.00000000000E+00  0.39999999674E+01  0.40000000000E+01  0.51100000000E-03 0. -1.
    9000002   -1    0    0    0    0 -0.00000000000E+00 -0.00000000000E+00  0.00000000000E+00  0.93800000000E+00  0.93800000000E+00 0.  1.
         11    1    1    2    0    0 -0.26343003446E+00 -0.20262704843E-01  0.69262583695E+00  0.74130747427E+00  0.51100000000E-03 0. -1.
    9000002    1    1    2    0    0 -0.30542058448E-01  0.16025171354E+00  0.82748259223E-01  0.95566976693E+00  0.93800000000E+00 0.  1.
         22    1    1    2    0    0  0.29397209291E+00 -0.13998900870E+00  0.32246258712E+01  0.32410227588E+01  0.00000000000E+00 0. -1.
</event>
<event>
 5    1  0.3005426E+001  0.1599611E+01  0.7818608E-02  0.3353786E+00
         11   -1    0    0    0    0  0.00000000000E+00  0.00000000000E+00  0.39999999674E+01  0.40000000000E+01  0.51100000000E-03 0. -1.
    9000002   -1    0    0    0    0 -0.00000000000E+00 -0.00000000000E+00  0.00000000000E+00  0.93800000000E+00  0.93800000000E+00 0.  1.
         11    1    1    2    0    0 -0.27858481850E-02  0.42282770878E-02  0.39835571138E-01  0.40159346685E-01  0.51100000000E-03 0. -1.
    9000002    1    1    2    0    0  0.96243675300E-01 -0.35472272394E+00  0.90814227039E-01  0.10115247302E+01  0.93800000000E+00 0.  1.
         22    1    1    2    0    0 -0.93457827115E-01  0.35049444685E+00  0.38693501692E+01  0.38863159231E+01  0.00000000000E+00 0. -1.
</event>
<event>
 5    1  0.3005426E+001  0.1599392E+01  0.7818608E-02  0.3354024E+00
         11   -1    0    0    0    0  0.00000000000E+00  0.00000000000E+00  0.39999999674E+01  0.40000000000E+01  0.51100000000E-03 0.  1.
    9000002   -1    0    0    0    0 -0.00000000000E+00 -0.00000000000E+00  0.00000000000E+00  0.93800000000E+00  0.93800000000E+00 0.  1.
         11    1    1    2    0    0 -0.31655797149E-01 -0.71781907769E-01  0.58553302777E+00  0.59076553683E+00  0.51100000000E-03 0.  1.
    9000002    1    1    2    0    0  0.27856361167E+00  0.51916857073E+00  0.24192258391E+00  0.11338007881E+01  0.93800000000E+00 0.  1.
         22    1    1    2    0    0 -0.24690781452E+00 -0.44738666296E+00  0.31725443557E+01  0.32134336750E+01  0.00000000000E+00 0.  1.
</event>
<event>
 5    1  0.3005426E+001  0.1599675E+01  0.7818608E-02  0.3353716E+00
         11   -1    0    0    0    0  0.00000000000E+00  0.00000000000E+00  0.39999999674E+01  0.40000000000E+01  0.51100000000E-03 0. -1.
    9000002   -1    0    0    0    0 -0.00000000000E+00 -0.00000000000E+00  0.00000000000E+00  0.93800000000E+00  0.93800000000E+00 0.  1.
         11    1    1    2    0    0 -0.17863866871E-01 -0.30372491160E-01  0.34004157678E+00  0.34186275173E+00  0.51100000000E-03 0. -1.
    9000002    1    1    2    0    0  0.20509079487E+00  0.35639904996E+00  0.11421777102E+00  0.10305203618E+01  0.93800000000E+00 0.  1.
         22    1    1    2    0    0 -0.18722692800E+00 -0.32602655880E+00  0.35457406196E+01  0.35656168864E+01  0.00000000000E+00 0. -1.
</event>
<event>
 5    1  0.3005426E+001  0.1593215E+01  0.7818608E-02  0.3360761E+00
         11   -1    0    0    0    0  0.00000000000E+00  0.00000000000E+00  0.39999999674E+01  0.40000000000E+01  0.51100000000E-03 0. -1.
    9000002   -1    0    0    0    0 -0.00000000000E+00 -0.00000000000E+00  0.00000000000E+00  0.93800000000E+00  0.93800000000E+00 0. -1.
         11    1    1    2    0    0 -0.14427572740E+00  0.68692895492E-01  0.12062084717E+01  0.12167470311E+01  0.51100000000E-03 0. -1.
    9000002    1    1    2    0    0  0.32905760109E+00 -0.46924404142E+00  0.23416974527E+00  0.11238987254E+01  0.93800000000E+00 0. -1.
         22    1    1    2    0    0 -0.18478187369E+00  0.40055114593E+00  0.25596217504E+01  0.25973542436E+01  0.00000000000E+00 0. -1.
</event>
<event>
 5    1  0.3005426E+001  0.1599164E+01  0.7818608E-02  0.3354271E+00
         11   -1    0    0    0    0  0.00000000000E+00  0.00000000000E+00  0.39999999674E+01  0.40000000000E+01  0.51100000000E-03 0. -1.
    9000002   -1    0    0    0    0 -0.00000000000E+00 -0.00000000000E+00  0.00000000000E+00  0.93800000000E+00  0.93800000000E+00 0.  1.
         11    1    1    2    0    0 -0.10311737992E+00  0.39042513777E-01  0.10241860865E+01  0.10301043214E+01  0.51100000000E-03 0. -1.
    9000002    1    1    2    0    0  0.33629082041E+00 -0.22072683722E+00  0.10960466956E+00  0.10264838217E+01  0.93800000000E+00 0.  1.
         22    1    1    2    0    0 -0.23317344048E+00  0.18168432344E+00  0.28662092113E+01  0.28814118570E+01  0.00000000000E+00 0. -1.
</event>
<event>
 5    1  0.3005426E+001  0.1599669E+01  0.7818608E-02  0.3353722E+00
         11   -1    0    0    0    0  0.00000000000E+00  0.00000000000E+00  0.39999999674E+01  0.40000000000E+01  0.51100000000E-03 0. -1.
    9000002   -1    0    0    0    0 -0.00000000000E+00 -0.00000000000E+00  0.00000000000E+00  0.93800000000E+00  0.93800000000E+00 0. -1.
         11    1    1    2    0    0 -0.70557608534E-01  0.13213820515E+00  0.93425508961E+00  0.94618799135E+00  0.51100000000E-03 0. -1.
    9000002    1    1    2    0    0  0.29389238872E+00 -0.53158854470E+00  0.25784201534E+00  0.11468590244E+01  0.93800000000E+00 0. -1.
         22    1    1    2    0    0 -0.22333478019E+00  0.39945033955E+00  0.28079028624E+01  0.28449529842E+01  0.00000000000E+00 0. -1.
</event>
<event>
 5    1  0.3005426E+001  0.1589991E+01  0.7818608E-02  0.3364299E+00
         11   -1    0    0    0    0  0.00000000000E+00  0.00000000000E+00  0.39999999674E+01  0.40000000000E+01  0.51100000000E-03 0.  1.
    9000002   -1    0    0    0    0 -0.00000000000E+00 -0.00000000000E+00  0.00000000000E+00  0.93800000000E+00  0.93800000000E+00 0.  1.
         11    1    1    2    0    0 -0.47370347943E-01  0.20977418353E-01  0.98873044414E-01  0.11162500606E+00  0.51100000000E-03 0.  1.
    9000002    1    1    2    0    0  0.46463855797E+00 -0.14422690591E+00  0.17034048340E+00  0.10703038215E+01  0.93800000000E+00 0.  1.
         22    1    1    2    0    0 -0.41726821002E+00  0.12324948756E+00  0.37307864395E+01  0.37560711725E+01  0.00000000000E+00 0.  1.
</event>
<event>
 5    1  0.3005426E+001  0.1594613E+01  0.7818608E-02  0.3359231E+00
         11   -1    0    0    0    0  0.00000000000E+00  0.00000000000E+00  0.39999999674E+01  0.40000000000E+01  0.51100000000E-03 0. -1.
    9000002   -1    0    0    0    0 -0.00000000000E+00 -0.00000000000E+00  0.00000000000E+00  0.93800000000E+00  0.93800000000E+00 0. -1.
         11    1    1    2    0    0  0.93308350790E-01 -0.11210557522E+00  0.58581218711E+00  0.60369718238E+00  0.51100000000E-03 0. -1.
    9000002    1    1    2    0    0 -0.30381988454E+00  0.45034561448E+00  0.20834229640E+00  0.11037971767E+01  0.93800000000E+00 0. -1.
         22    1    1    2    0    0  0.21051153375E+00 -0.33824003925E+00  0.32058454838E+01  0.32305056410E+01  0.00000000000E+00 0. -1.
</event>
<event>
 5    1  0.3005426E+001  0.1599675E+01  0.7818608E-02  0.3353716E+00
         11   -1    0    0    0    0  0.00000000000E+00  0.00000000000E+00  0.39999999674E+01  0.40000000000E+01  0.51100000000E-03 0.  1.
    9000002   -1    0    0    0    0 -0.00000000000E+00 -0.00000000000E+00  0.00000000000E+00  0.93800000000E+00  0.93800000000E+00 0. -1.
         11    1    1    2    0    0  0.63970897683E-01  0.31978731415E-01  0.76132740090E+00  0.76467940177E+00  0.51100000000E-03 0.  1.
    9000002    1    1    2    0    0 -0.33524343812E+00 -0.16492151808E+00  0.93849854355E-01  0.10140212350E+01  0.93800000000E+00 0. -1.
         22    1    1    2    0    0  0.27127254044E+00  0.13294278667E+00  0.31448227121E+01  0.31592993632E+01  0.00000000000E+00 0.  1.
</event>
<event>
 5    1  0.3005426E+001  0.1597717E+01  0.7818608E-02  0.3355845E+00
         11   -1    0    0    0    0  0.00000000000E+00  0.00000000000E+00  0.39999999674E+01  0.40000000000E+01  0.51100000000E-03 0. -1.
    9000002   -1    0    0    0    0 -0.00000000000E+00 -0.00000000000E+00  0.00000000000E+00  0.93800000000E+00  0.93800000000E+00 0.  1.
         11    1    1    2    0    0 -0.74039048316E-01 -0.43727842571E-01  0.10349922394E+01  0.10385581840E+01  0.51100000000E-03 0. -1.
    9000002    1    1    2    0    0  0.17083008351E+00  0.30565897326E+00  0.83792753216E-01  0.10047266050E+01  0.93800000000E+00 0.  1.
         22    1    1    2    0    0 -0.96791035193E-01 -0.26193113069E+00  0.28812149748E+01  0.28947152109E+01  0.00000000000E+00 0. -1.
</event>
<event>
 5    1  0.3005426E+001  0.1599673E+01  0.7818608E-02  0.3353718E+00
         11   -1    0    0    0    0  0.00000000000E+00  0.00000000000E+00  0.39999999674E+01  0.40000000000E+01  0.51100000000E-03 0. -1.
    9000002   -1    0    0    0    0 -0.00000000000E+00 -0.00000000000E+00  0.00000000000E+00  0.93800000000E+00  0.93800000000E+00 0. -1.
         11    1    1    2    0    0  0.88562639320E-01 -0.12967265634E+00  0.13577363140E+01  0.13667869250E+01  0.51100000000E-03 0. -1.
    9000002    1    1    2    0    0 -0.25819272945E+00  0.36726214672E+00  0.13686809100E+00  0.10488669335E+01  0.93800000000E+00 0. -1.
         22    1    1    2    0    0  0.16963009013E+00 -0.23758949038E+00  0.25053955623E+01  0.25223461414E+01  0.00000000000E+00 0. -1.
</event>
<event>
 5    1  0.3005426E+001  0.1599254E+01  0.7818608E-02  0.3354174E+00
         11   -1    0    0    0    0  0.00000000000E+00  0.00000000000E+00  0.39999999674E+01  0.40000000000E+01  0.51100000000E-03 0. -1.
    9000002   -1    0    0    0    0 -0.00000000000E+00 -0.00000000000E+00  0.00000000000E+00  0.93800000000E+00  0.93800000000E+00 0. -1.
         11    1    1    2    0    0  0.68325592474E-01 -0.41125364146E-01  0.93569943838E+00  0.93909178586E+00  0.51100000000E-03 0. -1.
    9000002    1    1    2    0    0 -0.28579801458E+00  0.25964133982E+00  0.10074059315E+00  0.10193560701E+01  0.93800000000E+00 0. -1.
         22    1    1    2    0    0  0.21747242210E+00 -0.21851597567E+00  0.29635599358E+01  0.29795521441E+01  0.00000000000E+00 0. -1.
</event>
<event>
 5    1  0.3005426E+001  0.1590808E+01  0.7818608E-02  0.3363401E+00
         11   -1    0    0    0    0  0.00000000000E+00  0.00000000000E+00  0.39999999674E+01  0.40000000000E+01  0.51100000000E-03 0. -1.
    9000002   -1    0    0    0    0 -0.00000000000E+00 -0.00000000000E+00  0.00000000000E+00  0.93800000000E+00  0.93800000000E+00 0. -1.
         11    1    1    2    0    0 -0.10105901765E-01  0.85286144959E-01  0.41939268023E+00  0.42809617742E+00  0.51100000000E-03 0. -1.
    9000002    1    1    2    0    0  0.45115457658E+00 -0.23877077021E+00  0.18678794412E+00  0.10841059306E+01  0.93800000000E+00 0. -1.
         22    1    1    2    0    0 -0.44104867481E+00  0.15348462525E+00  0.33938193430E+01  0.34257978920E+01  0.00000000000E+00 0. -1.
</event>
<event>
 5    1  0.3005426E+001  0.1599613E+01  0.7818608E-02  0.3353783E+00
         11   -1    0    0    0    0  0.00000000000E+00  0.00000000000E+00  0.39999999674E+01  0.40000000000E+01  0.51100000000E-03 0.  1.
    9000002   -1    0    0    0    0 -0.00000000000E+00 -0.00000000000E+00  0.00000000000E+00  0.93800000000E+00  0.93800000000E+00 0.  1.
         11    1    1    2    0    0  0.90917991676E-02 -0.23856338620E-01  0.34038283759E+00  0.34133930766E+00  0.51100000000E-03 0.  1.
    9000002    1    1    2    0    0 -0.14484798740E+00  0.32189176157E+00  0.83621262859E-01  0.10056996377E+01  0.93800000000E+00 0.  1.
         22    1    1    2    0    0  0.13575618823E+00 -0.29803542295E+00  0.35759958669E+01  0.35909610547E+01  0.00000000000E+00 0.  1.
</event>
<event>
 5    1  0.3005426E+001  0.1589301E+01  0.7818608E-02  0.3365058E+00
         11   -1    0    0    0    0  0.00000000000E+00  0.00000000000E+00  0.39999999674E+01  0.40000000000E+01  0.51100000000E-03 0.  1.
    9000002   -1    0    0    0    0 -0.00000000000E+00 -0.00000000000E+00  0.00000000000E+00  0.93800000000E+00  0.93800000000E+00 0.  1.
         11    1    1    2    0    0 -0.57475160545E-01  0.37131668744E-01  0.12474829142E+01  0.12493582501E+01  0.51100000000E-03 0.  1.
    9000002    1    1    2    0    0  0.51438457939E+00 -0.14067744691E-01  0.19124711406E+00  0.10868343276E+01  0.93800000000E+00 0.  1.
         22    1    1    2    0    0 -0.45690941885E+00 -0.23063924053E-01  0.25612699391E+01  0.26018074223E+01  0.00000000000E+00 0.  1.
</event>
<event>
 5    1  0.3005426E+001  0.1599676E+01  0.7818608E-02  0.3353715E+00
         11   -1    0    0    0    0  0.00000000000E+00  0.00000000000E+00  0.39999999674E+01  0.40000000000E+01  0.51100000000E-03 0.  1.
    9000002   -1    0    0    0    0 -0.00000000000E+00 -0.00000000000E+00  0.00000000000E+00  0.93800000000E+00  0.93800000000E+00 0.  1.
         11    1    1    2    0    0 -0.10989347837E+00  0.91929714111E-01  0.79694719119E+00  0.80972386379E+00  0.51100000000E-03 0. -1.
    9000002    1    1    2    0    0  0.50612094966E+00 -0.42766275866E+00  0.31077106445E+00  0.11897379986E+01  0.93800000000E+00 0.  1.
         22    1    1    2    0    0 -0.39622747129E+00  0.33573304454E+00  0.28922817117E+01  0.29385381376E+01  0.00000000000E+00 0.  1.
</event>
<event>
 5    1  0.3005426E+001  0.1599676E+01  0.7818608E-02  0.3353715E+00
         11   -1    0    0    0    0  0.00000000000E+00  0.00000000000E+00  0.39999999674E+01  0.40000000000E+01  0.51100000000E-03 0.  1.
    9000002   -1    0    0    0    0 -0.00000000000E+00 -0.00000000000E+00  0.00000000000E+00  0.93800000000E+00  0.93800000000E+00 0.  1.
         11    1    1    2    0    0  0.93599627097E-01 -0.13439295780E+00  0.13861265313E+01  0.13957683831E+01  0.51100000000E-03 0.  1.
    9000002    1    1    2    0    0 -0.26380958048E+00  0.37439763222E+00  0.14264291668E+00  0.10535464316E+01  0.93800000000E+00 0.  1.
         22    1    1    2    0    0  0.17020995338E+00 -0.24000467442E+00  0.24712305194E+01  0.24886851854E+01  0.00000000000E+00 0.  1.
</event>
<event>
 5    1  0.3005426E+001  0.1599647E+01  0.7818608E-02  0.3353746E+00
         11   -1    0    0    0    0  0.00000000000E+00  0.00000000000E+00  0.39999999674E+01  0.40000000000E+01  0.51100000000E-03 0.  1.
    9000002   -1    0    0    0    0 -0.00000000000E+00 -0.00000000000E+00  0.00000000000E+00  0.93800000000E+00  0.93800000000E+00 0.  1.
         11    1    1    2    0    0 -0.11481275315E+00  0.17477115503E-01  0.13165384809E+01  0.13216509565E+01  0.51100000000E-03 0.  1.
    9000002    1    1    2    0    0  0.35603422050E+00 -0.40903733369E-01  0.86220551070E-01  0.10078251163E+01  0.93800000000E+00 0.  1.
         22    1    1    2    0    0 -0.24122146735E+00  0.23426617866E-01  0.25972409354E+01  0.26085239272E+01  0.00000000000E+00 0.  1.
</event>
<event>
 5    1  0.3005426E+001  0.1599672E+01  0.7818608E-02  0.3353719E+00
         11   -1    0    0    0    0  0.00000000000E+00  0.00000000000E+00  0.39999999674E+01  0.40000000000E+01  0.51100000000E-03 0. -1.
    9000002   -1    0    0    0    0 -0.00000000000E+00 -0.00000000000E+00  0.00000000000E+00  0.93800000000E+00  0.93800000000E+00 0. -1.
         11    1    1    2    0    0  0.87778478561E-01 -0.82154668877E-02  0.76408537713E+00  0.76915491279E+00  0.51100000000E-03 0. -1.
    9000002    1    1    2    0    0 -0.43932528693E+00  0.32293391877E-01  0.13161758172E+00  0.10446132101E+01  0.93800000000E+00 0. -1.
         22    1    1    2    0    0  0.35154680837E+00 -0.24077924989E-01  0.31042970085E+01  0.31242318771E+01  0.00000000000E+00 0. -1.
</event>
<event>
 5    1  0.3005426E+001  0.1599674E+01  0.7818608E-02  0.3353718E+00
         11   -1    0    0    0    0  0.00000000000E+00  0.00000000000E+00  0.39999999674E+01  0.40000000000E+01  0.51100000000E-03 0. -1.
    9000002   -1    0    0    0    0 -0.00000000000E+00 -0.00000000000E+00  0.00000000000E+00  0.93800000000E+00  0.93800000000E+00 0. -1.
         11    1    1    2    0    0 -0.69042675629E-01  0.23945516831E-01  0.79232759424E+00  0.79569061610E+00  0.51100000000E-03 0.  1.
    9000002    1    1    2    0    0  0.34532241285E+00 -0.11079541850E+00  0.88316147389E-01  0.10095379812E+01  0.93800000000E+00 0. -1.
         22    1    1    2    0    0 -0.27627973722E+00  0.86849901668E-01  0.31193562257E+01  0.31327714027E+01  0.00000000000E+00 0. -1.
</event>
<event>
 5    1  0.3005426E+001  0.1599658E+01  0.7818608E-02  0.3353735E+00
         11   -1    0    0    0    0  0.00000000000E+00  0.00000000000E+00  0.39999999674E+01  0.40000000000E+01  0.51100000000E-03 0.  1.
    9000002   -1    0    0    0    0 -0.00000000000E+00 -0.00000000000E+00  0.00000000000E+00  0.93800000000E+00  0.93800000000E+00 0. -1.
         11    1    1    2    0    0  0.33142309392E-01  0.32335052529E-01  0.40456006441E+00  0.40720151661E+00  0.51100000000E-03 0.  1.
    9000002    1    1    2    0    0 -0.29954679952E+00 -0.28566997415E+00  0.11579657615E+00  0.10317889640E+01  0.93800000000E+00 0. -1.
         22    1    1    2    0    0  0.26640449012E+00  0.25333492162E+00  0.34796433268E+01  0.34990095194E+01  0.00000000000E+00 0.  1.
</event>
<event>
 5    1  0.3005426E+001  0.1498510E+01  0.7818608E-02  0.3471463E+00
         11   -1    0    0    0    0  0.00000000000E+00  0.00000000000E+00  0.39999999674E+01  0.40000000000E+01  0.51100000000E-03 0.  1.
    9000002   -1    0    0    0    0 -0.00000000000E+00 -0.00000000000E+00  0.00000000000E+00  0.93800000000E+00  0.93800000000E+00 0.  1.
         11    1    1    2    0    0  0.28659057260E+00  0.14985232783E+00  0.10349719394E+01  0.10843233156E+01  0.51100000000E-03 0.  1.
    9000002    1    1    2    0    0  0.83332720771E-01 -0.38220703605E-01  0.83283567989E-01  0.94614233455E+00  0.93800000000E+00 0.  1.
         22    1    1    2    0    0 -0.36992329337E+00 -0.11163162422E+00  0.28817444600E+01  0.29075343498E+01  0.00000000000E+00 0.  1.
</event>
<event>
 5    1  0.3005426E+001  0.1599670E+01  0.7818608E-02  0.3353722E+00
         11   -1    0    0    0    0  0.00000000000E+00  0.00000000000E+00  0.39999999674E+01  0.40000000000E+01  0.51100000000E-03 0. -1.
    9000002   -1    0    0    0    0 -0.00000000000E+00 -0.00000000000E+00  0.00000000000E+00  0.93800000000E+00  0.93800000000E+00 0. -1.
         11    1    1    2    0    0 -0.11272661584E+00  0.63521561688E-01  0.12841982131E+01  0.12907004263E+01  0.51100000000E-03 0. -1.
    9000002    1    1    2    0    0  0.33326067432E+00 -0.19311459689E+00  0.99888532735E-01  0.10189100272E+01  0.93800000000E+00 0. -1.
         22    1    1    2    0    0 -0.22053405848E+00  0.12959303520E+00  0.26159132215E+01  0.26283895465E+01  0.00000000000E+00 0. -1.
</event>
<event>
 5    1  0.3005426E+001  0.1488093E+01  0.7818608E-02  0.3484562E+00
         11   -1    0    0    0    0  0.00000000000E+00  0.00000000000E+00  0.39999999674E+01  0.40000000000E+01  0.51100000000E-03 0. -1.
    9000002   -1    0    0    0    0 -0.00000000000E+00 -0.00000000000E+00  0.00000000000E+00  0.93800000000E+00  0.93800000000E+00 0.  1.
         11    1    1    2    0    0  0.13556193967E+00  0.15961785799E+00  0.15750604893E+00  0.26203686124E+00  0.51100000000E-03 0. -1.
    9000002    1    1    2    0    0 -0.45149864921E+00 -0.22246214690E+00  0.28241000658E+00  0.11013354842E+01  0.93800000000E+00 0.  1.
         22    1    1    2    0    0  0.31593670954E+00  0.62844288907E-01  0.35600839118E+01  0.35746276545E+01  0.00000000000E+00 0. -1.
</event>
<event>
 5    1  0.3005426E+001  0.1599677E+01  0.7818608E-02  0.3353714E+00
         11   -1    0    0    0    0  0.00000000000E+00  0.00000000000E+00  0.39999999674E+01  0.40000000000E+01  0.51100000000E-03 0.  1.
    9000002   -1    0    0    0    0 -0.00000000000E+00 -0.00000000000E+00  0.00000000000E+00  0.93800000000E+00  0.93800000000E+00 0. -1.
         11    1    1    2    0    0 -0.46373152281E-01  0.13011419212E+00  0.11284047975E+01  0.11368279643E+01  0.51100000000E-03 0.  1.
    9000002    1    1    2    0    0  0.15678074977E+00 -0.44535654300E+00  0.15191602917E+00  0.10610584969E+01  0.93800000000E+00 0. -1.
         22    1    1    2    0    0 -0.11040759749E+00  0.31524235088E+00  0.27196791407E+01  0.27401135388E+01  0.00000000000E+00 0.  1.
</event>
<event>
 5    1  0.3005426E+001  0.1599674E+01  0.7818608E-02  0.3353717E+00
         11   -1    0    0    0    0  0.00000000000E+00  0.00000000000E+00  0.39999999674E+01  0.40000000000E+01  0.51100000000E-03 0. -1.
    9000002   -1    0    0    0    0 -0.00000000000E+00 -0.00000000000E+00  0.00000000000E+00  0.93800000000E+00  0.93800000000E+00 0. -1.
         11    1    1    2    0    0 -0.11611830273E-01 -0.53173727183E-01  0.54325880351E+00  0.54597863381E+00  0.51100000000E-03 0. -1.
    9000002    1    1    2    0    0  0.92830050461E-01  0.38361578836E+00  0.10500705748E+00  0.10230586364E+01  0.93800000000E+00 0. -1.
         22    1    1    2    0    0 -0.81218220188E-01 -0.33044206117E+00  0.33517341064E+01  0.33689627298E+01  0.00000000000E+00 0. -1.
</event>
<event>
 5    1  0.3005426E+001  0.1596932E+01  0.7818608E-02  0.3356700E+00
         11   -1    0    0    0    0  0.00000000000E+00  0.00000000000E+00  0.39999999674E+01  0.40000000000E+01  0.51100000000E-03 0. -1.
    9000002   -1    0    0    0    0 -0.00000000000E+00 -0.00000000000E+00  0.00000000000E+00  0.93800000000E+00  0.93800000000E+00 0. -1.
         11    1    1    2    0    0 -0.20544385728E-01  0.99904507480E-01  0.54648421484E+00  0.55592107407E+00  0.51100000000E-03 0. -1.
    9000002    1    1    2    0    0  0.22705953799E+00 -0.40297207403E+00  0.14797854061E+00  0.10562595205E+01  0.93800000000E+00 0. -1.
         22    1    1    2    0    0 -0.20651515226E+00  0.30306756655E+00  0.33055372119E+01  0.33258194054E+01  0.00000000000E+00 0. -1.
</event>
<event>
 5    1  0.3005426E+001  0.1599668E+01  0.7818608E-02  0.3353724E+00
         11   -1    0    0    0    0  0.00000000000E+00  0.00000000000E+00  0.39999999674E+01  0.40000000000E+01  0.51100000000E-03 0. -1.
    9000002   -1    0    0    0    0 -0.00000000000E+00 -0.00000000000E+00  0.00000000000E+00  0.93800000000E+00  0.93800000000E+00 0. -1.
         11    1    1    2    0    0  0.35158567540E-01 -0.30076087054E+00  0.20757222077E+00  0.36712356786E+00  0.51100000000E-03 0. -1.
    9000002    1    1    2    0    0 -0.12402422007E+00  0.11466091268E+01  0.32173712592E+01  0.35442088421E+01  0.93800000000E+00 0. -1.
         22    1    1    2    0    0  0.88865652531E-01 -0.84584825624E+00  0.57505648742E+00  0.10266675901E+01  0.00000000000E+00 0. -1.
</event>
<event>
 5    1  0.3005426E+001  0.1554408E+01  0.7818608E-02  0.3404384E+00
         11   -1    0    0    0    0  0.00000000000E+00  0.00000000000E+00  0.39999999674E+01  0.40000000000E+01  0.51100000000E-03 0. -1.
    9000002   -1    0    0    0    0 -0.00000000000E+00 -0.00000000000E+00  0.00000000000E+00  0.93800000000E+00  0.93800000000E+00 0.  1.
         11    1    1    2    0    0 -0.95730136235E-01 -0.26081150324E+00  0.14487680169E+01  0.14751664066E+01  0.51100000000E-03 0. -1.
    9000002    1    1    2    0    0  0.17638401954E+00  0.42454015709E-01  0.56273087848E-01  0.95703935458E+00  0.93800000000E+00 0.  1.
         22    1    1    2    0    0 -0.80653883303E-01  0.21835748753E+00  0.24949588626E+01  0.25057942388E+01  0.00000000000E+00 0. -1.
</event>
<event>
 5    1  0.3005426E+001  0.1599675E+01  0.7818608E-02  0.3353717E+00
         11   -1    0    0    0    0  0.00000000000E+00  0.00000000000E+00  0.39999999674E+01  0.40000000000E+01  0.51100000000E-03 0.  1.
    9000002   -1    0    0    0    0 -0.00000000000E+00 -0.00000000000E+00  0.00000000000E+00  0.93800000000E+00  0.93800000000E+00 0. -1.
         11    1    1    2    0    0 -0.15055022547E+00 -0.96930257776E-02  0.12872260018E+01  0.12960364061E+01  0.51100000000E-03 0.  1.
    9000002    1    1    2    0    0  0.45278536018E+00  0.23998842213E-01  0.13970668823E+00  0.10511672015E+01  0.93800000000E+00 0. -1.
         22    1    1    2    0    0 -0.30223513471E+00 -0.14305816436E-01  0.25730672773E+01  0.25907963923E+01  0.00000000000E+00 0.  1.
</event>
<event>
 5    1  0.3005426E+001  0.1599659E+01  0.7818608E-02  0.3353734E+00
         11   -1    0    0    0    0  0.00000000000E+00  0.00000000000E+00  0.39999999674E+01  0.40000000000E+01  0.51100000000E-03 0. -1.
    9000002   -1    0    0    0    0 -0.00000000000E+00 -0.00000000000E+00  0.00000000000E+00  0.93800000000E+00  0.93800000000E+00 0. -1.
         11    1    1    2    0    0 -0.10622241925E+00 -0.68787291079E-01  0.13578335856E+01  0.13637181531E+01  0.51100000000E-03 0. -1.
    9000002    1    1    2    0    0  0.31746308231E+00  0.20497192840E+00  0.96069334926E-01  0.10158098332E+01  0.93800000000E+00 0. -1.
         22    1    1    2    0    0 -0.21124066306E+00 -0.13618463732E+00  0.25460970468E+01  0.25584720137E+01  0.00000000000E+00 0. -1.
</event>
<event>
 5    1  0.3005426E+001  0.1475494E+01  0.7818608E-02  0.3500674E+00
         11   -1    0    0    0    0  0.00000000000E+00  0.00000000000E+00  0.39999999674E+01  0.40000000000E+01  0.51100000000E-03 0. -1.
    9000002   -1    0    0    0    0 -0.00000000000E+00 -0.00000000000E+00  0.00000000000E+00  0.93800000000E+00  0.93800000000E+00 0.  1.
         11    1    1    2    0    0  0.30982689521E+00 -0.15801983883E+00  0.42636762651E+00  0.55022957801E+00  0.51100000000E-03 0. -1.
    9000002    1    1    2    0    0 -0.60993565976E+00 -0.13311408290E+00  0.41371505072E+00  0.12003103812E+01  0.93800000000E+00 0.  1.
         22    1    1    2    0    0  0.30010876455E+00  0.29113392173E+00  0.31599172901E+01  0.31874600407E+01  0.00000000000E+00 0. -1.
</event>
<event>
 5    1  0.3005426E+001  0.1599673E+01  0.7818608E-02  0.3353718E+00
         11   -1    0    0    0    0  0.00000000000E+00  0.00000000000E+00  0.39999999674E+01  0.40000000000E+01  0.51100000000E-03 0.  1.
    9000002   -1    0    0    0    0 -0.00000000000E+00 -0.00000000000E+00  0.00000000000E+00  0.93800000000E+00  0.93800000000E+00 0.  1.
         11    1    1    2    0    0 -0.62338679786E-01  0.10595633240E+00  0.12598506335E+01  0.12658344027E+01  0.51100000000E-03 0.  1.
    9000002    1    1    2    0    0  0.19720599844E+00 -0.33302861927E+00  0.10088008415E+00  0.10197151850E+01  0.93800000000E+00 0.  1.
         22    1    1    2    0    0 -0.13486731866E+00  0.22707228687E+00  0.26392692497E+01  0.26524504123E+01  0.00000000000E+00 0.  1.
</event>
<event>
 5    1  0.3005426E+001  0.1599488E+01  0.7818608E-02  0.3353920E+00
         11   -1    0    0    0    0  0.00000000000E+00  0.00000000000E+00  0.39999999674E+01  0.40000000000E+01  0.51100000000E-03 0.  1.
    9000002   -1    0    0    0    0 -0.00000000000E+00 -0.00000000000E+00  0.00000000000E+00  0.93800000000E+00  0.93800000000E+00 0.  1.
         11    1    1    2    0    0  0.11123320774E+00  0.84976480662E-01  0.13117865660E+01  0.13192339006E+01  0.51100000000E-03 0.  1.
    9000002    1    1    2    0    0 -0.28440532050E+00 -0.24997575587E+00  0.96607387467E-01  0.10161452909E+01  0.93800000000E+00 0.  1.
         22    1    1    2    0    0  0.17317211277E+00  0.16499927521E+00  0.25916060139E+01  0.26026208085E+01  0.00000000000E+00 0.  1.
</event>
<event>
 5    1  0.3005426E+001  0.1599282E+01  0.7818608E-02  0.3354143E+00
         11   -1    0    0    0    0  0.00000000000E+00  0.00000000000E+00  0.39999999674E+01  0.40000000000E+01  0.51100000000E-03 0. -1.
    9000002   -1    0    0    0    0 -0.00000000000E+00 -0.00000000000E+00  0.00000000000E+00  0.93800000000E+00  0.93800000000E+00 0. -1.
         11    1    1    2    0    0 -0.50611636297E-02  0.57427784694E-01  0.55942415977E+00  0.56238707087E+00  0.51100000000E-03 0. -1.
    9000002    1    1    2    0    0 -0.75008849730E-01 -0.36211575083E+00  0.92224280003E-01  0.10124739317E+01  0.93800000000E+00 0. -1.
         22    1    1    2    0    0  0.80070013359E-01  0.30468796614E+00  0.33483515276E+01  0.33631389974E+01  0.00000000000E+00 0. -1.
</event>
<event>
 5    1  0.3005426E+001  0.1596888E+01  0.7818608E-02  0.3356748E+00
         11   -1    0    0    0    0  0.00000000000E+00  0.00000000000E+00  0.39999999674E+01  0.40000000000E+01  0.51100000000E-03 0. -1.
    9000002   -1    0    0    0    0 -0.00000000000E+00 -0.00000000000E+00  0.00000000000E+00  0.93800000000E+00  0.93800000000E+00 0.  1.
         11    1    1    2    0    0 -0.13351350228E-01  0.85500371998E-02  0.65473319245E+00  0.65492532101E+00  0.51100000000E-03 0. -1.
    9000002    1    1    2    0    0  0.27138717408E+00 -0.25998635120E+00  0.97273047640E-01  0.10151600597E+01  0.93800000000E+00 0.  1.
         22    1    1    2    0    0 -0.25803582385E+00  0.25143631400E+00  0.32479937273E+01  0.32679146193E+01  0.00000000000E+00 0.  1.
</event>
<event>
 5    1  0.3848634E+001  0.1529316E+01  0.7818608E-02  0.3433846E+00
         11   -1    0    0    0    0  0.00000000000E+00  0.00000000000E+00  0.39999999674E+01  0.40000000000E+01  0.51100000000E-03 0.  1.
    9000002   -1    0    0    0    0 -0.00000000000E+00 -0.00000000000E+00  0.00000000000E+00  0.93800000000E+00  0.93800000000E+00 0.  1.
         11    1    1    2    0    0 -0.43456956810E-01  0.23744474562E+00  0.75126478353E+00  0.78909286552E+00  0.51100000000E-03 0.  1.
    9000002    1    1    2    0    0  0.98134131773E-01  0.71772116138E-01  0.63224936100E-01  0.94795724430E+00  0.93800000000E+00 0.  1.
         22    1    1    2    0    0 -0.54677174963E-01 -0.30921686176E+00  0.31855102477E+01  0.32009498902E+01  0.00000000000E+00 0.  1.
</event>
<event>
 5    1  0.3005426E+001  0.1599265E+01  0.7818608E-02  0.3354161E+00
         11   -1    0    0    0    0  0.00000000000E+00  0.00000000000E+00  0.39999999674E+01  0.40000000000E+01  0.51100000000E-03 0.  1.
    9000002   -1    0    0    0    0 -0.00000000000E+00 -0.00000000000E+00  0.00000000000E+00  0.93800000000E+00  0.93800000000E+00 0. -1.
         11    1    1    2    0    0 -0.76392647410E-01  0.13620773654E-01  0.61488206090E+00  0.61975928552E+00  0.51100000000E-03 0.  1.
    9000002    1    1    2    0    0  0.39734745688E+00 -0.13014785866E-01  0.10691964780E+00  0.10243681942E+01  0.93800000000E+00 0. -1.
         22    1    1    2    0    0 -0.32095480947E+00 -0.60598778870E-03  0.32781982587E+01  0.32938725203E+01  0.00000000000E+00 0.  1.
</event>
<event>
 5    1  0.3005426E+001  0.1599676E+01  0.7818608E-02  0.3353715E+00
         11   -1    0    0    0    0  0.00000000000E+00  0.00000000000E+00  0.39999999674E+01  0.40000000000E+01  0.51100000000E-03 0. -1.
    9000002   -1    0    0    0    0 -0.00000000000E+00 -0.00000000000E+00  0.00000000000E+00  0.93800000000E+00  0.93800000000E+00 0.  1.
         11    1    1    2    0    0  0.19808600382E+00  0.48854174177E-02  0.97403785156E+00  0.99398789208E+00  0.51100000000E-03 0. -1.
    9000002    1    1    2    0    0 -0.73235437580E+00 -0.20625218855E-01  0.38712947802E+00  0.12515916124E+01  0.93800000000E+00 0.  1.
         22    1    1    2    0    0  0.53426837198E+00  0.15739801437E-01  0.26388326378E+01  0.26924204955E+01  0.00000000000E+00 0. -1.
</event>
<event>
 5    1  0.3005426E+001  0.1598435E+01  0.7818608E-02  0.3355064E+00
         11   -1    0    0    0    0  0.00000000000E+00  0.00000000000E+00  0.39999999674E+01  0.40000000000E+01  0.51100000000E-03 0.  1.
    9000002   -1    0    0    0    0 -0.00000000000E+00 -0.00000000000E+00  0.00000000000E+00  0.93800000000E+00  0.93800000000E+00 0.  1.
         11    1    1    2    0    0  0.62335563367E-01 -0.11149464964E+00  0.12121323703E+01  0.12188445034E+01  0.51100000000E-03 0.  1.
    9000002    1    1    2    0    0 -0.14869440502E+00  0.46813441936E+00  0.16602548891E+00  0.10717594523E+01  0.93800000000E+00 0.  1.
         22    1    1    2    0    0  0.86358841650E-01 -0.35663976972E+00  0.26218421082E+01  0.26473960442E+01  0.00000000000E+00 0.  1.
</event>
<event>
 5    1  0.3005426E+001  0.1591728E+01  0.7818608E-02  0.3362391E+00
         11   -1    0    0    0    0  0.00000000000E+00  0.00000000000E+00  0.39999999674E+01  0.40000000000E+01  0.51100000000E-03 0. -1.
    9000002   -1    0    0    0    0 -0.00000000000E+00 -0.00000000000E+00  0.00000000000E+00  0.93800000000E+00  0.93800000000E+00 0. -1.
         11    1    1    2    0    0  0.23171882752E+00  0.87933769367E-01  0.14515950646E+01  0.14726012548E+01  0.51100000000E-03 0. -1.
    9000002    1    1    2    0    0 -0.44682060724E+00 -0.13832355480E-01  0.14255029530E+00  0.10488110296E+01  0.93800000000E+00 0. -1.
         22    1    1    2    0    0  0.21510177972E+00 -0.74101413887E-01  0.24058546074E+01  0.24165877156E+01  0.00000000000E+00 0.  1.
</event>
<event>
 5    1  0.3005426E+001  0.1599623E+01  0.7818608E-02  0.3353772E+00
         11   -1    0    0    0    0  0.00000000000E+00  0.00000000000E+00  0.39999999674E+01  0.40000000000E+01  0.51100000000E-03 0. -1.
    9000002   -1    0    0    0    0 -0.00000000000E+00 -0.00000000000E+00  0.00000000000E+00  0.93800000000E+00  0.93800000000E+00 0.  1.
         11    1    1    2    0    0 -0.84169660611E-02  0.11032391828E-01  0.16346274937E+00  0.16405148747E+00  0.51100000000E-03 0. -1.
    9000002    1    1    2    0    0  0.27424014768E+00 -0.30168921487E+00  0.11227865192E+00  0.10289191108E+01  0.93800000000E+00 0.  1.
         22    1    1    2    0    0 -0.26582318162E+00  0.29065682304E+00  0.37242585661E+01  0.37450294017E+01  0.00000000000E+00 0. -1.
</event>
<event>
 5    1  0.3005426E+001  0.1598854E+01  0.7818608E-02  0.3354608E+00
         11   -1    0    0    0    0  0.00000000000E+00  0.00000000000E+00  0.39999999674E+01  0.40000000000E+01  0.51100000000E-03 0. -1.
    9000002   -1    0    0    0    0 -0.00000000000E+00 -0.00000000000E+00  0.00000000000E+00  0.93800000000E+00  0.93800000000E+00 0.  1.
         11    1    1    2    0    0  0.59836747189E-02  0.48513949608E-02  0.95146368119E-01  0.95459063914E-01  0.51100000000E-03 0. -1.
    9000002    1    1    2    0    0  0.15919822387E+00 -0.36188426958E+00  0.10605080759E+00  0.10234232130E+01  0.93800000000E+00 0.  1.
         22    1    1    2    0    0 -0.16518189859E+00  0.35703287462E+00  0.37988027916E+01  0.38191177231E+01  0.00000000000E+00 0. -1.
</event>
<event>
 5    1  0.3005426E+001  0.1599663E+01  0.7818608E-02  0.3353729E+00
         11   -1    0    0    0    0  0.00000000000E+00  0.00000000000E+00  0.39999999674E+01  0.40000000000E+01  0.51100000000E-03 0. -1.
    9000002   -1    0    0    0    0 -0.00000000000E+00 -0.00000000000E+00  0.00000000000E+00  0.93800000000E+00  0.93800000000E+00 0. -1.
         11    1    1    2    0    0 -0.19694401025E+00  0.81652065559E-01  0.13673210994E+01  0.13838429293E+01  0.51100000000E-03 0. -1.
    9000002    1    1    2    0    0  0.53089811197E+00 -0.22546943011E+00  0.23101247052E+00  0.11251222292E+01  0.93800000000E+00 0. -1.
         22    1    1    2    0    0 -0.33395410172E+00  0.14381736455E+00  0.24016663975E+01  0.24290348415E+01  0.00000000000E+00 0. -1.
</event>
<event>
 5    1  0.3005426E+001  0.1599657E+01  0.7818608E-02  0.3353735E+00
         11   -1    0    0    0    0  0.00000000000E+00  0.00000000000E+00  0.39999999674E+01  0.40000000000E+01  0.51100000000E-03 0. -1.
    9000002   -1    0    0    0    0 -0.00000000000E+00 -0.00000000000E+00  0.00000000000E+00  0.93800000000E+00  0.93800000000E+00 0. -1.
         11    1    1    2    0    0 -0.76821719565E-01 -0.13466740928E-01  0.83841987588E+00  0.84203983225E+00  0.51100000000E-03 0. -1.
    9000002    1    1    2    0    0  0.36132248553E+00  0.82855733720E-01  0.92374489608E-01  0.10128159050E+01  0.93800000000E+00 0. -1.
         22    1    1    2    0    0 -0.28450076596E+00 -0.69388992793E-01  0.30692056019E+01  0.30831442627E+01  0.00000000000E+00 0. -1.
</event>
<event>
 5    1  0.3005426E+001  0.1599669E+01  0.7818608E-02  0.3353722E+00
         11   -1    0    0    0    0  0.00000000000E+00  0.00000000000E+00  0.39999999674E+01  0.40000000000E+01  0.51100000000E-03 0. -1.
    9000002   -1    0    0    0    0 -0.00000000000E+00 -0.00000000000E+00  0.00000000000E+00  0.93800000000E+00  0.93800000000E+00 0. -1.
         11    1    1    2    0    0 -0.78872830626E-01 -0.22982954228E-01  0.85171589362E+00  0.85566895711E+00  0.51100000000E-03 0. -1.
    9000002    1    1    2    0    0  0.35152191451E+00  0.11269535976E+00  0.91574462442E-01  0.10121747787E+01  0.93800000000E+00 0. -1.
         22    1    1    2    0    0 -0.27264908389E+00 -0.89712405528E-01  0.30567096113E+01  0.30701562642E+01  0.00000000000E+00 0. -1.
</event>
<event>
 5    1  0.3005426E+001  0.1572335E+01  0.7818608E-02  0.3383949E+00
         11   -1    0    0    0    0  0.00000000000E+00  0.00000000000E+00  0.39999999674E+01  0.40000000000E+01  0.51100000000E-03 0.  1.
    9000002   -1    0    0    0    0 -0.00000000000E+00 -0.00000000000E+00  0.00000000000E+00  0.93800000000E+00  0.93800000000E+00 0. -1.
         11    1    1    2    0    0  0.15201400953E+00 -0.12406009041E+00  0.41999228395E+00  0.46356546983E+00  0.51100000000E-03 0.  1.
    9000002    1    1    2    0    0 -0.42038348443E+00  0.40662848625E+00  0.26516188895E+00  0.11367602329E+01  0.93800000000E+00 0. -1.
         22    1    1    2    0    0  0.26836947490E+00 -0.28256839584E+00  0.33148457945E+01  0.33376742972E+01  0.00000000000E+00 0.  1.
</event>
<event>
 5    1  0.3005426E+001  0.1598728E+01  0.7818608E-02  0.3354745E+00
         11   -1    0    0    0    0  0.00000000000E+00  0.00000000000E+00  0.39999999674E+01  0.40000000000E+01  0.51100000000E-03 0.  1.
    9000002   -1    0    0    0    0 -0.00000000000E+00 -0.00000000000E+00  0.00000000000E+00  0.93800000000E+00  0.93800000000E+00 0.  1.
         11    1    1    2    0    0  0.14072490355E-01  0.70322558475E-01  0.73912842511E+00  0.74259974895E+00  0.51100000000E-03 0.  1.
    9000002    1    1    2    0    0 -0.21401232340E+00 -0.30810099407E+00  0.95408343558E-01  0.10147286579E+01  0.93800000000E+00 0.  1.
         22    1    1    2    0    0  0.19993983305E+00  0.23777843560E+00  0.31654631987E+01  0.31806715932E+01  0.00000000000E+00 0.  1.
</event>
<event>
 5    1  0.3005426E+001  0.1599673E+01  0.7818608E-02  0.3353718E+00
         11   -1    0    0    0    0  0.00000000000E+00  0.00000000000E+00  0.39999999674E+01  0.40000000000E+01  0.51100000000E-03 0. -1.
    9000002   -1    0    0    0    0 -0.00000000000E+00 -0.00000000000E+00  0.00000000000E+00  0.93800000000E+00  0.93800000000E+00 0. -1.
         11    1    1    2    0    0 -0.23885527006E-01 -0.74666482472E-01  0.78643987033E+00  0.79033760683E+00  0.51100000000E-03 0. -1.
    9000002    1    1    2    0    0  0.11003541804E+00  0.37309244068E+00  0.10191972150E+00  0.10205573929E+01  0.93800000000E+00 0. -1.
         22    1    1    2    0    0 -0.86149891035E-01 -0.29842595820E+00  0.31116403755E+01  0.31271050003E+01  0.00000000000E+00 0. -1.
</event>
<event>
 5    1  0.3005426E+001  0.1599387E+01  0.7818608E-02  0.3354029E+00
         11   -1    0    0    0    0  0.00000000000E+00  0.00000000000E+00  0.39999999674E+01  0.40000000000E+01  0.51100000000E-03 0.  1.
    9000002   -1    0    0    0    0 -0.00000000000E+00 -0.00000000000E+00  0.00000000000E+00  0.93800000000E+00  0.93800000000E+00 0.  1.
         11    1    1    2    0    0 -0.34528630544E-01  0.91951386062E-01  0.12574442705E+01  0.12612746086E+01  0.51100000000E-03 0.  1.
    9000002    1    1    2    0    0  0.12797240077E+00 -0.34203627702E+00  0.89812546585E-01  0.10105820321E+01  0.93800000000E+00 0.  1.
         22    1    1    2    0    0 -0.93443770223E-01  0.25008489096E+00  0.26527431503E+01  0.26661433593E+01  0.00000000000E+00 0.  1.
</event>
<event>
 5    1  0.3005426E+001  0.1598761E+01  0.7818608E-02  0.3354709E+00
         11   -1    0    0    0    0  0.00000000000E+00  0.00000000000E+00  0.39999999674E+01  0.40000000000E+01  0.51100000000E-03 0.  1.
    9000002   -1    0    0    0    0 -0.00000000000E+00 -0.00000000000E+00  0.00000000000E+00  0.93800000000E+00  0.93800000000E+00 0. -1.
         11    1    1    2    0    0  0.94145244937E-01  0.11970921300E+00  0.11460326287E+01  0.11561075512E+01  0.51100000000E-03 0.  1.
    9000002    1    1    2    0    0 -0.22140995630E+00 -0.34856836891E+00  0.11598478646E+00  0.10314158944E+01  0.93800000000E+00 0. -1.
         22    1    1    2    0    0  0.12726471136E+00  0.22885915591E+00  0.27379825522E+01  0.27504765544E+01  0.00000000000E+00 0.  1.
</event>
<event>
 5    1  0.3005426E+001  0.1598401E+01  0.7818608E-02  0.3355101E+00
         11   -1    0    0    0    0  0.00000000000E+00  0.00000000000E+00  0.39999999674E+01  0.40000000000E+01  0.51100000000E-03 0.  1.
    9000002   -1    0    0    0    0 -0.00000000000E+00 -0.00000000000E+00  0.00000000000E+00  0.93800000000E+00  0.93800000000E+00 0.  1.
         11    1    1    2    0    0  0.10750731680E+00 -0.16088015592E-01  0.82149522558E+00  0.82865633056E+00  0.51100000000E-03 0.  1.
    9000002    1    1    2    0    0 -0.37233129107E+00  0.17174825392E+00  0.11462391437E+00  0.10301022739E+01  0.93800000000E+00 0.  1.
         22    1    1    2    0    0  0.26482397426E+00 -0.15566023832E+00  0.30638808274E+01  0.30792413955E+01  0.00000000000E+00 0.  1.
</event>
<event>
 5    1  0.3005426E+001  0.1594508E+01  0.7818608E-02  0.3359346E+00
         11   -1    0    0    0    0  0.00000000000E+00  0.00000000000E+00  0.39999999674E+01  0.40000000000E+01  0.51100000000E-03 0.  1.
    9000002   -1    0    0    0    0 -0.00000000000E+00 -0.00000000000E+00  0.00000000000E+00  0.93800000000E+00  0.93800000000E+00 0. -1.
         11    1    1    2    0    0  0.55402017120E-02  0.25851735735E-01  0.10419672856E+01  0.10423027830E+01  0.51100000000E-03 0.  1.
    9000002    1    1    2    0    0  0.26785526028E+00 -0.10381933963E+00  0.59019849312E-01  0.98277781739E+00  0.93800000000E+00 0. -1.
         22    1    1    2    0    0 -0.27339546200E+00  0.77967603897E-01  0.28990128324E+01  0.29129193996E+01  0.00000000000E+00 0.  1.
</event>
<event>
 5    1  0.3005426E+001  0.1595433E+01  0.7818608E-02  0.3358336E+00
         11   -1    0    0    0    0  0.00000000000E+00  0.00000000000E+00  0.39999999674E+01  0.40000000000E+01  0.51100000000E-03 0. -1.
    9000002   -1    0    0    0    0 -0.00000000000E+00 -0.00000000000E+00  0.00000000000E+00  0.93800000000E+00  0.93800000000E+00 0. -1.
         11    1    1    2    0    0 -0.15113289228E+00 -0.17120947253E+00  0.12872820271E+01  0.13073825427E+01  0.51100000000E-03 0. -1.
    9000002    1    1    2    0    0  0.51949184157E+00  0.29659499695E+00  0.25379144798E+00  0.11410935390E+01  0.93800000000E+00 0. -1.
         22    1    1    2    0    0 -0.36835894929E+00 -0.12538552441E+00  0.24589264923E+01  0.24895239183E+01  0.00000000000E+00 0. -1.
</event>
<event>
 5    1  0.3005426E+001  0.1599531E+01  0.7818608E-02  0.3353872E+00
         11   -1    0    0    0    0  0.00000000000E+00  0.00000000000E+00  0.39999999674E+01  0.40000000000E+01  0.51100000000E-03 0.  1.
    9000002   -1    0    0    0    0 -0.00000000000E+00 -0.00000000000E+00  0.00000000000E+00  0.93800000000E+00  0.93800000000E+00 0. -1.
         11    1    1    2    0    0  0.33808018208E-01  0.26539823719E-01  0.53048589644E+00  0.53222447499E+00  0.51100000000E-03 0.  1.
    9000002    1    1    2    0    0 -0.24056786525E+00 -0.26861476576E+00  0.87406057823E-01  0.10087173088E+01  0.93800000000E+00 0. -1.
         22    1    1    2    0    0  0.20675984704E+00  0.24207494204E+00  0.33821080131E+01  0.33970582162E+01  0.00000000000E+00 0.  1.
</event>
<event>
 5    1  0.3005426E+001  0.1599644E+01  0.7818608E-02  0.3353750E+00
         11   -1    0    0    0    0  0.00000000000E+00  0.00000000000E+00  0.39999999674E+01  0.40000000000E+01  0.51100000000E-03 0. -1.
    9000002   -1    0    0    0    0 -0.00000000000E+00 -0.00000000000E+00  0.00000000000E+00  0.93800000000E+00  0.93800000000E+00 0.  1.
         11    1    1    2    0    0 -0.26842567473E+00 -0.10171271712E+00  0.14529791066E+01  0.14810625797E+01  0.51100000000E-03 0. -1.
    9000002    1    1    2    0    0  0.65856687888E+00  0.24650509173E+00  0.35373088149E+00  0.12245181218E+01  0.93800000000E+00 0.  1.
         22    1    1    2    0    0 -0.39014120415E+00 -0.14479237461E+00  0.21932899793E+01  0.22324192985E+01  0.00000000000E+00 0. -1.
</event>
<event>
 5    1  0.3005426E+001  0.1599632E+01  0.7818608E-02  0.3353763E+00
         11   -1    0    0    0    0  0.00000000000E+00  0.00000000000E+00  0.39999999674E+01  0.40000000000E+01  0.51100000000E-03 0. -1.
    9000002   -1    0    0    0    0 -0.00000000000E+00 -0.00000000000E+00  0.00000000000E+00  0.93800000000E+00  0.93800000000E+00 0. -1.
         11    1    1    2    0    0 -0.22870929778E-02  0.52966966157E-01  0.49688894273E+00  0.49970952846E+00  0.51100000000E-03 0. -1.
    9000002    1    1    2    0    0  0.58443772245E-01 -0.40291710635E+00  0.11194826629E+00  0.10286565430E+01  0.93800000000E+00 0. -1.
         22    1    1    2    0    0 -0.56156679268E-01  0.34995014019E+00  0.33911627583E+01  0.34096339286E+01  0.00000000000E+00 0. -1.
</event>
<event>
 5    1  0.3005426E+001  0.1599580E+01  0.7818608E-02  0.3353820E+00
         11   -1    0    0    0    0  0.00000000000E+00  0.00000000000E+00  0.39999999674E+01  0.40000000000E+01  0.51100000000E-03 0.  1.
    9000002   -1    0    0    0    0 -0.00000000000E+00 -0.00000000000E+00  0.00000000000E+00  0.93800000000E+00  0.93800000000E+00 0. -1.
         11    1    1    2    0    0 -0.35717784512E-02  0.92636914456E-01  0.96620902039E+00  0.97064642776E+00  0.51100000000E-03 0.  1.
    9000002    1    1    2    0    0  0.55803466280E-01 -0.37383852285E+00  0.96184505243E-01  0.10158566469E+01  0.93800000000E+00 0. -1.
         22    1    1    2    0    0 -0.52231687829E-01  0.28120160839E+00  0.29376064417E+01  0.29514969253E+01  0.00000000000E+00 0.  1.
</event>
<event>
 5    1  0.3005426E+001  0.1599677E+01  0.7818608E-02  0.3353714E+00
         11   -1    0    0    0    0  0.00000000000E+00  0.00000000000E+00  0.39999999674E+01  0.40000000000E+01  0.51100000000E-03 0. -1.
    9000002   -1    0    0    0    0 -0.00000000000E+00 -0.00000000000E+00  0.00000000000E+00  0.93800000000E+00  0.93800000000E+00 0.  1.
         11    1    1    2    0    0  0.35098856227E+00  0.20536856446E+00  0.93143664566E+00  0.10163383807E+01  0.51100000000E-03 0. -1.
    9000002    1    1    2    0    0 -0.10177398846E+01 -0.59766061741E+00  0.12976473430E+01  0.19891519080E+01  0.93800000000E+00 0.  1.
         22    1    1    2    0    0  0.66675132232E+00  0.39229205295E+00  0.17709159787E+01  0.19325097113E+01  0.00000000000E+00 0. -1.
</event>
<event>
 5    1  0.3005426E+001  0.1598977E+01  0.7818608E-02  0.3354475E+00
         11   -1    0    0    0    0  0.00000000000E+00  0.00000000000E+00  0.39999999674E+01  0.40000000000E+01  0.51100000000E-03 0. -1.
    9000002   -1    0    0    0    0 -0.00000000000E+00 -0.00000000000E+00  0.00000000000E+00  0.93800000000E+00  0.93800000000E+00 0.  1.
         11    1    1    2    0    0  0.27540302408E-01 -0.15210076818E+00  0.84998552958E+00  0.86392637044E+00  0.51100000000E-03 0. -1.
    9000002    1    1    2    0    0 -0.19248494510E+00  0.57548054355E+00  0.25799143887E+00  0.11465739804E+01  0.93800000000E+00 0.  1.
         22    1    1    2    0    0  0.16494464269E+00 -0.42337977537E+00  0.28920229989E+01  0.29274996491E+01  0.00000000000E+00 0. -1.
</event>
<event>
 5    1  0.3005426E+001  0.1599670E+01  0.7818608E-02  0.3353721E+00
         11   -1    0    0    0    0  0.00000000000E+00  0.00000000000E+00  0.39999999674E+01  0.40000000000E+01  0.51100000000E-03 0.  1.
    9000002   -1    0    0    0    0 -0.00000000000E+00 -0.00000000000E+00  0.00000000000E+00  0.93800000000E+00  0.93800000000E+00 0.  1.
         11    1    1    2    0    0  0.72699319927E-02  0.78301301128E-02  0.11855316745E+00  0.11903477425E+00  0.51100000000E-03 0.  1.
    9000002    1    1    2    0    0 -0.24148926569E+00 -0.28914339603E+00  0.95457911217E-01  0.10153212210E+01  0.93800000000E+00 0.  1.
         22    1    1    2    0    0  0.23421933370E+00  0.28131326591E+00  0.37859888887E+01  0.38036440048E+01  0.00000000000E+00 0.  1.
</event>
<event>
 5    1  0.3005426E+001  0.1599676E+01  0.7818608E-02  0.3353716E+00
         11   -1    0    0    0    0  0.00000000000E+00  0.00000000000E+00  0.39999999674E+01  0.40000000000E+01  0.51100000000E-03 0.  1.
    9000002   -1    0    0    0    0 -0.00000000000E+00 -0.00000000000E+00  0.00000000000E+00  0.93800000000E+00  0.93800000000E+00 0. -1.
         11    1    1    2    0    0 -0.54664502787E-01 -0.82773307250E-01  0.87156830673E+00  0.87719507675E+00  0.51100000000E-03 0.  1.
    9000002    1    1    2    0    0  0.24523996929E+00  0.37144566832E+00  0.13446090751E+00  0.10469184604E+01  0.93800000000E+00 0. -1.
         22    1    1    2    0    0 -0.19057546650E+00 -0.28867236106E+00  0.29939707531E+01  0.30138864629E+01  0.00000000000E+00 0.  1.
</event>
<event>
 5    1  0.3005426E+001  0.1571936E+01  0.7818608E-02  0.3384398E+00
         11   -1    0    0    0    0  0.00000000000E+00  0.00000000000E+00  0.39999999674E+01  0.40000000000E+01  0.51100000000E-03 0.  1.
    9000002   -1    0    0    0    0 -0.00000000000E+00 -0.00000000000E+00  0.00000000000E+00  0.93800000000E+00  0.93800000000E+00 0.  1.
         11    1    1    2    0    0  0.14672935846E+00  0.65194335419E-01  0.11946441328E+01  0.12053856940E+01  0.51100000000E-03 0.  1.
    9000002    1    1    2    0    0  0.86653131005E-01 -0.42018398612E+00  0.14860285897E+00  0.10421085150E+01  0.93800000000E+00 0.  1.
         22    1    1    2    0    0 -0.23338248946E+00  0.35498965070E+00  0.26567529756E+01  0.26905057911E+01  0.00000000000E+00 0.  1.
</event>
<event>
 5    1  0.3005426E+001  0.1599648E+01  0.7818608E-02  0.3353745E+00
         11   -1    0    0    0    0  0.00000000000E+00  0.00000000000E+00  0.39999999674E+01  0.40000000000E+01  0.51100000000E-03 0. -1.
    9000002   -1    0    0    0    0 -0.00000000000E+00 -0.00000000000E+00  0.00000000000E+00  0.93800000000E+00  0.93800000000E+00 0. -1.
         11    1    1    2    0    0 -0.89827645438E-01 -0.18742247567E-01  0.80118875552E+00  0.80642666177E+00  0.51100000000E-03 0. -1.
    9000002    1    1    2    0    0  0.41617775075E+00  0.73628106567E-01  0.12087275140E+00  0.10358953810E+01  0.93800000000E+00 0. -1.
         22    1    1    2    0    0 -0.32635010531E+00 -0.54885859000E-01  0.30779384604E+01  0.30956779573E+01  0.00000000000E+00 0. -1.
</event>
<event>
 5    1  0.3005426E+001  0.1599650E+01  0.7818608E-02  0.3353743E+00
         11   -1    0    0    0    0  0.00000000000E+00  0.00000000000E+00  0.39999999674E+01  0.40000000000E+01  0.51100000000E-03 0.  1.
    9000002   -1    0    0    0    0 -0.00000000000E+00 -0.00000000000E+00  0.00000000000E+00  0.93800000000E+00  0.93800000000E+00 0. -1.
         11    1    1    2    0    0 -0.23149409505E-02  0.78031358392E-01  0.72071430535E+00  0.72493008139E+00  0.51100000000E-03 0.  1.
    9000002    1    1    2    0    0 -0.95251600999E-02 -0.40669911351E+00  0.11175085625E+00  0.10285072442E+01  0.93800000000E+00 0. -1.
         22    1    1    2    0    0  0.11840101050E-01  0.32866775511E+00  0.31675348058E+01  0.31845626744E+01  0.00000000000E+00 0.  1.
</event>
<event>
 5    1  0.3005426E+001  0.1568930E+01  0.7818608E-02  0.3387792E+00
         11   -1    0    0    0    0  0.00000000000E+00  0.00000000000E+00  0.39999999674E+01  0.40000000000E+01  0.51100000000E-03 0. -1.
    9000002   -1    0    0    0    0 -0.00000000000E+00 -0.00000000000E+00  0.00000000000E+00  0.93800000000E+00  0.93800000000E+00 0.  1.
         11    1    1    2    0    0 -0.19626154354E-01  0.12364053422E+00  0.82208931226E+00  0.83156675384E+00  0.51100000000E-03 0. -1.
    9000002    1    1    2    0    0 -0.23044396240E+00  0.16281285156E+00  0.77267964709E-01  0.98256133794E+00  0.93800000000E+00 0.  1.
         22    1    1    2    0    0  0.25007011675E+00 -0.28645338578E+00  0.31006426904E+01  0.31238719082E+01  0.00000000000E+00 0. -1.
</event>
<event>
 5    1  0.3005426E+001  0.1599676E+01  0.7818608E-02  0.3353715E+00
         11   -1    0    0    0    0  0.00000000000E+00  0.00000000000E+00  0.39999999674E+01  0.40000000000E+01  0.51100000000E-03 0.  1.
    9000002   -1    0    0    0    0 -0.00000000000E+00 -0.00000000000E+00  0.00000000000E+00  0.93800000000E+00  0.93800000000E+00 0.  1.
         11    1    1    2    0    0  0.97456247203E-01 -0.38395163864E-01  0.11683064226E+01  0.11729927821E+01  0.51100000000E-03 0.  1.
    9000002    1    1    2    0    0 -0.32816429255E+00  0.13191756977E+00  0.83911930340E-01  0.10059717989E+01  0.93800000000E+00 0.  1.
         22    1    1    2    0    0  0.23070804535E+00 -0.93522405910E-01  0.27477816144E+01  0.27590354190E+01  0.00000000000E+00 0.  1.
</event>
<event>
 5    1  0.3005426E+001  0.1599630E+01  0.7818608E-02  0.3353765E+00
         11   -1    0    0    0    0  0.00000000000E+00  0.00000000000E+00  0.39999999674E+01  0.40000000000E+01  0.51100000000E-03 0.  1.
    9000002   -1    0    0    0    0 -0.00000000000E+00 -0.00000000000E+00  0.00000000000E+00  0.93800000000E+00  0.93800000000E+00 0. -1.
         11    1    1    2    0    0 -0.79491353116E-01  0.12064297934E+00  0.12215927946E+01  0.12301068331E+01  0.51100000000E-03 0.  1.
    9000002    1    1    2    0    0  0.26854580636E+00 -0.39538634141E+00  0.15586434035E+00  0.10642297222E+01  0.93800000000E+00 0. -1.
         22    1    1    2    0    0 -0.18905445324E+00  0.27474336207E+00  0.26225428324E+01  0.26436634447E+01  0.00000000000E+00 0.  1.
</event>
<event>
 5    1  0.3005426E+001  0.1599674E+01  0.7818608E-02  0.3353717E+00
         11   -1    0    0    0    0  0.00000000000E+00  0.00000000000E+00  0.39999999674E+01  0.40000000000E+01  0.51100000000E-03 0. -1.
    9000002   -1    0    0    0    0 -0.00000000000E+00 -0.00000000000E+00  0.00000000000E+00  0.93800000000E+00  0.93800000000E+00 0.  1.
         11    1    1    2    0    0 -0.12948637689E+00 -0.18654989787E-01  0.96716467589E+00  0.97597259278E+00  0.51100000000E-03 0. -1.
    9000002    1    1    2    0    0  0.50511609552E+00  0.76997634745E-01  0.17905392692E+00  0.10830398028E+01  0.93800000000E+00 0.  1.
         22    1    1    2    0    0 -0.37562971863E+00 -0.58342644959E-01  0.28537813645E+01  0.28789876044E+01  0.00000000000E+00 0. -1.
</event>
<event>
 5    1  0.3005426E+001  0.1535391E+01  0.7818608E-02  0.3426619E+00
         11   -1    0    0    0    0  0.00000000000E+00  0.00000000000E+00  0.39999999674E+01  0.40000000000E+01  0.51100000000E-03 0. -1.
    9000002   -1    0    0    0    0 -0.00000000000E+00 -0.00000000000E+00  0.00000000000E+00  0.93800000000E+00  0.93800000000E+00 0. -1.
         11    1    1    2    0    0  0.58698365586E-01  0.82735059835E-01  0.11120789200E+00  0.15052589349E+00  0.51100000000E-03 0. -1.
    9000002    1    1    2    0    0  0.36678947220E+00  0.39013021991E-01  0.14580080188E+00  0.10184097440E+01  0.93800000000E+00 0. -1.
         22    1    1    2    0    0 -0.42548783779E+00 -0.12174808183E+00  0.37429912735E+01  0.37690643625E+01  0.00000000000E+00 0. -1.
</event>
<event>
 5    1  0.3005426E+001  0.1599677E+01  0.7818608E-02  0.3353714E+00
         11   -1    0    0    0    0  0.00000000000E+00  0.00000000000E+00  0.39999999674E+01  0.40000000000E+01  0.51100000000E-03 0. -1.
    9000002   -1    0    0    0    0 -0.00000000000E+00 -0.00000000000E+00  0.00000000000E+00  0.93800000000E+00  0.93800000000E+00 0. -1.
         11    1    1    2    0    0 -0.40913863263E-01 -0.10728048503E+00  0.11118000262E+01  0.11177131144E+01  0.51100000000E-03 0.  1.
    9000002    1    1    2    0    0  0.14228989130E+00  0.37528451912E+00  0.10867397627E+00  0.10260306606E+01  0.93800000000E+00 0. -1.
         22    1    1    2    0    0 -0.10137602804E+00 -0.26800403409E+00  0.27795259649E+01  0.27942562250E+01  0.00000000000E+00 0. -1.
</event>
<event>
 5    1  0.3005426E+001  0.1547010E+01  0.7818608E-02  0.3412964E+00
         11   -1    0    0    0    0  0.00000000000E+00  0.00000000000E+00  0.39999999674E+01  0.40000000000E+01  0.51100000000E-03 0.  1.
    9000002   -1    0    0    0    0 -0.00000000000E+00 -0.00000000000E+00  0.00000000000E+00  0.93800000000E+00  0.93800000000E+00 0.  1.
         11    1    1    2    0    0  0.29101296285E+00 -0.17763092649E+00  0.67470037865E+00  0.75595115759E+00  0.51100000000E-03 0.  1.
    9000002    1    1    2    0    0 -0.49992451968E+00  0.40633329200E+00  0.34981051234E+00  0.11904800142E+01  0.93800000000E+00 0.  1.
         22    1    1    2    0    0  0.20891155683E+00 -0.22870236550E+00  0.29754890764E+01  0.29915688283E+01  0.00000000000E+00 0.  1.
</event>
<event>
 5    1  0.3005426E+001  0.1599677E+01  0.7818608E-02  0.3353714E+00
         11   -1    0    0    0    0  0.00000000000E+00  0.00000000000E+00  0.39999999674E+01  0.40000000000E+01  0.51100000000E-03 0. -1.
    9000002   -1    0    0    0    0 -0.00000000000E+00 -0.00000000000E+00  0.00000000000E+00  0.93800000000E+00  0.93800000000E+00 0. -1.
         11    1    1    2    0    0  0.17177099904E+00 -0.34935621287E-01  0.13592558053E+01  0.13705117216E+01  0.51100000000E-03 0. -1.
    9000002    1    1    2    0    0 -0.48449434197E+00  0.10017826860E+00  0.16741250600E+00  0.10736113822E+01  0.93800000000E+00 0. -1.
         22    1    1    2    0    0  0.31272334293E+00 -0.65242647310E-01  0.24733316561E+01  0.24938768962E+01  0.00000000000E+00 0.  1.
</event>
<event>
 5    1  0.3005426E+001  0.1596752E+01  0.7818608E-02  0.3356896E+00
         11   -1    0    0    0    0  0.00000000000E+00  0.00000000000E+00  0.39999999674E+01  0.40000000000E+01  0.51100000000E-03 0.  1.
    9000002   -1    0    0    0    0 -0.00000000000E+00 -0.00000000000E+00  0.00000000000E+00  0.93800000000E+00  0.93800000000E+00 0.  1.
         11    1    1    2    0    0 -0.11192533138E-01  0.77189109169E-01  0.68922179055E+00  0.69362119998E+00  0.51100000000E-03 0.  1.
    9000002    1    1    2    0    0  0.30897906835E+00 -0.30082724354E+00  0.12845761991E+00  0.10403415089E+01  0.93800000000E+00 0.  1.
         22    1    1    2    0    0 -0.29778653521E+00  0.22363813437E+00  0.31823205569E+01  0.32040372911E+01  0.00000000000E+00 0.  1.
</event>
<event>
 5    1  0.3005426E+001  0.1599658E+01  0.7818608E-02  0.3353734E+00
         11   -1    0    0    0    0  0.00000000000E+00  0.00000000000E+00  0.39999999674E+01  0.40000000000E+01  0.51100000000E-03 0. -1.
    9000002   -1    0    0    0    0 -0.00000000000E+00 -0.00000000000E+00  0.00000000000E+00  0.93800000000E+00  0.93800000000E+00 0.  1.
         11    1    1    2    0    0 -0.93206813126E-01 -0.13041318125E+00  0.11490122822E+01  0.11601399026E+01  0.51100000000E-03 0. -1.
    9000002    1    1    2    0    0  0.31115596490E+00  0.41706630364E+00  0.18601989262E+00  0.10886733838E+01  0.93800000000E+00 0.  1.
         22    1    1    2    0    0 -0.21794915178E+00 -0.28665312239E+00  0.26649677926E+01  0.26891867136E+01  0.00000000000E+00 0. -1.
</event>
<event>
 5    1  0.3005426E+001  0.1575957E+01  0.7818608E-02  0.3379879E+00
         11   -1    0    0    0    0  0.00000000000E+00  0.00000000000E+00  0.39999999674E+01  0.40000000000E+01  0.51100000000E-03 0.  1.
    9000002   -1    0    0    0    0 -0.00000000000E+00 -0.00000000000E+00  0.00000000000E+00  0.93800000000E+00  0.93800000000E+00 0.  1.
         11    1    1    2    0    0 -0.56153755004E-01 -0.40675520126E-02  0.80988686008E-01  0.98636796191E-01  0.51100000000E-03 0.  1.
    9000002    1    1    2    0    0  0.29558430070E-01  0.44013645545E+00  0.15262890346E+00  0.10477277234E+01  0.93800000000E+00 0.  1.
         22    1    1    2    0    0  0.26595324934E-01 -0.43606890344E+00  0.37663823779E+01  0.37916354804E+01  0.00000000000E+00 0.  1.
</event>
<event>
 5    1  0.3005426E+001  0.1599605E+01  0.7818608E-02  0.3353793E+00
         11   -1    0    0    0    0  0.00000000000E+00  0.00000000000E+00  0.39999999674E+01  0.40000000000E+01  0.51100000000E-03 0.  1.
    9000002   -1    0    0    0    0 -0.00000000000E+00 -0.00000000000E+00  0.00000000000E+00  0.93800000000E+00  0.93800000000E+00 0. -1.
         11    1    1    2    0    0 -0.49890334853E-01  0.17204839342E-01  0.49904767993E+00  0.50183054907E+00  0.51100000000E-03 0.  1.
    9000002    1    1    2    0    0  0.36693454967E+00 -0.86440200155E-01  0.95643807921E-01  0.10154332129E+01  0.93800000000E+00 0. -1.
         22    1    1    2    0    0 -0.31704421482E+00  0.69235360813E-01  0.34053084795E+01  0.34207362380E+01  0.00000000000E+00 0.  1.
</event>
<event>
 5    1  0.3005426E+001  0.1599646E+01  0.7818608E-02  0.3353748E+00
         11   -1    0    0    0    0  0.00000000000E+00  0.00000000000E+00  0.39999999674E+01  0.40000000000E+01  0.51100000000E-03 0. -1.
    9000002   -1    0    0    0    0 -0.00000000000E+00 -0.00000000000E+00  0.00000000000E+00  0.93800000000E+00  0.93800000000E+00 0.  1.
         11    1    1    2    0    0 -0.52732078934E-01 -0.16962852892E+00  0.12245321199E+01  0.12373494591E+01  0.51100000000E-03 0. -1.
    9000002    1    1    2    0    0  0.16148516142E+00  0.54290330705E+00  0.22232702310E+00  0.11180763674E+01  0.93800000000E+00 0.  1.
         22    1    1    2    0    0 -0.10875308248E+00 -0.37327477812E+00  0.25531408243E+01  0.25825741735E+01  0.00000000000E+00 0. -1.
</event>
<event>
 5    1  0.3005426E+001  0.1591517E+01  0.7818608E-02  0.3362622E+00
         11   -1    0    0    0    0  0.00000000000E+00  0.00000000000E+00  0.39999999674E+01  0.40000000000E+01  0.51100000000E-03 0. -1.
    9000002   -1    0    0    0    0 -0.00000000000E+00 -0.00000000000E+00  0.00000000000E+00  0.93800000000E+00  0.93800000000E+00 0. -1.
         11    1    1    2    0    0  0.66462195518E-01 -0.15818199971E+00  0.67483768482E+00  0.69630807150E+00  0.51100000000E-03 0. -1.
    9000002    1    1    2    0    0 -0.19193969123E+00  0.45673532320E+00  0.17525119319E+00  0.10751767209E+01  0.93800000000E+00 0. -1.
         22    1    1    2    0    0  0.12547749571E+00 -0.29855332349E+00  0.31499110894E+01  0.31665152076E+01  0.00000000000E+00 0. -1.
</event>
<event>
 5    1  0.3005426E+001  0.1579653E+01  0.7818608E-02  0.3375748E+00
         11   -1    0    0    0    0  0.00000000000E+00  0.00000000000E+00  0.39999999674E+01  0.40000000000E+01  0.51100000000E-03 0. -1.
    9000002   -1    0    0    0    0 -0.00000000000E+00 -0.00000000000E+00  0.00000000000E+00  0.93800000000E+00  0.93800000000E+00 0. -1.
         11    1    1    2    0    0 -0.25535891480E-01  0.13601886335E+00  0.89144767279E+00  0.90212661383E+00  0.51100000000E-03 0. -1.
    9000002    1    1    2    0    0  0.25846934400E+00  0.11963522711E-01  0.60027141273E-01  0.97488295982E+00  0.93800000000E+00 0. -1.
         22    1    1    2    0    0 -0.23293345253E+00 -0.14798238606E+00  0.30485251533E+01  0.30609904263E+01  0.00000000000E+00 0. -1.
</event>
<event>
 5    1  0.3005426E+001  0.1594807E+01  0.7818608E-02  0.3359020E+00
         11   -1    0    0    0    0  0.00000000000E+00  0.00000000000E+00  0.39999999674E+01  0.40000000000E+01  0.51100000000E-03 0. -1.
    9000002   -1    0    0    0    0 -0.00000000000E+00 -0.00000000000E+00  0.00000000000E+00  0.93800000000E+00  0.93800000000E+00 0.  1.
         11    1    1    2    0    0 -0.89621230542E-01 -0.17753593660E-01  0.94754623458E+00  0.95194079797E+00  0.51100000000E-03 0. -1.
    9000002    1    1    2    0    0  0.24423000683E+00  0.34145988955E+00  0.12331285418E+00  0.10350329523E+01  0.93800000000E+00 0.  1.
         22    1    1    2    0    0 -0.15460877629E+00 -0.32370629589E+00  0.29291408786E+01  0.29510262497E+01  0.00000000000E+00 0. -1.
</event>
<event>
 5    1  0.3005426E+001  0.1595580E+01  0.7818608E-02  0.3358174E+00
         11   -1    0    0    0    0  0.00000000000E+00  0.00000000000E+00  0.39999999674E+01  0.40000000000E+01  0.51100000000E-03 0.  1.
    9000002   -1    0    0    0    0 -0.00000000000E+00 -0.00000000000E+00  0.00000000000E+00  0.93800000000E+00  0.93800000000E+00 0.  1.
         11    1    1    2    0    0 -0.12334199928E-01  0.28202516031E-01  0.12095521510E+01  0.12099438754E+01  0.51100000000E-03 0.  1.
    9000002    1    1    2    0    0  0.26982725478E+00 -0.58954749430E-01  0.53956259134E-01  0.97930469610E+00  0.93800000000E+00 0.  1.
         22    1    1    2    0    0 -0.25749305486E+00  0.30752233400E-01  0.27364915572E+01  0.27487514285E+01  0.00000000000E+00 0. -1.
</event>
<event>
 5    1  0.4827517E+001  0.1539573E+01  0.7818608E-02  0.3421679E+00
         11   -1    0    0    0    0  0.00000000000E+00  0.00000000000E+00  0.39999999674E+01  0.40000000000E+01  0.51100000000E-03 0.  1.
    9000002   -1    0    0    0    0 -0.00000000000E+00 -0.00000000000E+00  0.00000000000E+00  0.93800000000E+00  0.93800000000E+00 0.  1.
         11    1    1    2    0    0  0.28281247122E+00 -0.61851707004E-01  0.12069171699E+01  0.12411518214E+01  0.51100000000E-03 0.  1.
    9000002    1    1    2    0    0 -0.38798439158E-01  0.10450808452E+00  0.53527680605E-01  0.94611652094E+00  0.93800000000E+00 0.  1.
         22    1    1    2    0    0 -0.24401403206E+00 -0.42656377517E-01  0.27395551168E+01  0.27507316577E+01  0.00000000000E+00 0.  1.
</event>
<event>
 5    1  0.3005426E+001  0.1599676E+01  0.7818608E-02  0.3353715E+00
         11   -1    0    0    0    0  0.00000000000E+00  0.00000000000E+00  0.39999999674E+01  0.40000000000E+01  0.51100000000E-03 0.  1.
    9000002   -1    0    0    0    0 -0.00000000000E+00 -0.00000000000E+00  0.00000000000E+00  0.93800000000E+00  0.93800000000E+00 0.  1.
         11    1    1    2    0    0  0.12811342197E+00  0.45971817721E-01  0.89924007651E+00  0.90948305824E+00  0.51100000000E-03 0.  1.
    9000002    1    1    2    0    0 -0.53415260373E+00 -0.19608417012E+00  0.22445522825E+00  0.11198179117E+01  0.93800000000E+00 0.  1.
         22    1    1    2    0    0  0.40603918175E+00  0.15011235240E+00  0.28763046626E+01  0.29086990301E+01  0.00000000000E+00 0.  1.
</event>
<event>
 5    1  0.3005426E+001  0.1572182E+01  0.7818608E-02  0.3384121E+00
         11   -1    0    0    0    0  0.00000000000E+00  0.00000000000E+00  0.39999999674E+01  0.40000000000E+01  0.51100000000E-03 0.  1.
    9000002   -1    0    0    0    0 -0.00000000000E+00 -0.00000000000E+00  0.00000000000E+00  0.93800000000E+00  0.93800000000E+00 0.  1.
         11    1    1    2    0    0  0.15071093620E+00 -0.29578292202E-02  0.11404938279E+01  0.11504125206E+01  0.51100000000E-03 0.  1.
    9000002    1    1    2    0    0  0.95565596207E-01  0.11350244131E+00  0.35101150027E-01  0.95031135850E+00  0.93800000000E+00 0.  1.
         22    1    1    2    0    0 -0.24627653240E+00 -0.11054461209E+00  0.28244049895E+01  0.28372761209E+01  0.00000000000E+00 0.  1.
</event>
<event>
 5    1  0.3005426E+001  0.1521687E+01  0.7818608E-02  0.3443009E+00
         11   -1    0    0    0    0  0.00000000000E+00  0.00000000000E+00  0.39999999674E+01  0.40000000000E+01  0.51100000000E-03 0. -1.
    9000002   -1    0    0    0    0 -0.00000000000E+00 -0.00000000000E+00  0.00000000000E+00  0.93800000000E+00  0.93800000000E+00 0. -1.
         11    1    1    2    0    0 -0.23803231917E+00  0.75059402981E-03  0.78995922631E+00  0.82504290113E+00  0.51100000000E-03 0. -1.
    9000002    1    1    2    0    0 -0.15702765828E+00  0.10740666513E+00  0.84643438990E-01  0.96083421512E+00  0.93800000000E+00 0. -1.
         22    1    1    2    0    0  0.39505997746E+00 -0.10815725916E+00  0.31253973021E+01  0.31521228837E+01  0.00000000000E+00 0. -1.
</event>
<event>
 5    1  0.3005426E+001  0.1599676E+01  0.7818608E-02  0.3353716E+00
         11   -1    0    0    0    0  0.00000000000E+00  0.00000000000E+00  0.39999999674E+01  0.40000000000E+01  0.51100000000E-03 0.  1.
    9000002   -1    0    0    0    0 -0.00000000000E+00 -0.00000000000E+00  0.00000000000E+00  0.93800000000E+00  0.93800000000E+00 0.  1.
         11    1    1    2    0    0 -0.60726939158E-01  0.95078086994E-01  0.10317544846E+01  0.10379042255E+01  0.51100000000E-03 0.  1.
    9000002    1    1    2    0    0  0.23190216613E+00 -0.35990912149E+00  0.12411564872E+00  0.10385383405E+01  0.93800000000E+00 0.  1.
         22    1    1    2    0    0 -0.17117522697E+00  0.26483103450E+00  0.28441298341E+01  0.28615574340E+01  0.00000000000E+00 0.  1.
</event>
<event>
 5    1  0.3005426E+001  0.1599675E+01  0.7818608E-02  0.3353716E+00
         11   -1    0    0    0    0  0.00000000000E+00  0.00000000000E+00  0.39999999674E+01  0.40000000000E+01  0.51100000000E-03 0.  1.
    9000002   -1    0    0    0    0 -0.00000000000E+00 -0.00000000000E+00  0.00000000000E+00  0.93800000000E+00  0.93800000000E+00 0. -1.
         11    1    1    2    0    0  0.99224895798E-01 -0.89394645668E-02  0.10591821224E+01  0.10638573793E+01  0.51100000000E-03 0.  1.
    9000002    1    1    2    0    0 -0.36983261487E+00  0.29563775298E-01  0.92518640128E-01  0.10129431764E+01  0.93800000000E+00 0. -1.
         22    1    1    2    0    0  0.27060771907E+00 -0.20624310731E-01  0.28482992048E+01  0.28611994443E+01  0.00000000000E+00 0.  1.
</event>
<event>
 5    1  0.3005426E+001  0.1599632E+01  0.7818608E-02  0.3353762E+00
         11   -1    0    0    0    0  0.00000000000E+00  0.00000000000E+00  0.39999999674E+01  0.40000000000E+01  0.51100000000E-03 0. -1.
    9000002   -1    0    0    0    0 -0.00000000000E+00 -0.00000000000E+00  0.00000000000E+00  0.93800000000E+00  0.93800000000E+00 0.  1.
         11    1    1    2    0    0 -0.40776519667E-01 -0.50072892975E-01  0.77354869435E+00  0.77623956536E+00  0.51100000000E-03 0. -1.
    9000002    1    1    2    0    0  0.21620264507E+00  0.28431260265E+00  0.85646491895E-01  0.10073512602E+01  0.93800000000E+00 0.  1.
         22    1    1    2    0    0 -0.17542612540E+00 -0.23423970967E+00  0.31408047811E+01  0.31544091745E+01  0.00000000000E+00 0. -1.
</event>
<event>
 5    1  0.3005426E+001  0.1455705E+01  0.7818608E-02  0.3526590E+00
         11   -1    0    0    0    0  0.00000000000E+00  0.00000000000E+00  0.39999999674E+01  0.40000000000E+01  0.51100000000E-03 0. -1.
    9000002   -1    0    0    0    0 -0.00000000000E+00 -0.00000000000E+00  0.00000000000E+00  0.93800000000E+00  0.93800000000E+00 0.  1.
         11    1    1    2    0    0 -0.35722121353E-01 -0.43371192836E+00  0.12746255040E+01  0.13468676785E+01  0.51100000000E-03 0. -1.
    9000002    1    1    2    0    0  0.27776839977E+00  0.17544879106E-01  0.17281193556E+00  0.99356483018E+00  0.93800000000E+00 0.  1.
         22    1    1    2    0    0 -0.24204627841E+00  0.41616704925E+00  0.25525625278E+01  0.25975674913E+01  0.00000000000E+00 0. -1.
</event>
<event>
 5    1  0.3005426E+001  0.1598334E+01  0.7818608E-02  0.3355174E+00
         11   -1    0    0    0    0  0.00000000000E+00  0.00000000000E+00  0.39999999674E+01  0.40000000000E+01  0.51100000000E-03 0.  1.
    9000002   -1    0    0    0    0 -0.00000000000E+00 -0.00000000000E+00  0.00000000000E+00  0.93800000000E+00  0.93800000000E+00 0.  1.
         11    1    1    2    0    0  0.28648683304E-01 -0.81279949473E-01  0.52886881049E+00  0.53584480689E+00  0.51100000000E-03 0.  1.
    9000002    1    1    2    0    0 -0.97920903538E-01  0.40310088982E+00  0.11742682756E+00  0.10323332265E+01  0.93800000000E+00 0.  1.
         22    1    1    2    0    0  0.69272220234E-01 -0.32182094035E+00  0.33537043293E+01  0.33698219666E+01  0.00000000000E+00 0.  1.
</event>
<event>
 5    1  0.3005426E+001  0.1575662E+01  0.7818608E-02  0.3380210E+00
         11   -1    0    0    0    0  0.00000000000E+00  0.00000000000E+00  0.39999999674E+01  0.40000000000E+01  0.51100000000E-03 0. -1.
    9000002   -1    0    0    0    0 -0.00000000000E+00 -0.00000000000E+00  0.00000000000E+00  0.93800000000E+00  0.93800000000E+00 0.  1.
         11    1    1    2    0    0  0.34555583591E-01 -0.14067781266E+00  0.56377610585E+00  0.58208942094E+00  0.51100000000E-03 0. -1.
    9000002    1    1    2    0    0  0.50646826839E+00  0.43230140522E+00  0.34034678564E+00  0.11996143323E+01  0.93800000000E+00 0.  1.
         22    1    1    2    0    0 -0.54102385198E+00 -0.29162359256E+00  0.30958770759E+01  0.31562962467E+01  0.00000000000E+00 0. -1.
</event>
<event>
 5    1  0.3005426E+001  0.1599675E+01  0.7818608E-02  0.3353716E+00
         11   -1    0    0    0    0  0.00000000000E+00  0.00000000000E+00  0.39999999674E+01  0.40000000000E+01  0.51100000000E-03 0.  1.
    9000002   -1    0    0    0    0 -0.00000000000E+00 -0.00000000000E+00  0.00000000000E+00  0.93800000000E+00  0.93800000000E+00 0.  1.
         11    1    1    2    0    0  0.13620648926E-01 -0.21823464112E-01  0.26929156428E+00  0.27051800934E+00  0.51100000000E-03 0.  1.
    9000002    1    1    2    0    0 -0.18925371420E+00  0.32351591543E+00  0.94463004561E-01  0.10145180014E+01  0.93800000000E+00 0.  1.
         22    1    1    2    0    0  0.17563306527E+00 -0.30169245132E+00  0.36362453985E+01  0.36529639893E+01  0.00000000000E+00 0.  1.
</event>
<event>
 5    1  0.3005426E+001  0.1599623E+01  0.7818608E-02  0.3353773E+00
         11   -1    0    0    0    0  0.00000000000E+00  0.00000000000E+00  0.39999999674E+01  0.40000000000E+01  0.51100000000E-03 0. -1.
    9000002   -1    0    0    0    0 -0.00000000000E+00 -0.00000000000E+00  0.00000000000E+00  0.93800000000E+00  0.93800000000E+00 0. -1.
         11    1    1    2    0    0 -0.83985001083E-02 -0.57415408719E-02  0.67561570231E-01  0.68325156339E-01  0.51100000000E-03 0. -1.
    9000002    1    1    2    0    0  0.37876476469E+00  0.24562148963E+00  0.13848879108E+00  0.10501503742E+01  0.93800000000E+00 0. -1.
         22    1    1    2    0    0 -0.37036626458E+00 -0.23987994876E+00  0.37939496060E+01  0.38195244695E+01  0.00000000000E+00 0. -1.
</event>
<event>
 5    1  0.3005426E+001  0.1573213E+01  0.7818608E-02  0.3382961E+00
         11   -1    0    0    0    0  0.00000000000E+00  0.00000000000E+00  0.39999999674E+01  0.40000000000E+01  0.51100000000E-03 0.  1.
    9000002   -1    0    0    0    0 -0.00000000000E+00 -0.00000000000E+00  0.00000000000E+00  0.93800000000E+00  0.93800000000E+00 0.  1.
         11    1    1    2    0    0  0.43691191465E-01 -0.14561465412E+00  0.12066962620E+01  0.12162354532E+01  0.51100000000E-03 0.  1.
    9000002    1    1    2    0    0  0.36279231636E+00  0.17479194860E+00  0.13182729409E+00  0.10292681505E+01  0.93800000000E+00 0.  1.
         22    1    1    2    0    0 -0.40648350782E+00 -0.29177294476E-01  0.26614764112E+01  0.26924963963E+01  0.00000000000E+00 0. -1.
</event>
<event>
 5    1  0.3005426E+001  0.1598721E+01  0.7818608E-02  0.3354753E+00
         11   -1    0    0    0    0  0.00000000000E+00  0.00000000000E+00  0.39999999674E+01  0.40000000000E+01  0.51100000000E-03 0. -1.
    9000002   -1    0    0    0    0 -0.00000000000E+00 -0.00000000000E+00  0.00000000000E+00  0.93800000000E+00  0.93800000000E+00 0. -1.
         11    1    1    2    0    0  0.49507488247E-01 -0.13394972241E-01  0.27709700189E+00  0.28180387906E+00  0.51100000000E-03 0. -1.
    9000002    1    1    2    0    0 -0.42552492171E+00  0.13173920020E+00  0.13550194479E+00  0.10472017250E+01  0.93800000000E+00 0. -1.
         22    1    1    2    0    0  0.37601743347E+00 -0.11834422796E+00  0.35874010207E+01  0.36089943959E+01  0.00000000000E+00 0. -1.
</event>
<event>
 5    1  0.3005426E+001  0.1599658E+01  0.7818608E-02  0.3353735E+00
         11   -1    0    0    0    0  0.00000000000E+00  0.00000000000E+00  0.39999999674E+01  0.40000000000E+01  0.51100000000E-03 0.  1.
    9000002   -1    0    0    0    0 -0.00000000000E+00 -0.00000000000E+00  0.00000000000E+00  0.93800000000E+00  0.93800000000E+00 0.  1.
         11    1    1    2    0    0  0.47192906479E-01 -0.95927399925E-01  0.97662040528E+00  0.98245453513E+00  0.51100000000E-03 0.  1.
    9000002    1    1    2    0    0 -0.19798341724E+00  0.36646608800E+00  0.11729634469E+00  0.10330039979E+01  0.93800000000E+00 0.  1.
         22    1    1    2    0    0  0.15079051076E+00 -0.27053868807E+00  0.29060832174E+01  0.29225414670E+01  0.00000000000E+00 0.  1.
</event>
<event>
 5    1  0.3005426E+001  0.1594907E+01  0.7818608E-02  0.3358910E+00
         11   -1    0    0    0    0  0.00000000000E+00  0.00000000000E+00  0.39999999674E+01  0.40000000000E+01  0.51100000000E-03 0. -1.
    9000002   -1    0    0    0    0 -0.00000000000E+00 -0.00000000000E+00  0.00000000000E+00  0.93800000000E+00  0.93800000000E+00 0.  1.
         11    1    1    2    0    0  0.48280857479E-02 -0.30023442561E-02  0.18483147184E-02  0.60001559412E-02  0.51100000000E-03 0. -1.
    9000002    1    1    2    0    0 -0.39912997365E+00  0.16425643338E+00  0.13025972157E+00  0.10407192257E+01  0.93800000000E+00 0.  1.
         22    1    1    2    0    0  0.39430188790E+00 -0.16125408912E+00  0.38678919311E+01  0.38912806183E+01  0.00000000000E+00 0. -1.
</event>
<event>
 5    1  0.3005426E+001  0.1599677E+01  0.7818608E-02  0.3353714E+00
         11   -1    0    0    0    0  0.00000000000E+00  0.00000000000E+00  0.39999999674E+01  0.40000000000E+01  0.51100000000E-03 0.  1.
    9000002   -1    0    0    0    0 -0.00000000000E+00 -0.00000000000E+00  0.00000000000E+00  0.93800000000E+00  0.93800000000E+00 0.  1.
         11    1    1    2    0    0 -0.16188590530E+00 -0.23039946179E-01  0.74708148020E+00  0.76476720944E+00  0.51100000000E-03 0.  1.
    9000002    1    1    2    0    0  0.76912678545E+00  0.10813521951E+00  0.44096311516E+00  0.12951994853E+01  0.93800000000E+00 0.  1.
         22    1    1    2    0    0 -0.60724088015E+00 -0.85095273333E-01  0.28119553720E+01  0.28780333053E+01  0.00000000000E+00 0.  1.
</event>
<event>
 5    1  0.3005426E+001  0.1599578E+01  0.7818608E-02  0.3353822E+00
         11   -1    0    0    0    0  0.00000000000E+00  0.00000000000E+00  0.39999999674E+01  0.40000000000E+01  0.51100000000E-03 0.  1.
    9000002   -1    0    0    0    0 -0.00000000000E+00 -0.00000000000E+00  0.00000000000E+00  0.93800000000E+00  0.93800000000E+00 0. -1.
         11    1    1    2    0    0  0.27100693261E-01  0.14190569012E+00  0.12189096697E+01  0.12274415328E+01  0.51100000000E-03 0.  1.
    9000002    1    1    2    0    0 -0.10855872770E+00 -0.47353312915E+00  0.16127870784E+00  0.10685847853E+01  0.93800000000E+00 0. -1.
         22    1    1    2    0    0  0.81458034439E-01  0.33162743903E+00  0.26198115898E+01  0.26419736819E+01  0.00000000000E+00 0.  1.
</event>
<event>
 5    1  0.3005426E+001  0.1599668E+01  0.7818608E-02  0.3353724E+00
         11   -1    0    0    0    0  0.00000000000E+00  0.00000000000E+00  0.39999999674E+01  0.40000000000E+01  0.51100000000E-03 0. -1.
    9000002   -1    0    0    0    0 -0.00000000000E+00 -0.00000000000E+00  0.00000000000E+00  0.93800000000E+00  0.93800000000E+00 0. -1.
         11    1    1    2    0    0 -0.55914250641E-01  0.57312123745E-01  0.54075285403E+00  0.54664887562E+00  0.51100000000E-03 0. -1.
    9000002    1    1    2    0    0  0.39349523676E+00 -0.41706822863E+00  0.22814033206E+00  0.11227984769E+01  0.93800000000E+00 0. -1.
         22    1    1    2    0    0 -0.33758098612E+00  0.35975610488E+00  0.32311067813E+01  0.32685526475E+01  0.00000000000E+00 0. -1.
</event>
<event>
 5    1  0.3005426E+001  0.1598338E+01  0.7818608E-02  0.3355169E+00
         11   -1    0    0    0    0  0.00000000000E+00  0.00000000000E+00  0.39999999674E+01  0.40000000000E+01  0.51100000000E-03 0.  1.
    9000002   -1    0    0    0    0 -0.00000000000E+00 -0.00000000000E+00  0.00000000000E+00  0.93800000000E+00  0.93800000000E+00 0. -1.
         11    1    1    2    0    0  0.58773195747E-01  0.84426799350E-01  0.14484410478E+01  0.14520894955E+01  0.51100000000E-03 0.  1.
    9000002    1    1    2    0    0 -0.14234291704E+00 -0.34161295302E+00  0.93136281569E-01  0.10126595097E+01  0.93800000000E+00 0. -1.
         22    1    1    2    0    0  0.83569721290E-01  0.25718615366E+00  0.24584226380E+01  0.24732509948E+01  0.00000000000E+00 0.  1.
</event>
<event>
 5    1  0.3005426E+001  0.1599676E+01  0.7818608E-02  0.3353715E+00
         11   -1    0    0    0    0  0.00000000000E+00  0.00000000000E+00  0.39999999674E+01  0.40000000000E+01  0.51100000000E-03 0. -1.
    9000002   -1    0    0    0    0 -0.00000000000E+00 -0.00000000000E+00  0.00000000000E+00  0.93800000000E+00  0.93800000000E+00 0. -1.
         11    1    1    2    0    0  0.10831940067E+00 -0.31928015926E-02  0.92910119042E+00  0.93539968447E+00  0.51100000000E-03 0. -1.
    9000002    1    1    2    0    0 -0.44777454059E+00  0.10713549508E-01  0.13621445878E+00  0.10483392572E+01  0.93800000000E+00 0. -1.
         22    1    1    2    0    0  0.33945513993E+00 -0.75207479159E-02  0.29346843182E+01  0.29542610584E+01  0.00000000000E+00 0. -1.
</event>
<event>
 5    1  0.3005426E+001  0.1598014E+01  0.7818608E-02  0.3355521E+00
         11   -1    0    0    0    0  0.00000000000E+00  0.00000000000E+00  0.39999999674E+01  0.40000000000E+01  0.51100000000E-03 0.  1.
    9000002   -1    0    0    0    0 -0.00000000000E+00 -0.00000000000E+00  0.00000000000E+00  0.93800000000E+00  0.93800000000E+00 0.  1.
         11    1    1    2    0    0 -0.60548970916E-01  0.10108151029E+00  0.72594794570E+00  0.73544838744E+00  0.51100000000E-03 0.  1.
    9000002    1    1    2    0    0  0.36665666123E+00 -0.33522577246E+00  0.17036199601E+00  0.10750258766E+01  0.93800000000E+00 0.  1.
         22    1    1    2    0    0 -0.30610769031E+00  0.23414426217E+00  0.31036900257E+01  0.31275257359E+01  0.00000000000E+00 0.  1.
</event>
<event>
 5    1  0.3005426E+001  0.1594405E+01  0.7818608E-02  0.3359458E+00
         11   -1    0    0    0    0  0.00000000000E+00  0.00000000000E+00  0.39999999674E+01  0.40000000000E+01  0.51100000000E-03 0.  1.
    9000002   -1    0    0    0    0 -0.00000000000E+00 -0.00000000000E+00  0.00000000000E+00  0.93800000000E+00  0.93800000000E+00 0.  1.
         11    1    1    2    0    0  0.98242446753E-03 -0.28513030208E-01  0.95237791237E+00  0.95280528291E+00  0.51100000000E-03 0.  1.
    9000002    1    1    2    0    0 -0.26577144063E+00 -0.48096485554E-01  0.52612808529E-01  0.97752741046E+00  0.93800000000E+00 0.  1.
         22    1    1    2    0    0  0.26478901617E+00  0.76609515761E-01  0.29950092465E+01  0.30076673066E+01  0.00000000000E+00 0.  1.
</event>
<event>
 5    1  0.3005426E+001  0.1599650E+01  0.7818608E-02  0.3353744E+00
         11   -1    0    0    0    0  0.00000000000E+00  0.00000000000E+00  0.39999999674E+01  0.40000000000E+01  0.51100000000E-03 0. -1.
    9000002   -1    0    0    0    0 -0.00000000000E+00 -0.00000000000E+00  0.00000000000E+00  0.93800000000E+00  0.93800000000E+00 0.  1.
         11    1    1    2    0    0 -0.73117432602E-01  0.23102930954E-01  0.82290662813E+00  0.82647170799E+00  0.51100000000E-03 0. -1.
    9000002    1    1    2    0    0  0.34794783699E+00 -0.13402047984E+00  0.93486954396E-01  0.10137124824E+01  0.93800000000E+00 0.  1.
         22    1    1    2    0    0 -0.27483040439E+00  0.11091754888E+00  0.30836063848E+01  0.30978158096E+01  0.00000000000E+00 0. -1.
</event>
<event>
 5    1  0.3005426E+001  0.1599673E+01  0.7818608E-02  0.3353718E+00
         11   -1    0    0    0    0  0.00000000000E+00  0.00000000000E+00  0.39999999674E+01  0.40000000000E+01  0.51100000000E-03 0.  1.
    9000002   -1    0    0    0    0 -0.00000000000E+00 -0.00000000000E+00  0.00000000000E+00  0.93800000000E+00  0.93800000000E+00 0. -1.
         11    1    1    2    0    0  0.94422590687E-01  0.16455070205E+00  0.12494676808E+01  0.12637888691E+01  0.51100000000E-03 0.  1.
    9000002    1    1    2    0    0 -0.27969847844E+00 -0.49386012938E+00  0.22325753265E+00  0.11188462773E+01  0.93800000000E+00 0. -1.
         22    1    1    2    0    0  0.18527588775E+00  0.32930942733E+00  0.25272747539E+01  0.25553648536E+01  0.00000000000E+00 0.  1.
</event>
<event>
 5    1  0.3005426E+001  0.1544042E+01  0.7818608E-02  0.3416431E+00
         11   -1    0    0    0    0  0.00000000000E+00  0.00000000000E+00  0.39999999674E+01  0.40000000000E+01  0.51100000000E-03 0. -1.
    9000002   -1    0    0    0    0 -0.00000000000E+00 -0.00000000000E+00  0.00000000000E+00  0.93800000000E+00  0.93800000000E+00 0.  1.
         11    1    1    2    0    0  0.30979536902E-01  0.34466636556E-02 -0.65517767235E-02  0.31855895785E-01  0.51100000000E-03 0. -1.
    9000002    1    1    2    0    0  0.32404976102E+00  0.66082546878E-01  0.11887825330E+00  0.10016741934E+01  0.93800000000E+00 0.  1.
         22    1    1    2    0    0 -0.35502929793E+00 -0.69529210533E-01  0.38876734908E+01  0.39044699108E+01  0.00000000000E+00 0. -1.
</event>
<event>
 5    1  0.3005426E+001  0.1599676E+01  0.7818608E-02  0.3353715E+00
         11   -1    0    0    0    0  0.00000000000E+00  0.00000000000E+00  0.39999999674E+01  0.40000000000E+01  0.51100000000E-03 0. -1.
    9000002   -1    0    0    0    0 -0.00000000000E+00 -0.00000000000E+00  0.00000000000E+00  0.93800000000E+00  0.93800000000E+00 0. -1.
         11    1    1    2    0    0  0.49077803635E-03 -0.31196126894E-01  0.25859206038E+00  0.26046795198E+00  0.51100000000E-03 0.  1.
    9000002    1    1    2    0    0 -0.85959760865E-02  0.47177371465E+00  0.15172016469E+00  0.10608993058E+01  0.93800000000E+00 0. -1.
         22    1    1    2    0    0  0.81051980501E-02 -0.44057758776E+00  0.35896877423E+01  0.36166327422E+01  0.00000000000E+00 0. -1.
</event>
<event>
 5    1  0.3005426E+001  0.1580994E+01  0.7818608E-02  0.3374253E+00
         11   -1    0    0    0    0  0.00000000000E+00  0.00000000000E+00  0.39999999674E+01  0.40000000000E+01  0.51100000000E-03 0. -1.
    9000002   -1    0    0    0    0 -0.00000000000E+00 -0.00000000000E+00  0.00000000000E+00  0.93800000000E+00  0.93800000000E+00 0.  1.
         11    1    1    2    0    0 -0.11062554989E+00 -0.64307397708E-01  0.11359398696E+01  0.11431242724E+01  0.51100000000E-03 0. -1.
    9000002    1    1    2    0    0 -0.13306777712E+00  0.22806634857E+00  0.60874376867E-01  0.97635597116E+00  0.93800000000E+00 0.  1.
         22    1    1    2    0    0  0.24369332701E+00 -0.16375895087E+00  0.28031857209E+01  0.28185197565E+01  0.00000000000E+00 0. -1.
</event>
<event>
 5    1  0.3005426E+001  0.1496397E+01  0.7818608E-02  0.3474104E+00
         11   -1    0    0    0    0  0.00000000000E+00  0.00000000000E+00  0.39999999674E+01  0.40000000000E+01  0.51100000000E-03 0. -1.
    9000002   -1    0    0    0    0 -0.00000000000E+00 -0.00000000000E+00  0.00000000000E+00  0.93800000000E+00  0.93800000000E+00 0.  1.
         11    1    1    2    0    0  0.11084668390E+00  0.68724751976E-01  0.10139015240E+00  0.16519776933E+00  0.51100000000E-03 0. -1.
    9000002    1    1    2    0    0  0.55920692879E+00 -0.23565848250E+00  0.36939572843E+00  0.11766666961E+01  0.93800000000E+00 0.  1.
         22    1    1    2    0    0 -0.67005361270E+00  0.16693373053E+00  0.35292140865E+01  0.35961355345E+01  0.00000000000E+00 0. -1.
</event>
<event>
 5    1  0.3005426E+001  0.1583451E+01  0.7818608E-02  0.3371523E+00
         11   -1    0    0    0    0  0.00000000000E+00  0.00000000000E+00  0.39999999674E+01  0.40000000000E+01  0.51100000000E-03 0.  1.
    9000002   -1    0    0    0    0 -0.00000000000E+00 -0.00000000000E+00  0.00000000000E+00  0.93800000000E+00  0.93800000000E+00 0.  1.
         11    1    1    2    0    0 -0.97187824661E-01 -0.59095143481E-01  0.60386230690E+00  0.61448161573E+00  0.51100000000E-03 0.  1.
    9000002    1    1    2    0    0  0.29750312942E+00 -0.25591381824E+00  0.11733042136E+00  0.10235284179E+01  0.93800000000E+00 0.  1.
         22    1    1    2    0    0 -0.20031530476E+00  0.31500896172E+00  0.32788072391E+01  0.32999899664E+01  0.00000000000E+00 0.  1.
</event>
<event>
 5    1  0.3005426E+001  0.1580632E+01  0.7818608E-02  0.3374657E+00
         11   -1    0    0    0    0  0.00000000000E+00  0.00000000000E+00  0.39999999674E+01  0.40000000000E+01  0.51100000000E-03 0. -1.
    9000002   -1    0    0    0    0 -0.00000000000E+00 -0.00000000000E+00  0.00000000000E+00  0.93800000000E+00  0.93800000000E+00 0. -1.
         11    1    1    2    0    0  0.53344278646E-01  0.93218986450E-01  0.16414618688E+00  0.19616223716E+00  0.51100000000E-03 0. -1.
    9000002    1    1    2    0    0 -0.17518882766E+00 -0.72978368085E+00  0.43166521223E+00  0.12765007644E+01  0.93800000000E+00 0. -1.
         22    1    1    2    0    0  0.12184454901E+00  0.63656469440E+00  0.34041885683E+01  0.34653369984E+01  0.00000000000E+00 0. -1.
</event>
<event>
 5    1  0.3005426E+001  0.1581801E+01  0.7818608E-02  0.3373356E+00
         11   -1    0    0    0    0  0.00000000000E+00  0.00000000000E+00  0.39999999674E+01  0.40000000000E+01  0.51100000000E-03 0. -1.
    9000002   -1    0    0    0    0 -0.00000000000E+00 -0.00000000000E+00  0.00000000000E+00  0.93800000000E+00  0.93800000000E+00 0. -1.
         11    1    1    2    0    0 -0.15772155099E+00 -0.58282261878E-01  0.87783028870E+00  0.89378922939E+00  0.51100000000E-03 0. -1.
    9000002    1    1    2    0    0  0.29741070904E+00 -0.18287274008E+00  0.96252761522E-01  0.10054870278E+01  0.93800000000E+00 0. -1.
         22    1    1    2    0    0 -0.13968915805E+00  0.24115500196E+00  0.30259169171E+01  0.30387237428E+01  0.00000000000E+00 0. -1.
</event>
<event>
 5    1  0.3005426E+001  0.1599673E+01  0.7818608E-02  0.3353719E+00
         11   -1    0    0    0    0  0.00000000000E+00  0.00000000000E+00  0.39999999674E+01  0.40000000000E+01  0.51100000000E-03 0.  1.
    9000002   -1    0    0    0    0 -0.00000000000E+00 -0.00000000000E+00  0.00000000000E+00  0.93800000000E+00  0.93800000000E+00 0.  1.
         11    1    1    2    0    0 -0.62788835202E-01 -0.20390966556E+00  0.79005788583E+00  0.81836013687E+00  0.51100000000E-03 0.  1.
    9000002    1    1    2    0    0  0.26499653457E+00  0.86255318088E+00  0.62386200845E+00  0.14433533728E+01  0.93800000000E+00 0.  1.
         22    1    1    2    0    0 -0.20220769937E+00 -0.65864351532E+00  0.25860800731E+01  0.26762864903E+01  0.00000000000E+00 0.  1.
</event>
<event>
 5    1  0.3005426E+001  0.1599677E+01  0.7818608E-02  0.3353714E+00
         11   -1    0    0    0    0  0.00000000000E+00  0.00000000000E+00  0.39999999674E+01  0.40000000000E+01  0.51100000000E-03 0. -1.
    9000002   -1    0    0    0    0 -0.00000000000E+00 -0.00000000000E+00  0.00000000000E+00  0.93800000000E+00  0.93800000000E+00 0. -1.
         11    1    1    2    0    0  0.92894312158E-01 -0.22446340291E-01  0.10541725959E+01  0.10584957791E+01  0.51100000000E-03 0. -1.
    9000002    1    1    2    0    0 -0.34567280820E+00  0.82418369466E-01  0.84724335684E-01  0.10066303646E+01  0.93800000000E+00 0. -1.
         22    1    1    2    0    0  0.25277849604E+00 -0.59972029175E-01  0.28611030358E+01  0.28728738563E+01  0.00000000000E+00 0. -1.
</event>
<event>
 5    1  0.3005426E+001  0.1597781E+01  0.7818608E-02  0.3355775E+00
         11   -1    0    0    0    0  0.00000000000E+00  0.00000000000E+00  0.39999999674E+01  0.40000000000E+01  0.51100000000E-03 0.  1.
    9000002   -1    0    0    0    0 -0.00000000000E+00 -0.00000000000E+00  0.00000000000E+00  0.93800000000E+00  0.93800000000E+00 0. -1.
         11    1    1    2    0    0  0.41341476321E-02 -0.27087176324E-01  0.87135804584E+00  0.87178891451E+00  0.51100000000E-03 0.  1.
    9000002    1    1    2    0    0 -0.90564081713E-01  0.30527864173E+00  0.69263072285E-01  0.99299459977E+00  0.93800000000E+00 0. -1.
         22    1    1    2    0    0  0.86429934081E-01 -0.27819146540E+00  0.30593788492E+01  0.30732164857E+01  0.00000000000E+00 0.  1.
</event>
<event>
 5    1  0.3005426E+001  0.1582195E+01  0.7818608E-02  0.3372918E+00
         11   -1    0    0    0    0  0.00000000000E+00  0.00000000000E+00  0.39999999674E+01  0.40000000000E+01  0.51100000000E-03 0. -1.
    9000002   -1    0    0    0    0 -0.00000000000E+00 -0.00000000000E+00  0.00000000000E+00  0.93800000000E+00  0.93800000000E+00 0.  1.
         11    1    1    2    0    0 -0.22170838242E-01  0.15672114026E+00  0.52086849565E+00  0.54438709827E+00  0.51100000000E-03 0. -1.
    9000002    1    1    2    0    0  0.28538835408E+00 -0.35123629702E+00  0.15444831136E+00  0.10528588366E+01  0.93800000000E+00 0.  1.
         22    1    1    2    0    0 -0.26321751584E+00  0.19451515676E+00  0.33246831603E+01  0.33407540651E+01  0.00000000000E+00 0. -1.
</event>
<event>
 5    1  0.3005426E+001  0.1456501E+01  0.7818608E-02  0.3525533E+00
         11   -1    0    0    0    0  0.00000000000E+00  0.00000000000E+00  0.39999999674E+01  0.40000000000E+01  0.51100000000E-03 0.  1.
    9000002   -1    0    0    0    0 -0.00000000000E+00 -0.00000000000E+00  0.00000000000E+00  0.93800000000E+00  0.93800000000E+00 0. -1.
         11    1    1    2    0    0 -0.42183238583E-01 -0.25501088552E+00  0.32236977695E+00  0.41319790847E+00  0.51100000000E-03 0.  1.
    9000002    1    1    2    0    0 -0.11231176649E+00 -0.52355473402E-01  0.12363122544E+00  0.95419269982E+00  0.93800000000E+00 0. -1.
         22    1    1    2    0    0  0.15449500507E+00  0.30736635892E+00  0.35539989650E+01  0.35706093917E+01  0.00000000000E+00 0.  1.
</event>
<event>
 5    1  0.3005426E+001  0.1597671E+01  0.7818608E-02  0.3355896E+00
         11   -1    0    0    0    0  0.00000000000E+00  0.00000000000E+00  0.39999999674E+01  0.40000000000E+01  0.51100000000E-03 0. -1.
    9000002   -1    0    0    0    0 -0.00000000000E+00 -0.00000000000E+00  0.00000000000E+00  0.93800000000E+00  0.93800000000E+00 0. -1.
         11    1    1    2    0    0 -0.15855763372E+00  0.37458057365E-01  0.12750386754E+01  0.12854055835E+01  0.51100000000E-03 0. -1.
    9000002    1    1    2    0    0  0.35056555692E+00 -0.19288953147E+00  0.10966549542E+00  0.10256573999E+01  0.93800000000E+00 0. -1.
         22    1    1    2    0    0 -0.19200792320E+00  0.15543147411E+00  0.26152957966E+01  0.26269370166E+01  0.00000000000E+00 0. -1.
</event>
<event>
 5    1  0.3005426E+001  0.1595652E+01  0.7818608E-02  0.3358096E+00
         11   -1    0    0    0    0  0.00000000000E+00  0.00000000000E+00  0.39999999674E+01  0.40000000000E+01  0.51100000000E-03 0.  1.
    9000002   -1    0    0    0    0 -0.00000000000E+00 -0.00000000000E+00  0.00000000000E+00  0.93800000000E+00  0.93800000000E+00 0. -1.
         11    1    1    2    0    0  0.42214498157E-01 -0.45539625208E-01  0.67244102767E+00  0.67530224206E+00  0.51100000000E-03 0.  1.
    9000002    1    1    2    0    0 -0.44913622878E+00  0.92924423031E-03  0.14047209235E+00  0.10494287133E+01  0.93800000000E+00 0. -1.
         22    1    1    2    0    0  0.40692173062E+00  0.44610380978E-01  0.31870868473E+01  0.32132690447E+01  0.00000000000E+00 0.  1.
</event>
<event>
 5    1  0.3005426E+001  0.1579592E+01  0.7818608E-02  0.3375816E+00
         11   -1    0    0    0    0  0.00000000000E+00  0.00000000000E+00  0.39999999674E+01  0.40000000000E+01  0.51100000000E-03 0.  1.
    9000002   -1    0    0    0    0 -0.00000000000E+00 -0.00000000000E+00  0.00000000000E+00  0.93800000000E+00  0.93800000000E+00 0.  1.
         11    1    1    2    0    0  0.49454717057E+00  0.77490079004E-01  0.11092941972E+01  0.12170108847E+01  0.51100000000E-03 0.  1.
    9000002    1    1    2    0    0 -0.94108256003E+00 -0.35752041857E+00  0.85914661315E+00  0.16221695773E+01  0.93800000000E+00 0.  1.
         22    1    1    2    0    0  0.44653538946E+00  0.28003033957E+00  0.20315591570E+01  0.20988195381E+01  0.00000000000E+00 0.  1.
</event>
<event>
 5    1  0.3005426E+001  0.1599663E+01  0.7818608E-02  0.3353729E+00
         11   -1    0    0    0    0  0.00000000000E+00  0.00000000000E+00  0.39999999674E+01  0.40000000000E+01  0.51100000000E-03 0. -1.
    9000002   -1    0    0    0    0 -0.00000000000E+00 -0.00000000000E+00  0.00000000000E+00  0.93800000000E+00  0.93800000000E+00 0.  1.
         11    1    1    2    0    0  0.28005658986E-01 -0.90644912655E-01  0.90766038945E+00  0.91260531493E+00  0.51100000000E-03 0. -1.
    9000002    1    1    2    0    0 -0.12879652890E+00  0.37505302433E+00  0.10603539878E+00  0.10238851609E+01  0.93800000000E+00 0.  1.
         22    1    1    2    0    0  0.10079086991E+00 -0.28440811167E+00  0.29863041791E+01  0.30015095242E+01  0.00000000000E+00 0. -1.
</event>
<event>
 5    1  0.3005426E+001  0.1585015E+01  0.7818608E-02  0.3369790E+00
         11   -1    0    0    0    0  0.00000000000E+00  0.00000000000E+00  0.39999999674E+01  0.40000000000E+01  0.51100000000E-03 0. -1.
    9000002   -1    0    0    0    0 -0.00000000000E+00 -0.00000000000E+00  0.00000000000E+00  0.93800000000E+00  0.93800000000E+00 0.  1.
         11    1    1    2    0    0 -0.38974550106E-01  0.21858061445E-01  0.16274207942E+00  0.16876621682E+00  0.51100000000E-03 0. -1.
    9000002    1    1    2    0    0 -0.23462472710E+00  0.24802492531E+00  0.89924251407E-01  0.10022452280E+01  0.93800000000E+00 0.  1.
         22    1    1    2    0    0  0.27359927720E+00 -0.26988298676E+00  0.37473336365E+01  0.37669885551E+01  0.00000000000E+00 0. -1.
</event>
<event>
 5    1  0.3005426E+001  0.1506262E+01  0.7818608E-02  0.3461840E+00
         11   -1    0    0    0    0  0.00000000000E+00  0.00000000000E+00  0.39999999674E+01  0.40000000000E+01  0.51100000000E-03 0.  1.
    9000002   -1    0    0    0    0 -0.00000000000E+00 -0.00000000000E+00  0.00000000000E+00  0.93800000000E+00  0.93800000000E+00 0. -1.
         11    1    1    2    0    0 -0.11177607366E+00 -0.33368921278E+00  0.11622291338E+01  0.12143389979E+01  0.51100000000E-03 0.  1.
    9000002    1    1    2    0    0 -0.16059810277E+00  0.12091958210E+00  0.10038145280E+00  0.96453809257E+00  0.93800000000E+00 0. -1.
         22    1    1    2    0    0  0.27237417643E+00  0.21276963068E+00  0.27373893808E+01  0.27591229095E+01  0.00000000000E+00 0.  1.
</event>
<event>
 5    1  0.3005426E+001  0.1599169E+01  0.7818608E-02  0.3354266E+00
         11   -1    0    0    0    0  0.00000000000E+00  0.00000000000E+00  0.39999999674E+01  0.40000000000E+01  0.51100000000E-03 0.  1.
    9000002   -1    0    0    0    0 -0.00000000000E+00 -0.00000000000E+00  0.00000000000E+00  0.93800000000E+00  0.93800000000E+00 0. -1.
         11    1    1    2    0    0  0.15390015911E+00 -0.94182317095E-01  0.12366503682E+01  0.12497439586E+01  0.51100000000E-03 0.  1.
    9000002    1    1    2    0    0 -0.49476821519E+00  0.35683828969E+00  0.26070802215E+00  0.11488872114E+01  0.93800000000E+00 0. -1.
         22    1    1    2    0    0  0.34086805607E+00 -0.26265597259E+00  0.25026415770E+01  0.25393688300E+01  0.00000000000E+00 0.  1.
</event>
<event>
 5    1  0.3005426E+001  0.1599673E+01  0.7818608E-02  0.3353718E+00
         11   -1    0    0    0    0  0.00000000000E+00  0.00000000000E+00  0.39999999674E+01  0.40000000000E+01  0.51100000000E-03 0. -1.
    9000002   -1    0    0    0    0 -0.00000000000E+00 -0.00000000000E+00  0.00000000000E+00  0.93800000000E+00  0.93800000000E+00 0.  1.
         11    1    1    2    0    0 -0.77542068319E-02 -0.86706017717E-01  0.94113685986E+00  0.94515443782E+00  0.51100000000E-03 0. -1.
    9000002    1    1    2    0    0  0.24708945589E-01  0.35744948677E+00  0.86163467573E-01  0.10077940319E+01  0.93800000000E+00 0.  1.
         22    1    1    2    0    0 -0.16954738757E-01 -0.27074346905E+00  0.29726996399E+01  0.29850515303E+01  0.00000000000E+00 0. -1.
</event>
<event>
 5    1  0.3005426E+001  0.1522807E+01  0.7818608E-02  0.3441658E+00
         11   -1    0    0    0    0  0.00000000000E+00  0.00000000000E+00  0.39999999674E+01  0.40000000000E+01  0.51100000000E-03 0.  1.
    9000002   -1    0    0    0    0 -0.00000000000E+00 -0.00000000000E+00  0.00000000000E+00  0.93800000000E+00  0.93800000000E+00 0. -1.
         11    1    1    2    0    0 -0.36060393376E+00 -0.52351802963E-01  0.14153415576E+01  0.14614950887E+01  0.51100000000E-03 0.  1.
    9000002    1    1    2    0    0  0.10850307610E+00  0.14814620374E+00  0.81954800596E-01  0.95931267298E+00  0.93800000000E+00 0. -1.
         22    1    1    2    0    0  0.25210085766E+00 -0.95794400778E-01  0.25027036091E+01  0.25171922383E+01  0.00000000000E+00 0.  1.
</event>
<event>
 5    1  0.3005426E+001  0.1527322E+01  0.7818608E-02  0.3436231E+00
         11   -1    0    0    0    0  0.00000000000E+00  0.00000000000E+00  0.39999999674E+01  0.40000000000E+01  0.51100000000E-03 0.  1.
    9000002   -1    0    0    0    0 -0.00000000000E+00 -0.00000000000E+00  0.00000000000E+00  0.93800000000E+00  0.93800000000E+00 0. -1.
         11    1    1    2    0    0 -0.22251343714E+00 -0.10629859261E+00  0.45489723071E+00  0.51743924486E+00  0.51100000000E-03 0.  1.
    9000002    1    1    2    0    0  0.10611305348E+00  0.43460346547E+00  0.20114524779E+00  0.10585100675E+01  0.93800000000E+00 0. -1.
         22    1    1    2    0    0  0.11640038365E+00 -0.32830487286E+00  0.33439574889E+01  0.33620506876E+01  0.00000000000E+00 0.  1.
</event>
<event>
 5    1  0.3005426E+001  0.1594634E+01  0.7818608E-02  0.3359208E+00
         11   -1    0    0    0    0  0.00000000000E+00  0.00000000000E+00  0.39999999674E+01  0.40000000000E+01  0.51100000000E-03 0.  1.
    9000002   -1    0    0    0    0 -0.00000000000E+00 -0.00000000000E+00  0.00000000000E+00  0.93800000000E+00  0.93800000000E+00 0.  1.
         11    1    1    2    0    0 -0.70911767894E-01  0.42106438540E-02  0.14224226618E+01  0.14241954565E+01  0.51100000000E-03 0.  1.
    9000002    1    1    2    0    0  0.31395103368E+00 -0.20368582086E+00  0.98302873864E-01  0.10146726665E+01  0.93800000000E+00 0.  1.
         22    1    1    2    0    0 -0.24303926579E+00  0.19947517701E+00  0.24792744316E+01  0.24991318769E+01  0.00000000000E+00 0.  1.
</event>
<event>
 5    1  0.3005426E+001  0.1599674E+01  0.7818608E-02  0.3353717E+00
         11   -1    0    0    0    0  0.00000000000E+00  0.00000000000E+00  0.39999999674E+01  0.40000000000E+01  0.51100000000E-03 0. -1.
    9000002   -1    0    0    0    0 -0.00000000000E+00 -0.00000000000E+00  0.00000000000E+00  0.93800000000E+00  0.93800000000E+00 0.  1.
         11    1    1    2    0    0 -0.46917088820E-02  0.89865067114E-02  0.11101396092E+00  0.11147703833E+00  0.51100000000E-03 0. -1.
    9000002    1    1    2    0    0  0.15152499734E+00 -0.32413283198E+00  0.85917025524E-01  0.10075949845E+01  0.93800000000E+00 0.  1.
         22    1    1    2    0    0 -0.14683328846E+00  0.31514632526E+00  0.38030689809E+01  0.38189279771E+01  0.00000000000E+00 0. -1.
</event>
<event>
 5    1  0.3005426E+001  0.1592703E+01  0.7818608E-02  0.3361321E+00
         11   -1    0    0    0    0  0.00000000000E+00  0.00000000000E+00  0.39999999674E+01  0.40000000000E+01  0.51100000000E-03 0.  1.
    9000002   -1    0    0    0    0 -0.00000000000E+00 -0.00000000000E+00  0.00000000000E+00  0.93800000000E+00  0.93800000000E+00 0.  1.
         11    1    1    2    0    0 -0.20405798105E+00 -0.98391958190E-01  0.10026652389E+01  0.10279389473E+01  0.51100000000E-03 0.  1.
    9000002    1    1    2    0    0  0.43362667513E+00  0.33643263657E+00  0.21461025504E+00  0.11077547445E+01  0.93800000000E+00 0.  1.
         22    1    1    2    0    0 -0.22956869408E+00 -0.23804067838E+00  0.27827244735E+01  0.28023063082E+01  0.00000000000E+00 0.  1.
</event>
<event>
 5    1  0.3005426E+001  0.1517460E+01  0.7818608E-02  0.3448129E+00
         11   -1    0    0    0    0  0.00000000000E+00  0.00000000000E+00  0.39999999674E+01  0.40000000000E+01  0.51100000000E-03 0. -1.
    9000002   -1    0    0    0    0 -0.00000000000E+00 -0.00000000000E+00  0.00000000000E+00  0.93800000000E+00  0.93800000000E+00 0.  1.
         11    1    1    2    0    0  0.28049820541E+00  0.21031004707E+00  0.11404386189E+01  0.11931094098E+01  0.51100000000E-03 0. -1.
    9000002    1    1    2    0    0  0.43810527795E-01 -0.31336331201E+00  0.13491950022E+00  0.99908117748E+00  0.93800000000E+00 0.  1.
         22    1    1    2    0    0 -0.32430873320E+00  0.10305326493E+00  0.27246418482E+01  0.27458094127E+01  0.00000000000E+00 0. -1.
</event>
<event>
 5    1  0.3005426E+001  0.1599443E+01  0.7818608E-02  0.3353968E+00
         11   -1    0    0    0    0  0.00000000000E+00  0.00000000000E+00  0.39999999674E+01  0.40000000000E+01  0.51100000000E-03 0.  1.
    9000002   -1    0    0    0    0 -0.00000000000E+00 -0.00000000000E+00  0.00000000000E+00  0.93800000000E+00  0.93800000000E+00 0. -1.
         11    1    1    2    0    0  0.67657135358E-02 -0.81524485892E-01  0.96348640596E+00  0.96695311793E+00  0.51100000000E-03 0.  1.
    9000002    1    1    2    0    0  0.21649502959E-01  0.37231161124E+00  0.93693928151E-01  0.10137589403E+01  0.93800000000E+00 0. -1.
         22    1    1    2    0    0 -0.28415216495E-01 -0.29078712534E+00  0.29428196332E+01  0.29572879418E+01  0.00000000000E+00 0.  1.
</event>
<event>
 5    1  0.3005426E+001  0.1599477E+01  0.7818608E-02  0.3353932E+00
         11   -1    0    0    0    0  0.00000000000E+00  0.00000000000E+00  0.39999999674E+01  0.40000000000E+01  0.51100000000E-03 0. -1.
    9000002   -1    0    0    0    0 -0.00000000000E+00 -0.00000000000E+00  0.00000000000E+00  0.93800000000E+00  0.93800000000E+00 0. -1.
         11    1    1    2    0    0 -0.56541369046E-01  0.52395857570E-01  0.75901561537E+00  0.76292019098E+00  0.51100000000E-03 0. -1.
    9000002    1    1    2    0    0  0.35142773395E+00 -0.23829685603E+00  0.12217527931E+00  0.10368498650E+01  0.93800000000E+00 0. -1.
         22    1    1    2    0    0 -0.29488636490E+00  0.18590099846E+00  0.31188090727E+01  0.31382299440E+01  0.00000000000E+00 0. -1.
</event>
<event>
 5    1  0.3005426E+001  0.1594186E+01  0.7818608E-02  0.3359697E+00
         11   -1    0    0    0    0  0.00000000000E+00  0.00000000000E+00  0.39999999674E+01  0.40000000000E+01  0.51100000000E-03 0.  1.
    9000002   -1    0    0    0    0 -0.00000000000E+00 -0.00000000000E+00  0.00000000000E+00  0.93800000000E+00  0.93800000000E+00 0. -1.
         11    1    1    2    0    0  0.66523883661E-01  0.15787054827E+00  0.13328218298E+01  0.13437867495E+01  0.51100000000E-03 0.  1.
    9000002    1    1    2    0    0 -0.35654251043E+00 -0.59507382652E+00  0.34947731756E+00  0.12178726601E+01  0.93800000000E+00 0. -1.
         22    1    1    2    0    0  0.29001862677E+00  0.43720327825E+00  0.23177008200E+01  0.23763405904E+01  0.00000000000E+00 0.  1.
</event>
<event>
 5    1  0.3005426E+001  0.1599676E+01  0.7818608E-02  0.3353715E+00
         11   -1    0    0    0    0  0.00000000000E+00  0.00000000000E+00  0.39999999674E+01  0.40000000000E+01  0.51100000000E-03 0. -1.
    9000002   -1    0    0    0    0 -0.00000000000E+00 -0.00000000000E+00  0.00000000000E+00  0.93800000000E+00  0.93800000000E+00 0. -1.
         11    1    1    2    0    0  0.12315437798E+00 -0.85356954195E-01  0.14318808867E+01  0.14396999497E+01  0.51100000000E-03 0. -1.
    9000002    1    1    2    0    0 -0.33324508654E+00  0.22891591194E+00  0.11031557333E+00  0.10273598728E+01  0.93800000000E+00 0. -1.
         22    1    1    2    0    0  0.21009070856E+00 -0.14355895774E+00  0.24578035073E+01  0.24709401775E+01  0.00000000000E+00 0. -1.
</event>
<event>
 5    1  0.3005426E+001  0.1470337E+01  0.7818608E-02  0.3507355E+00
         11   -1    0    0    0    0  0.00000000000E+00  0.00000000000E+00  0.39999999674E+01  0.40000000000E+01  0.51100000000E-03 0.  1.
    9000002   -1    0    0    0    0 -0.00000000000E+00 -0.00000000000E+00  0.00000000000E+00  0.93800000000E+00  0.93800000000E+00 0.  1.
         11    1    1    2    0    0  0.25339353103E+00  0.37055953288E+00  0.78983979899E+00  0.90849866162E+00  0.51100000000E-03 0.  1.
    9000002    1    1    2    0    0 -0.11805939703E+00 -0.11056960078E+00  0.15988863273E+00  0.96517979295E+00  0.93800000000E+00 0.  1.
         22    1    1    2    0    0 -0.13533413401E+00 -0.25998993211E+00  0.30502715356E+01  0.30643215454E+01  0.00000000000E+00 0. -1.
</event>
<event>
 5    1  0.3005426E+001  0.1599640E+01  0.7818608E-02  0.3353755E+00
         11   -1    0    0    0    0  0.00000000000E+00  0.00000000000E+00  0.39999999674E+01  0.40000000000E+01  0.51100000000E-03 0. -1.
    9000002   -1    0    0    0    0 -0.00000000000E+00 -0.00000000000E+00  0.00000000000E+00  0.93800000000E+00  0.93800000000E+00 0. -1.
         11    1    1    2    0    0 -0.84334527773E-01 -0.95197991077E-01  0.68820539105E+00  0.69985847960E+00  0.51100000000E-03 0. -1.
    9000002    1    1    2    0    0  0.42511839604E+00  0.49777583521E+00  0.30275050963E+00  0.11832194656E+01  0.93800000000E+00 0. -1.
         22    1    1    2    0    0 -0.34078386827E+00 -0.40257784413E+00  0.30090440667E+01  0.30549220548E+01  0.00000000000E+00 0. -1.
</event>
<event>
 5    1  0.3005426E+001  0.1597989E+01  0.7818608E-02  0.3355549E+00
         11   -1    0    0    0    0  0.00000000000E+00  0.00000000000E+00  0.39999999674E+01  0.40000000000E+01  0.51100000000E-03 0. -1.
    9000002   -1    0    0    0    0 -0.00000000000E+00 -0.00000000000E+00  0.00000000000E+00  0.93800000000E+00  0.93800000000E+00 0. -1.
         11    1    1    2    0    0  0.27259351158E-01 -0.12073760062E+00  0.13384785933E+01  0.13441896615E+01  0.51100000000E-03 0. -1.
    9000002    1    1    2    0    0 -0.20001573567E+00  0.28718095508E+00  0.83483842035E-01  0.10046356292E+01  0.93800000000E+00 0. -1.
         22    1    1    2    0    0  0.17275638451E+00 -0.16644335446E+00  0.25780375321E+01  0.25891747093E+01  0.00000000000E+00 0. -1.
</event>
<event>
 5    1  0.3005426E+001  0.1581621E+01  0.7818608E-02  0.3373556E+00
         11   -1    0    0    0    0  0.00000000000E+00  0.00000000000E+00  0.39999999674E+01  0.40000000000E+01  0.51100000000E-03 0. -1.
    9000002   -1    0    0    0    0 -0.00000000000E+00 -0.00000000000E+00  0.00000000000E+00  0.93800000000E+00  0.93800000000E+00 0.  1.
         11    1    1    2    0    0  0.25246774588E-01 -0.56558609593E-01  0.16189377059E+00  0.17333819551E+00  0.51100000000E-03 0. -1.
    9000002    1    1    2    0    0  0.31782898768E+00  0.92687113310E-01  0.87861319581E-01  0.99858388624E+00  0.93800000000E+00 0.  1.
         22    1    1    2    0    0 -0.34307576226E+00 -0.36128503716E-01  0.37502448772E+01  0.37660779182E+01  0.00000000000E+00 0. -1.
</event>
<event>
 5    1  0.3005426E+001  0.1599472E+01  0.7818608E-02  0.3353936E+00
         11   -1    0    0    0    0  0.00000000000E+00  0.00000000000E+00  0.39999999674E+01  0.40000000000E+01  0.51100000000E-03 0.  1.
    9000002   -1    0    0    0    0 -0.00000000000E+00 -0.00000000000E+00  0.00000000000E+00  0.93800000000E+00  0.93800000000E+00 0. -1.
         11    1    1    2    0    0  0.10091198078E-01 -0.57878235825E-01  0.53781011963E+00  0.54100989672E+00  0.51100000000E-03 0.  1.
    9000002    1    1    2    0    0 -0.13618778389E+00  0.36096319090E+00  0.10038614861E+00  0.10191971922E+01  0.93800000000E+00 0. -1.
         22    1    1    2    0    0  0.12609658581E+00 -0.30308495507E+00  0.33618036991E+01  0.33777929111E+01  0.00000000000E+00 0.  1.
</event>
<event>
 5    1  0.3005426E+001  0.1599666E+01  0.7818608E-02  0.3353726E+00
         11   -1    0    0    0    0  0.00000000000E+00  0.00000000000E+00  0.39999999674E+01  0.40000000000E+01  0.51100000000E-03 0. -1.
    9000002   -1    0    0    0    0 -0.00000000000E+00 -0.00000000000E+00  0.00000000000E+00  0.93800000000E+00  0.93800000000E+00 0.  1.
         11    1    1    2    0    0 -0.43739963289E-01 -0.34886132742E-01  0.60849310552E+00  0.61106001934E+00  0.51100000000E-03 0. -1.
    9000002    1    1    2    0    0  0.29129717159E+00  0.20905636435E+00  0.86291055096E-01  0.10078932244E+01  0.93800000000E+00 0.  1.
         22    1    1    2    0    0 -0.24755720830E+00 -0.17417023161E+00  0.33052158067E+01  0.33190467562E+01  0.00000000000E+00 0. -1.
</event>
<event>
 5    1  0.3005426E+001  0.1588221E+01  0.7818608E-02  0.3366248E+00
         11   -1    0    0    0    0  0.00000000000E+00  0.00000000000E+00  0.39999999674E+01  0.40000000000E+01  0.51100000000E-03 0.  1.
    9000002   -1    0    0    0    0 -0.00000000000E+00 -0.00000000000E+00  0.00000000000E+00  0.93800000000E+00  0.93800000000E+00 0. -1.
         11    1    1    2    0    0  0.11123295326E-01 -0.13175491989E+00  0.66113354805E+00  0.67422616094E+00  0.51100000000E-03 0.  1.
    9000002    1    1    2    0    0 -0.28142059053E+00  0.24677197068E+00  0.10362306690E+00  0.10152219926E+01  0.93800000000E+00 0. -1.
         22    1    1    2    0    0  0.27029729521E+00 -0.11501705079E+00  0.32352433524E+01  0.32485518465E+01  0.00000000000E+00 0.  1.
</event>
<event>
 5    1  0.3005426E+001  0.1587144E+01  0.7818608E-02  0.3367436E+00
         11   -1    0    0    0    0  0.00000000000E+00  0.00000000000E+00  0.39999999674E+01  0.40000000000E+01  0.51100000000E-03 0. -1.
    9000002   -1    0    0    0    0 -0.00000000000E+00 -0.00000000000E+00  0.00000000000E+00  0.93800000000E+00  0.93800000000E+00 0. -1.
         11    1    1    2    0    0  0.87156233790E-01 -0.83733908929E-02  0.52006711617E+00  0.52738637564E+00  0.51100000000E-03 0. -1.
    9000002    1    1    2    0    0 -0.86496224408E-01  0.45318027694E+00  0.15581913209E+00  0.10568715921E+01  0.93800000000E+00 0. -1.
         22    1    1    2    0    0 -0.66000938207E-03 -0.44480688605E+00  0.33241137191E+01  0.33537420323E+01  0.00000000000E+00 0. -1.
</event>
<event>
 5    1  0.3005426E+001  0.1599622E+01  0.7818608E-02  0.3353773E+00
         11   -1    0    0    0    0  0.00000000000E+00  0.00000000000E+00  0.39999999674E+01  0.40000000000E+01  0.51100000000E-03 0. -1.
    9000002   -1    0    0    0    0 -0.00000000000E+00 -0.00000000000E+00  0.00000000000E+00  0.93800000000E+00  0.93800000000E+00 0. -1.
         11    1    1    2    0    0  0.51932189658E-01  0.16752913078E+00  0.10720561276E+01  0.10863091475E+01  0.51100000000E-03 0. -1.
    9000002    1    1    2    0    0 -0.15650334385E+00 -0.57392824421E+00  0.24669221939E+00  0.11377996209E+01  0.93800000000E+00 0. -1.
         22    1    1    2    0    0  0.10457115419E+00  0.40639911343E+00  0.26812516203E+01  0.27138912316E+01  0.00000000000E+00 0.  1.
</event>
<event>
 5    1  0.3005426E+001  0.1599677E+01  0.7818608E-02  0.3353714E+00
         11   -1    0    0    0    0  0.00000000000E+00  0.00000000000E+00  0.39999999674E+01  0.40000000000E+01  0.51100000000E-03 0.  1.
    9000002   -1    0    0    0    0 -0.00000000000E+00 -0.00000000000E+00  0.00000000000E+00  0.93800000000E+00  0.93800000000E+00 0. -1.
         11    1    1    2    0    0  0.16370720781E+00  0.87874426815E-01  0.12918072352E+01  0.13051008232E+01  0.51100000000E-03 0.  1.
    9000002    1    1    2    0    0 -0.48229998009E+00 -0.25790971096E+00  0.20649003938E+00  0.11052659527E+01  0.93800000000E+00 0. -1.
         22    1    1    2    0    0  0.31859277229E+00  0.17003528415E+00  0.25017026928E+01  0.25276332241E+01  0.00000000000E+00 0.  1.
</event>
<event>
 5    1  0.3005426E+001  0.1599676E+01  0.7818608E-02  0.3353715E+00
         11   -1    0    0    0    0  0.00000000000E+00  0.00000000000E+00  0.39999999674E+01  0.40000000000E+01  0.51100000000E-03 0.  1.
    9000002   -1    0    0    0    0 -0.00000000000E+00 -0.00000000000E+00  0.00000000000E+00  0.93800000000E+00  0.93800000000E+00 0. -1.
         11    1    1    2    0    0  0.34701848186E-01 -0.24375141507E-01  0.45662056185E+00  0.45858583102E+00  0.51100000000E-03 0.  1.
    9000002    1    1    2    0    0 -0.29234196529E+00  0.20821408840E+00  0.86459919240E-01  0.10080358371E+01  0.93800000000E+00 0. -1.
         22    1    1    2    0    0  0.25764011711E+00 -0.18383894689E+00  0.34569194863E+01  0.34713783319E+01  0.00000000000E+00 0.  1.
</event>
<event>
 5    1  0.3005426E+001  0.1594004E+01  0.7818608E-02  0.3359897E+00
         11   -1    0    0    0    0  0.00000000000E+00  0.00000000000E+00  0.39999999674E+01  0.40000000000E+01  0.51100000000E-03 0. -1.
    9000002   -1    0    0    0    0 -0.00000000000E+00 -0.00000000000E+00  0.00000000000E+00  0.93800000000E+00  0.93800000000E+00 0.  1.
         11    1    1    2    0    0  0.77562386821E-03  0.14769854406E+00  0.48616942333E+00  0.50811064819E+00  0.51100000000E-03 0. -1.
    9000002    1    1    2    0    0 -0.13200541832E+00 -0.65834336292E+00  0.32597255234E+00  0.11987257897E+01  0.93800000000E+00 0.  1.
         22    1    1    2    0    0  0.13122979446E+00  0.51064481886E+00  0.31878579917E+01  0.32311635621E+01  0.00000000000E+00 0. -1.
</event>
<event>
 5    1  0.3005426E+001  0.1578129E+01  0.7818608E-02  0.3377449E+00
         11   -1    0    0    0    0  0.00000000000E+00  0.00000000000E+00  0.39999999674E+01  0.40000000000E+01  0.51100000000E-03 0.  1.
    9000002   -1    0    0    0    0 -0.00000000000E+00 -0.00000000000E+00  0.00000000000E+00  0.93800000000E+00  0.93800000000E+00 0.  1.
         11    1    1    2    0    0  0.93444297579E-02  0.75511472388E-01  0.18863017906E+00  0.20339839331E+00  0.51100000000E-03 0.  1.
    9000002    1    1    2    0    0  0.33036753272E+00 -0.60316709162E-01  0.92913256355E-01  0.10006286450E+01  0.93800000000E+00 0.  1.
         22    1    1    2    0    0 -0.33971196248E+00 -0.15194763226E-01  0.37184565319E+01  0.37339729616E+01  0.00000000000E+00 0.  1.
</event>
<event>
 5    1  0.3005426E+001  0.1492976E+01  0.7818608E-02  0.3478397E+00
         11   -1    0    0    0    0  0.00000000000E+00  0.00000000000E+00  0.39999999674E+01  0.40000000000E+01  0.51100000000E-03 0. -1.
    9000002   -1    0    0    0    0 -0.00000000000E+00 -0.00000000000E+00  0.00000000000E+00  0.93800000000E+00  0.93800000000E+00 0.  1.
         11    1    1    2    0    0 -0.33138431793E-01  0.42276226375E+00  0.12183349791E+01  0.12900257632E+01  0.51100000000E-03 0. -1.
    9000002    1    1    2    0    0  0.10265693688E+00 -0.17650090450E+00  0.11245897687E+00  0.96653092938E+00  0.93800000000E+00 0.  1.
         22    1    1    2    0    0 -0.69518505083E-01 -0.24626135924E+00  0.26692060113E+01  0.26814433074E+01  0.00000000000E+00 0. -1.
</event>
<event>
 5    1  0.3005426E+001  0.1599676E+01  0.7818608E-02  0.3353715E+00
         11   -1    0    0    0    0  0.00000000000E+00  0.00000000000E+00  0.39999999674E+01  0.40000000000E+01  0.51100000000E-03 0. -1.
    9000002   -1    0    0    0    0 -0.00000000000E+00 -0.00000000000E+00  0.00000000000E+00  0.93800000000E+00  0.93800000000E+00 0. -1.
         11    1    1    2    0    0  0.81250811350E-01 -0.56337188495E-01  0.10835846969E+01  0.10880862234E+01  0.51100000000E-03 0. -1.
    9000002    1    1    2    0    0 -0.28967249013E+00  0.20429484139E+00  0.84289993811E-01  0.10062779620E+01  0.93800000000E+00 0. -1.
         22    1    1    2    0    0  0.20842167878E+00 -0.14795765289E+00  0.28321252767E+01  0.28436358146E+01  0.00000000000E+00 0. -1.
</event>
<event>
 5    1  0.3005426E+001  0.1597401E+01  0.7818608E-02  0.3356189E+00
         11   -1    0    0    0    0  0.00000000000E+00  0.00000000000E+00  0.39999999674E+01  0.40000000000E+01  0.51100000000E-03 0.  1.
    9000002   -1    0    0    0    0 -0.00000000000E+00 -0.00000000000E+00  0.00000000000E+00  0.93800000000E+00  0.93800000000E+00 0.  1.
         11    1    1    2    0    0  0.32646291631E-01  0.21527996397E+00  0.12923008196E+01  0.13105162771E+01  0.51100000000E-03 0.  1.
    9000002    1    1    2    0    0  0.24044930131E-01 -0.52713914450E+00  0.19364254575E+00  0.10935242438E+01  0.93800000000E+00 0.  1.
         22    1    1    2    0    0 -0.56691221762E-01  0.31185918053E+00  0.25140566021E+01  0.25339594790E+01  0.00000000000E+00 0.  1.
</event>
<event>
 5    1  0.3005426E+001  0.1599527E+01  0.7818608E-02  0.3353876E+00
         11   -1    0    0    0    0  0.00000000000E+00  0.00000000000E+00  0.39999999674E+01  0.40000000000E+01  0.51100000000E-03 0. -1.
    9000002   -1    0    0    0    0 -0.00000000000E+00 -0.00000000000E+00  0.00000000000E+00  0.93800000000E+00  0.93800000000E+00 0. -1.
         11    1    1    2    0    0  0.34655905322E-01  0.92087242324E-01  0.97777910841E+00  0.98271732352E+00  0.51100000000E-03 0. -1.
    9000002    1    1    2    0    0 -0.14850088406E+00 -0.41395558619E+00  0.13129529612E+00  0.10442673004E+01  0.93800000000E+00 0. -1.
         22    1    1    2    0    0  0.11384497874E+00  0.32186834386E+00  0.28909255628E+01  0.29110153761E+01  0.00000000000E+00 0.  1.
</event>
<event>
 5    1  0.3005426E+001  0.1526387E+01  0.7818608E-02  0.3437352E+00
         11   -1    0    0    0    0  0.00000000000E+00  0.00000000000E+00  0.39999999674E+01  0.40000000000E+01  0.51100000000E-03 0.  1.
    9000002   -1    0    0    0    0 -0.00000000000E+00 -0.00000000000E+00  0.00000000000E+00  0.93800000000E+00  0.93800000000E+00 0. -1.
         11    1    1    2    0    0 -0.53618327026E-01 -0.11821652201E+00  0.12716210659E+00  0.18171552917E+00  0.51100000000E-03 0.  1.
    9000002    1    1    2    0    0 -0.36488565639E+00  0.24876338661E+00  0.19813243987E+00  0.10555213065E+01  0.93800000000E+00 0. -1.
         22    1    1    2    0    0  0.41850398342E+00 -0.13054686460E+00  0.36747054209E+01  0.37007631643E+01  0.00000000000E+00 0.  1.
</event>
<event>
 5    1  0.3005426E+001  0.1599676E+01  0.7818608E-02  0.3353715E+00
         11   -1    0    0    0    0  0.00000000000E+00  0.00000000000E+00  0.39999999674E+01  0.40000000000E+01  0.51100000000E-03 0. -1.
    9000002   -1    0    0    0    0 -0.00000000000E+00 -0.00000000000E+00  0.00000000000E+00  0.93800000000E+00  0.93800000000E+00 0.  1.
         11    1    1    2    0    0  0.41570785607E-01 -0.12485871407E+00  0.10448869188E+01  0.10531413784E+01  0.51100000000E-03 0. -1.
    9000002    1    1    2    0    0 -0.15505724631E+00  0.46093461059E+00  0.16153537627E+00  0.10688503837E+01  0.93800000000E+00 0.  1.
         22    1    1    2    0    0  0.11348646071E+00 -0.33607589652E+00  0.27935776723E+01  0.28160082379E+01  0.00000000000E+00 0. -1.
</event>
<event>
 5    1  0.3005426E+001  0.1599578E+01  0.7818608E-02  0.3353822E+00
         11   -1    0    0    0    0  0.00000000000E+00  0.00000000000E+00  0.39999999674E+01  0.40000000000E+01  0.51100000000E-03 0.  1.
    9000002   -1    0    0    0    0 -0.00000000000E+00 -0.00000000000E+00  0.00000000000E+00  0.93800000000E+00  0.93800000000E+00 0. -1.
         11    1    1    2    0    0 -0.24106799322E+00 -0.83659497821E-01  0.13974829768E+01  0.14205884769E+01  0.51100000000E-03 0.  1.
    9000002    1    1    2    0    0  0.63535914137E+00  0.25017417302E+00  0.33183401888E+00  0.12067419656E+01  0.93800000000E+00 0. -1.
         22    1    1    2    0    0 -0.39429114815E+00 -0.16651467520E+00  0.22706829717E+01  0.23106695576E+01  0.00000000000E+00 0.  1.
</event>
<event>
 5    1  0.3005426E+001  0.1599674E+01  0.7818608E-02  0.3353717E+00
         11   -1    0    0    0    0  0.00000000000E+00  0.00000000000E+00  0.39999999674E+01  0.40000000000E+01  0.51100000000E-03 0.  1.
    9000002   -1    0    0    0    0 -0.00000000000E+00 -0.00000000000E+00  0.00000000000E+00  0.93800000000E+00  0.93800000000E+00 0.  1.
         11    1    1    2    0    0 -0.38446270973E-01 -0.31451958054E-02  0.36854520374E+00  0.37055881629E+00  0.51100000000E-03 0.  1.
    9000002    1    1    2    0    0  0.41683745374E+00  0.31241666378E-01  0.11814090865E+00  0.10336976245E+01  0.93800000000E+00 0.  1.
         22    1    1    2    0    0 -0.37839118277E+00 -0.28096470573E-01  0.35133138550E+01  0.35337435592E+01  0.00000000000E+00 0.  1.
</event>
<event>
 5    1  0.3005426E+001  0.1593853E+01  0.7818608E-02  0.3360062E+00
         11   -1    0    0    0    0  0.00000000000E+00  0.00000000000E+00  0.39999999674E+01  0.40000000000E+01  0.51100000000E-03 0.  1.
    9000002   -1    0    0    0    0 -0.00000000000E+00 -0.00000000000E+00  0.00000000000E+00  0.93800000000E+00  0.93800000000E+00 0.  1.
         11    1    1    2    0    0  0.63116636467E-01  0.22354048355E+00  0.88525559558E+00  0.91522226164E+00  0.51100000000E-03 0.  1.
    9000002    1    1    2    0    0 -0.16853460861E+00 -0.61558374769E+00  0.29271452451E+00  0.11716966577E+01  0.93800000000E+00 0.  1.
         22    1    1    2    0    0  0.10541797214E+00  0.39204326414E+00  0.28220298473E+01  0.28510810807E+01  0.00000000000E+00 0.  1.
</event>
<event>
 5    1  0.3005426E+001  0.1596932E+01  0.7818608E-02  0.3356700E+00
         11   -1    0    0    0    0  0.00000000000E+00  0.00000000000E+00  0.39999999674E+01  0.40000000000E+01  0.51100000000E-03 0. -1.
    9000002   -1    0    0    0    0 -0.00000000000E+00 -0.00000000000E+00  0.00000000000E+00  0.93800000000E+00  0.93800000000E+00 0. -1.
         11    1    1    2    0    0 -0.21130748073E-01  0.84378979864E-02  0.73612014598E+00  0.73647188478E+00  0.51100000000E-03 0. -1.
    9000002    1    1    2    0    0  0.30573071896E+00 -0.22129870428E+00  0.98065132775E-01  0.10158273275E+01  0.93800000000E+00 0. -1.
         22    1    1    2    0    0 -0.28459997088E+00  0.21286080629E+00  0.31658146886E+01  0.31857007877E+01  0.00000000000E+00 0. -1.
</event>
<event>
 5    1  0.3005426E+001  0.1599674E+01  0.7818608E-02  0.3353717E+00
         11   -1    0    0    0    0  0.00000000000E+00  0.00000000000E+00  0.39999999674E+01  0.40000000000E+01  0.51100000000E-03 0.  1.
    9000002   -1    0    0    0    0 -0.00000000000E+00 -0.00000000000E+00  0.00000000000E+00  0.93800000000E+00  0.93800000000E+00 0.  1.
         11    1    1    2    0    0 -0.22942539683E-01 -0.11984612546E-02  0.23946087638E+00  0.24056094627E+00  0.51100000000E-03 0.  1.
    9000002    1    1    2    0    0  0.37014812065E+00  0.32612893093E-01  0.92810055144E-01  0.10131786310E+01  0.93800000000E+00 0.  1.
         22    1    1    2    0    0 -0.34720558097E+00 -0.31414431838E-01  0.36677290358E+01  0.36842604227E+01  0.00000000000E+00 0.  1.
</event>
<event>
 5    1  0.3005426E+001  0.1599676E+01  0.7818608E-02  0.3353715E+00
         11   -1    0    0    0    0  0.00000000000E+00  0.00000000000E+00  0.39999999674E+01  0.40000000000E+01  0.51100000000E-03 0.  1.
    9000002   -1    0    0    0    0 -0.00000000000E+00 -0.00000000000E+00  0.00000000000E+00  0.93800000000E+00  0.93800000000E+00 0.  1.
         11    1    1    2    0    0 -0.80111106396E-02 -0.43330998749E-01  0.47248919463E+00  0.47453983343E+00  0.51100000000E-03 0.  1.
    9000002    1    1    2    0    0  0.66165712814E-01  0.35275478167E+00  0.86458028736E-01  0.10080341404E+01  0.93800000000E+00 0.  1.
         22    1    1    2    0    0 -0.58154602175E-01 -0.30942378292E+00  0.34410527440E+01  0.34554260261E+01  0.00000000000E+00 0.  1.
</event>
<event>
 5    1  0.3005426E+001  0.1598404E+01  0.7818608E-02  0.3355097E+00
         11   -1    0    0    0    0  0.00000000000E+00  0.00000000000E+00  0.39999999674E+01  0.40000000000E+01  0.51100000000E-03 0.  1.
    9000002   -1    0    0    0    0 -0.00000000000E+00 -0.00000000000E+00  0.00000000000E+00  0.93800000000E+00  0.93800000000E+00 0.  1.
         11    1    1    2    0    0 -0.61449887324E-01  0.12727828020E+00  0.11284123467E+01  0.11372293237E+01  0.51100000000E-03 0.  1.
    9000002    1    1    2    0    0  0.84111141326E-01 -0.47870980408E+00  0.16247922424E+00  0.10688691496E+01  0.93800000000E+00 0.  1.
         22    1    1    2    0    0 -0.22661254003E-01  0.35143152388E+00  0.27091083964E+01  0.27319015268E+01  0.00000000000E+00 0.  1.
</event>
<event>
 5    1  0.3005426E+001  0.1599612E+01  0.7818608E-02  0.3353785E+00
         11   -1    0    0    0    0  0.00000000000E+00  0.00000000000E+00  0.39999999674E+01  0.40000000000E+01  0.51100000000E-03 0.  1.
    9000002   -1    0    0    0    0 -0.00000000000E+00 -0.00000000000E+00  0.00000000000E+00  0.93800000000E+00  0.93800000000E+00 0. -1.
         11    1    1    2    0    0 -0.10217780278E+00 -0.29248417912E-01  0.11294652143E+01  0.11344548050E+01  0.51100000000E-03 0.  1.
    9000002    1    1    2    0    0  0.36606792770E+00  0.73453361998E-01  0.93773437280E-01  0.10139223746E+01  0.93800000000E+00 0. -1.
         22    1    1    2    0    0 -0.26389012492E+00 -0.44204944086E-01  0.27767613158E+01  0.27896228204E+01  0.00000000000E+00 0.  1.
</event>
<event>
 5    1  0.3005426E+001  0.1588009E+01  0.7818608E-02  0.3366482E+00
         11   -1    0    0    0    0  0.00000000000E+00  0.00000000000E+00  0.39999999674E+01  0.40000000000E+01  0.51100000000E-03 0. -1.
    9000002   -1    0    0    0    0 -0.00000000000E+00 -0.00000000000E+00  0.00000000000E+00  0.93800000000E+00  0.93800000000E+00 0. -1.
         11    1    1    2    0    0  0.99037450362E-01 -0.80902174759E-01  0.11397780202E+01  0.11469297166E+01  0.51100000000E-03 0. -1.
    9000002    1    1    2    0    0  0.63654606957E-01  0.31546025980E+00  0.78536066433E-01  0.99477585326E+00  0.93800000000E+00 0. -1.
         22    1    1    2    0    0 -0.16269205732E+00 -0.23455808504E+00  0.27816858807E+01  0.27962944301E+01  0.00000000000E+00 0. -1.
</event>
<event>
 5    1  0.3005426E+001  0.1599671E+01  0.7818608E-02  0.3353721E+00
         11   -1    0    0    0    0  0.00000000000E+00  0.00000000000E+00  0.39999999674E+01  0.40000000000E+01  0.51100000000E-03 0. -1.
    9000002   -1    0    0    0    0 -0.00000000000E+00 -0.00000000000E+00  0.00000000000E+00  0.93800000000E+00  0.93800000000E+00 0.  1.
         11    1    1    2    0    0 -0.12627707178E+00  0.32695348610E-01  0.13153995116E+01  0.13218513611E+01  0.51100000000E-03 0. -1.
    9000002    1    1    2    0    0  0.38247199834E+00 -0.97239928065E-01  0.10498365483E+00  0.10230376342E+01  0.93800000000E+00 0.  1.
         22    1    1    2    0    0 -0.25619492656E+00  0.64544579454E-01  0.25796168009E+01  0.25931110047E+01  0.00000000000E+00 0. -1.
</event>
<event>
 5    1  0.3005426E+001  0.1599502E+01  0.7818608E-02  0.3353904E+00
         11   -1    0    0    0    0  0.00000000000E+00  0.00000000000E+00  0.39999999674E+01  0.40000000000E+01  0.51100000000E-03 0. -1.
    9000002   -1    0    0    0    0 -0.00000000000E+00 -0.00000000000E+00  0.00000000000E+00  0.93800000000E+00  0.93800000000E+00 0. -1.
         11    1    1    2    0    0 -0.82223827286E-02  0.27864054356E-01  0.30967765206E+00  0.31103781508E+00  0.51100000000E-03 0. -1.
    9000002    1    1    2    0    0  0.17362196810E+00 -0.42825321765E+00  0.14545308135E+00  0.10557206094E+01  0.93800000000E+00 0. -1.
         22    1    1    2    0    0 -0.16539958537E+00  0.40038916330E+00  0.35448692339E+01  0.35712415755E+01  0.00000000000E+00 0. -1.
</event>
<event>
 5    1  0.3005426E+001  0.1599373E+01  0.7818608E-02  0.3354044E+00
         11   -1    0    0    0    0  0.00000000000E+00  0.00000000000E+00  0.39999999674E+01  0.40000000000E+01  0.51100000000E-03 0. -1.
    9000002   -1    0    0    0    0 -0.00000000000E+00 -0.00000000000E+00  0.00000000000E+00  0.93800000000E+00  0.93800000000E+00 0. -1.
         11    1    1    2    0    0  0.12387218199E+00 -0.14762783880E+00  0.14242394565E+01  0.14372183505E+01  0.51100000000E-03 0. -1.
    9000002    1    1    2    0    0 -0.27925749040E+00  0.39455280419E+00  0.15978481002E+00  0.10672543496E+01  0.93800000000E+00 0. -1.
         22    1    1    2    0    0  0.15538530841E+00 -0.24692496539E+00  0.24159757008E+01  0.24335272999E+01  0.00000000000E+00 0. -1.
</event>
<event>
 5    1  0.3005426E+001  0.1599663E+01  0.7818608E-02  0.3353729E+00
         11   -1    0    0    0    0  0.00000000000E+00  0.00000000000E+00  0.39999999674E+01  0.40000000000E+01  0.51100000000E-03 0. -1.
    9000002   -1    0    0    0    0 -0.00000000000E+00 -0.00000000000E+00  0.00000000000E+00  0.93800000000E+00  0.93800000000E+00 0. -1.
         11    1    1    2    0    0  0.31944750400E-01  0.78348466034E-01  0.88550791621E+00  0.88954116262E+00  0.51100000000E-03 0. -1.
    9000002    1    1    2    0    0 -0.12542487685E+00 -0.34115837223E+00  0.88733904028E-01  0.10098703582E+01  0.93800000000E+00 0. -1.
         22    1    1    2    0    0  0.93480126453E-01  0.26280990619E+00  0.30257581471E+01  0.30385884792E+01  0.00000000000E+00 0. -1.
</event>
<event>
 5    1  0.3005426E+001  0.1599488E+01  0.7818608E-02  0.3353919E+00
         11   -1    0    0    0    0  0.00000000000E+00  0.00000000000E+00  0.39999999674E+01  0.40000000000E+01  0.51100000000E-03 0. -1.
    9000002   -1    0    0    0    0 -0.00000000000E+00 -0.00000000000E+00  0.00000000000E+00  0.93800000000E+00  0.93800000000E+00 0.  1.
         11    1    1    2    0    0 -0.74408130013E-01  0.10838599942E+00  0.10464213544E+01  0.10546478118E+01  0.51100000000E-03 0. -1.
    9000002    1    1    2    0    0  0.23484329806E+00 -0.36444382160E+00  0.12752500714E+00  0.10411903290E+01  0.93800000000E+00 0.  1.
         22    1    1    2    0    0 -0.16043516805E+00  0.25605782218E+00  0.28260536058E+01  0.28421618592E+01  0.00000000000E+00 0. -1.
</event>
<event>
 5    1  0.3005426E+001  0.1589520E+01  0.7818608E-02  0.3364817E+00
         11   -1    0    0    0    0  0.00000000000E+00  0.00000000000E+00  0.39999999674E+01  0.40000000000E+01  0.51100000000E-03 0. -1.
    9000002   -1    0    0    0    0 -0.00000000000E+00 -0.00000000000E+00  0.00000000000E+00  0.93800000000E+00  0.93800000000E+00 0. -1.
         11    1    1    2    0    0  0.65337275236E-01  0.40076021001E-01  0.50545180698E+00  0.51123070848E+00  0.51100000000E-03 0. -1.
    9000002    1    1    2    0    0  0.12420904535E+00 -0.31759633161E+00  0.86080116821E-01  0.10017729799E+01  0.93800000000E+00 0. -1.
         22    1    1    2    0    0 -0.18954632058E+00  0.27752031061E+00  0.34084680436E+01  0.34249963116E+01  0.00000000000E+00 0. -1.
</event>
<event>
 5    1  0.3005426E+001  0.1599676E+01  0.7818608E-02  0.3353715E+00
         11   -1    0    0    0    0  0.00000000000E+00  0.00000000000E+00  0.39999999674E+01  0.40000000000E+01  0.51100000000E-03 0. -1.
    9000002   -1    0    0    0    0 -0.00000000000E+00 -0.00000000000E+00  0.00000000000E+00  0.93800000000E+00  0.93800000000E+00 0.  1.
         11    1    1    2    0    0 -0.49144803742E-01 -0.60912636087E-01  0.82138698057E+00  0.82510750448E+00  0.51100000000E-03 0. -1.
    9000002    1    1    2    0    0  0.22965493568E+00  0.28918202851E+00  0.91637324843E-01  0.10122297340E+01  0.93800000000E+00 0.  1.
         22    1    1    2    0    0 -0.18051013193E+00 -0.22826939242E+00  0.30869756619E+01  0.31006627615E+01  0.00000000000E+00 0. -1.
</event>
<event>
 5    1  0.3005426E+001  0.1599676E+01  0.7818608E-02  0.3353715E+00
         11   -1    0    0    0    0  0.00000000000E+00  0.00000000000E+00  0.39999999674E+01  0.40000000000E+01  0.51100000000E-03 0.  1.
    9000002   -1    0    0    0    0 -0.00000000000E+00 -0.00000000000E+00  0.00000000000E+00  0.93800000000E+00  0.93800000000E+00 0.  1.
         11    1    1    2    0    0 -0.96100468468E-01  0.11852626368E+00  0.13653891923E+01  0.13738892542E+01  0.51100000000E-03 0.  1.
    9000002    1    1    2    0    0  0.27548719669E+00 -0.33785755752E+00  0.12881135896E+00  0.10423422139E+01  0.93800000000E+00 0.  1.
         22    1    1    2    0    0 -0.17938672822E+00  0.21933129384E+00  0.25057994161E+01  0.25217685319E+01  0.00000000000E+00 0.  1.
</event>
<event>
 5    1  0.3005426E+001  0.1599628E+01  0.7818608E-02  0.3353767E+00
         11   -1    0    0    0    0  0.00000000000E+00  0.00000000000E+00  0.39999999674E+01  0.40000000000E+01  0.51100000000E-03 0.  1.
    9000002   -1    0    0    0    0 -0.00000000000E+00 -0.00000000000E+00  0.00000000000E+00  0.93800000000E+00  0.93800000000E+00 0. -1.
         11    1    1    2    0    0  0.36394680507E-01  0.97262218699E-01  0.12009589685E+01  0.12054406734E+01  0.51100000000E-03 0.  1.
    9000002    1    1    2    0    0 -0.10414895087E+00 -0.33790491097E+00  0.83904574817E-01  0.10059377269E+01  0.93800000000E+00 0. -1.
         22    1    1    2    0    0  0.67754270363E-01  0.24064269227E+00  0.27151364241E+01  0.27266215997E+01  0.00000000000E+00 0.  1.
</event>
<event>
 5    1  0.3005426E+001  0.1596630E+01  0.7818608E-02  0.3357029E+00
         11   -1    0    0    0    0  0.00000000000E+00  0.00000000000E+00  0.39999999674E+01  0.40000000000E+01  0.51100000000E-03 0. -1.
    9000002   -1    0    0    0    0 -0.00000000000E+00 -0.00000000000E+00  0.00000000000E+00  0.93800000000E+00  0.93800000000E+00 0.  1.
         11    1    1    2    0    0 -0.72540881002E-01  0.49480547923E-01  0.12275211786E+01  0.12306579578E+01  0.51100000000E-03 0. -1.
    9000002    1    1    2    0    0  0.38385514614E+00 -0.27163485422E+00  0.15332947710E+00  0.10604169915E+01  0.93800000000E+00 0.  1.
         22    1    1    2    0    0 -0.31131426513E+00  0.22215430630E+00  0.26191493117E+01  0.26469250508E+01  0.00000000000E+00 0. -1.
</event>
<event>
 5    1  0.3005426E+001  0.1593244E+01  0.7818608E-02  0.3360729E+00
         11   -1    0    0    0    0  0.00000000000E+00  0.00000000000E+00  0.39999999674E+01  0.40000000000E+01  0.51100000000E-03 0.  1.
    9000002   -1    0    0    0    0 -0.00000000000E+00 -0.00000000000E+00  0.00000000000E+00  0.93800000000E+00  0.93800000000E+00 0.  1.
         11    1    1    2    0    0 -0.65800408380E-01 -0.85917277950E-01  0.12203746693E+01  0.12251636899E+01  0.51100000000E-03 0.  1.
    9000002    1    1    2    0    0 -0.19533697446E-01  0.44211341735E+00  0.13841517021E+00  0.10463501319E+01  0.93800000000E+00 0.  1.
         22    1    1    2    0    0  0.85334105826E-01 -0.35619613940E+00  0.26412101278E+01  0.26664861782E+01  0.00000000000E+00 0.  1.
</event>
<event>
 5    1  0.3005426E+001  0.1597654E+01  0.7818608E-02  0.3355914E+00
         11   -1    0    0    0    0  0.00000000000E+00  0.00000000000E+00  0.39999999674E+01  0.40000000000E+01  0.51100000000E-03 0. -1.
    9000002   -1    0    0    0    0 -0.00000000000E+00 -0.00000000000E+00  0.00000000000E+00  0.93800000000E+00  0.93800000000E+00 0. -1.
         11    1    1    2    0    0  0.51303183637E-01 -0.81498170205E-01  0.58784518841E+00  0.59568128647E+00  0.51100000000E-03 0. -1.
    9000002    1    1    2    0    0 -0.36208659329E+00  0.27963922309E+00  0.14407516800E+00  0.10535209776E+01  0.93800000000E+00 0. -1.
         22    1    1    2    0    0  0.31078340965E+00 -0.19814105289E+00  0.32680796110E+01  0.32887977360E+01  0.00000000000E+00 0. -1.
</event>
<event>
 5    1  0.3005426E+001  0.1599676E+01  0.7818608E-02  0.3353715E+00
         11   -1    0    0    0    0  0.00000000000E+00  0.00000000000E+00  0.39999999674E+01  0.40000000000E+01  0.51100000000E-03 0. -1.
    9000002   -1    0    0    0    0 -0.00000000000E+00 -0.00000000000E+00  0.00000000000E+00  0.93800000000E+00  0.93800000000E+00 0.  1.
         11    1    1    2    0    0  0.14316190475E+00  0.13823277215E+00  0.12319182820E+01  0.12478888352E+01  0.51100000000E-03 0. -1.
    9000002    1    1    2    0    0 -0.43256207157E+00 -0.42147621608E+00  0.25470361855E+00  0.11443207941E+01  0.93800000000E+00 0.  1.
         22    1    1    2    0    0  0.28940016682E+00  0.28324344393E+00  0.25133780668E+01  0.25457903707E+01  0.00000000000E+00 0. -1.
</event>
<event>
 5    1  0.3005426E+001  0.1598428E+01  0.7818608E-02  0.3355071E+00
         11   -1    0    0    0    0  0.00000000000E+00  0.00000000000E+00  0.39999999674E+01  0.40000000000E+01  0.51100000000E-03 0. -1.
    9000002   -1    0    0    0    0 -0.00000000000E+00 -0.00000000000E+00  0.00000000000E+00  0.93800000000E+00  0.93800000000E+00 0. -1.
         11    1    1    2    0    0  0.64773505143E-01  0.32963439656E-01  0.85389033176E+00  0.85697791985E+00  0.51100000000E-03 0. -1.
    9000002    1    1    2    0    0 -0.35278386624E+00 -0.82522646591E-04  0.84482864952E-01  0.10057026487E+01  0.93800000000E+00 0. -1.
         22    1    1    2    0    0  0.28801036110E+00 -0.32880917010E-01  0.30616267707E+01  0.30753194315E+01  0.00000000000E+00 0. -1.
</event>
<event>
 5    1  0.3005426E+001  0.1599676E+01  0.7818608E-02  0.3353715E+00
         11   -1    0    0    0    0  0.00000000000E+00  0.00000000000E+00  0.39999999674E+01  0.40000000000E+01  0.51100000000E-03 0.  1.
    9000002   -1    0    0    0    0 -0.00000000000E+00 -0.00000000000E+00  0.00000000000E+00  0.93800000000E+00  0.93800000000E+00 0.  1.
         11    1    1    2    0    0  0.29311642970E-01 -0.11285403409E+00  0.12381739970E+01  0.12436520066E+01  0.51100000000E-03 0.  1.
    9000002    1    1    2    0    0 -0.94761094448E-01  0.35948886563E+00  0.92904172130E-01  0.10132556907E+01  0.93800000000E+00 0.  1.
         22    1    1    2    0    0  0.65449451477E-01 -0.24663483154E+00  0.26689217982E+01  0.26810923028E+01  0.00000000000E+00 0.  1.
</event>
<event>
 5    1  0.3005426E+001  0.1598560E+01  0.7818608E-02  0.3354928E+00
         11   -1    0    0    0    0  0.00000000000E+00  0.00000000000E+00  0.39999999674E+01  0.40000000000E+01  0.51100000000E-03 0.  1.
    9000002   -1    0    0    0    0 -0.00000000000E+00 -0.00000000000E+00  0.00000000000E+00  0.93800000000E+00  0.93800000000E+00 0.  1.
         11    1    1    2    0    0  0.19887099689E+00  0.10102121359E+00  0.13452326357E+01  0.13636004049E+01  0.51100000000E-03 0.  1.
    9000002    1    1    2    0    0 -0.49449572245E+00 -0.19942416407E+00  0.19678880165E+00  0.10967524102E+01  0.93800000000E+00 0.  1.
         22    1    1    2    0    0  0.29562472556E+00  0.98402950485E-01  0.24579785300E+01  0.24776471849E+01  0.00000000000E+00 0. -1.
</event>
<event>
 5    1  0.3005426E+001  0.1599630E+01  0.7818608E-02  0.3353765E+00
         11   -1    0    0    0    0  0.00000000000E+00  0.00000000000E+00  0.39999999674E+01  0.40000000000E+01  0.51100000000E-03 0.  1.
    9000002   -1    0    0    0    0 -0.00000000000E+00 -0.00000000000E+00  0.00000000000E+00  0.93800000000E+00  0.93800000000E+00 0. -1.
         11    1    1    2    0    0 -0.22907621785E-01  0.79061244077E-03  0.17082162737E+00  0.17235333969E+00  0.51100000000E-03 0.  1.
    9000002    1    1    2    0    0  0.50748631441E+00 -0.92823980512E-01  0.18274025838E+00  0.10860003005E+01  0.93800000000E+00 0. -1.
         22    1    1    2    0    0 -0.48457869263E+00  0.92033368072E-01  0.36464380816E+01  0.36796463598E+01  0.00000000000E+00 0.  1.
</event>
<event>
 5    1  0.3005426E+001  0.1599164E+01  0.7818608E-02  0.3354271E+00
         11   -1    0    0    0    0  0.00000000000E+00  0.00000000000E+00  0.39999999674E+01  0.40000000000E+01  0.51100000000E-03 0.  1.
    9000002   -1    0    0    0    0 -0.00000000000E+00 -0.00000000000E+00  0.00000000000E+00  0.93800000000E+00  0.93800000000E+00 0.  1.
         11    1    1    2    0    0 -0.22290448038E-01  0.38695527619E-02  0.40679580352E+00  0.40742474691E+00  0.51100000000E-03 0.  1.
    9000002    1    1    2    0    0  0.33174824370E+00  0.72580074996E-01  0.77649560563E-01  0.10005989300E+01  0.93800000000E+00 0.  1.
         22    1    1    2    0    0 -0.30945779566E+00 -0.76449627758E-01  0.35155546033E+01  0.35299763231E+01  0.00000000000E+00 0.  1.
</event>
<event>
 5    1  0.3005426E+001  0.1599677E+01  0.7818608E-02  0.3353714E+00
         11   -1    0    0    0    0  0.00000000000E+00  0.00000000000E+00  0.39999999674E+01  0.40000000000E+01  0.51100000000E-03 0. -1.
    9000002   -1    0    0    0    0 -0.00000000000E+00 -0.00000000000E+00  0.00000000000E+00  0.93800000000E+00  0.93800000000E+00 0. -1.
         11    1    1    2    0    0 -0.73179149603E-01  0.83576658284E-01  0.11897353512E+01  0.11949103367E+01  0.51100000000E-03 0. -1.
    9000002    1    1    2    0    0  0.24078972492E+00 -0.27545262356E+00  0.89911582827E-01  0.10108322968E+01  0.93800000000E+00 0. -1.
         22    1    1    2    0    0 -0.16761057531E+00  0.19187596528E+00  0.27203530334E+01  0.27322573666E+01  0.00000000000E+00 0. -1.
</event>
<event>
 5    1  0.3005426E+001  0.1599629E+01  0.7818608E-02  0.3353767E+00
         11   -1    0    0    0    0  0.00000000000E+00  0.00000000000E+00  0.39999999674E+01  0.40000000000E+01  0.51100000000E-03 0. -1.
    9000002   -1    0    0    0    0 -0.00000000000E+00 -0.00000000000E+00  0.00000000000E+00  0.93800000000E+00  0.93800000000E+00 0. -1.
         11    1    1    2    0    0  0.63633578245E-01 -0.94701105170E-02  0.59479853163E+00  0.59826789119E+00  0.51100000000E-03 0. -1.
    9000002    1    1    2    0    0 -0.41919812874E+00  0.22727935063E-01  0.11923214775E+00  0.10345549455E+01  0.93800000000E+00 0. -1.
         22    1    1    2    0    0  0.35556455049E+00 -0.13257824546E-01  0.32859692880E+01  0.33051771633E+01  0.00000000000E+00 0. -1.
</event>
<event>
 5    1  0.3005426E+001  0.1599674E+01  0.7818608E-02  0.3353717E+00
         11   -1    0    0    0    0  0.00000000000E+00  0.00000000000E+00  0.39999999674E+01  0.40000000000E+01  0.51100000000E-03 0.  1.
    9000002   -1    0    0    0    0 -0.00000000000E+00 -0.00000000000E+00  0.00000000000E+00  0.93800000000E+00  0.93800000000E+00 0.  1.
         11    1    1    2    0    0 -0.15586095257E-01 -0.11802104147E+00  0.13163121877E+01  0.13216845044E+01  0.51100000000E-03 0.  1.
    9000002    1    1    2    0    0  0.46470024456E-01  0.35641483625E+00  0.86717591763E-01  0.10082434921E+01  0.93800000000E+00 0.  1.
         22    1    1    2    0    0 -0.30883929199E-01 -0.23839379478E+00  0.25969701879E+01  0.26080720035E+01  0.00000000000E+00 0.  1.
</event>
<event>
 5    1  0.3005426E+001  0.1599676E+01  0.7818608E-02  0.3353715E+00
         11   -1    0    0    0    0  0.00000000000E+00  0.00000000000E+00  0.39999999674E+01  0.40000000000E+01  0.51100000000E-03 0.  1.
    9000002   -1    0    0    0    0 -0.00000000000E+00 -0.00000000000E+00  0.00000000000E+00  0.93800000000E+00  0.93800000000E+00 0.  1.
         11    1    1    2    0    0  0.28620283599E-01 -0.78492939981E-02  0.28298091408E+00  0.28453328611E+00  0.51100000000E-03 0. -1.
    9000002    1    1    2    0    0 -0.39405623838E+00  0.10796784382E+00  0.11272864368E+00  0.10293148796E+01  0.93800000000E+00 0.  1.
         22    1    1    2    0    0  0.36543595479E+00 -0.10011854982E+00  0.36042904096E+01  0.36241518343E+01  0.00000000000E+00 0.  1.
</event>
<event>
 5    1  0.3005426E+001  0.1599674E+01  0.7818608E-02  0.3353718E+00
         11   -1    0    0    0    0  0.00000000000E+00  0.00000000000E+00  0.39999999674E+01  0.40000000000E+01  0.51100000000E-03 0.  1.
    9000002   -1    0    0    0    0 -0.00000000000E+00 -0.00000000000E+00  0.00000000000E+00  0.93800000000E+00  0.93800000000E+00 0.  1.
         11    1    1    2    0    0  0.21166040917E+00 -0.10907168327E-01  0.14122052539E+01  0.14280206705E+01  0.51100000000E-03 0.  1.
    9000002    1    1    2    0    0 -0.56688744260E+00  0.34763049818E-01  0.22357973880E+00  0.11191075649E+01  0.93800000000E+00 0.  1.
         22    1    1    2    0    0  0.35522703343E+00 -0.23855881491E-01  0.23642149746E+01  0.23908717646E+01  0.00000000000E+00 0.  1.
</event>
<event>
 5    1  0.3005426E+001  0.1596754E+01  0.7818608E-02  0.3356894E+00
         11   -1    0    0    0    0  0.00000000000E+00  0.00000000000E+00  0.39999999674E+01  0.40000000000E+01  0.51100000000E-03 0.  1.
    9000002   -1    0    0    0    0 -0.00000000000E+00 -0.00000000000E+00  0.00000000000E+00  0.93800000000E+00  0.93800000000E+00 0. -1.
         11    1    1    2    0    0 -0.12550075317E-01 -0.12260846210E+00  0.12070897898E+01  0.12133657161E+01  0.51100000000E-03 0.  1.
    9000002    1    1    2    0    0  0.20271755159E+00  0.28935216393E+00  0.86084839232E-01  0.10060187275E+01  0.93800000000E+00 0. -1.
         22    1    1    2    0    0 -0.19016747627E+00 -0.16674370183E+00  0.27068253383E+01  0.27186155564E+01  0.00000000000E+00 0.  1.
</event>
<event>
 5    1  0.3005426E+001  0.1584939E+01  0.7818608E-02  0.3369874E+00
         11   -1    0    0    0    0  0.00000000000E+00  0.00000000000E+00  0.39999999674E+01  0.40000000000E+01  0.51100000000E-03 0. -1.
    9000002   -1    0    0    0    0 -0.00000000000E+00 -0.00000000000E+00  0.00000000000E+00  0.93800000000E+00  0.93800000000E+00 0. -1.
         11    1    1    2    0    0 -0.78997303469E-01  0.11061029773E-01  0.14134332605E+01  0.14156824373E+01  0.51100000000E-03 0. -1.
    9000002    1    1    2    0    0 -0.15994545858E+00 -0.12335704278E+00  0.38148344783E-01  0.96025975961E+00  0.93800000000E+00 0. -1.
         22    1    1    2    0    0  0.23894276205E+00  0.11229601301E+00  0.25484183621E+01  0.25620578031E+01  0.00000000000E+00 0. -1.
</event>
<event>
 5    1  0.3005426E+001  0.1544897E+01  0.7818608E-02  0.3415431E+00
         11   -1    0    0    0    0  0.00000000000E+00  0.00000000000E+00  0.39999999674E+01  0.40000000000E+01  0.51100000000E-03 0. -1.
    9000002   -1    0    0    0    0 -0.00000000000E+00 -0.00000000000E+00  0.00000000000E+00  0.93800000000E+00  0.93800000000E+00 0. -1.
         11    1    1    2    0    0  0.16622322907E+00  0.20190540870E+00  0.58619887255E+00  0.64189199656E+00  0.51100000000E-03 0. -1.
    9000002    1    1    2    0    0 -0.51131946651E+00 -0.76160277311E-01  0.23544178916E+00  0.10965969272E+01  0.93800000000E+00 0. -1.
         22    1    1    2    0    0  0.34509623743E+00 -0.12574513139E+00  0.31783593056E+01  0.31995110762E+01  0.00000000000E+00 0. -1.
</event>
<event>
 5    1  0.3005426E+001  0.1599655E+01  0.7818608E-02  0.3353738E+00
         11   -1    0    0    0    0  0.00000000000E+00  0.00000000000E+00  0.39999999674E+01  0.40000000000E+01  0.51100000000E-03 0. -1.
    9000002   -1    0    0    0    0 -0.00000000000E+00 -0.00000000000E+00  0.00000000000E+00  0.93800000000E+00  0.93800000000E+00 0.  1.
         11    1    1    2    0    0 -0.27590469480E-02  0.10037069436E-01  0.11340986095E+00  0.11388772008E+00  0.51100000000E-03 0. -1.
    9000002    1    1    2    0    0  0.10933805381E+00 -0.40547159317E+00  0.11929255905E+00  0.10346191268E+01  0.93800000000E+00 0.  1.
         22    1    1    2    0    0 -0.10657900686E+00  0.39543452373E+00  0.37672975474E+01  0.37894931531E+01  0.00000000000E+00 0. -1.
</event>
<event>
 5    1  0.3005426E+001  0.1593136E+01  0.7818608E-02  0.3360847E+00
         11   -1    0    0    0    0  0.00000000000E+00  0.00000000000E+00  0.39999999674E+01  0.40000000000E+01  0.51100000000E-03 0.  1.
    9000002   -1    0    0    0    0 -0.00000000000E+00 -0.00000000000E+00  0.00000000000E+00  0.93800000000E+00  0.93800000000E+00 0.  1.
         11    1    1    2    0    0 -0.18410125018E+00 -0.30115644170E+00  0.12289988553E+01  0.12786817119E+01  0.51100000000E-03 0.  1.
    9000002    1    1    2    0    0  0.26390192360E+00  0.91141962309E+00  0.71615689618E+00  0.15142835450E+01  0.93800000000E+00 0.  1.
         22    1    1    2    0    0 -0.79800673425E-01 -0.61026318138E+00  0.20548442158E+01  0.21450347432E+01  0.00000000000E+00 0.  1.
</event>
<event>
 5    1  0.3005426E+001  0.1599641E+01  0.7818608E-02  0.3353753E+00
         11   -1    0    0    0    0  0.00000000000E+00  0.00000000000E+00  0.39999999674E+01  0.40000000000E+01  0.51100000000E-03 0.  1.
    9000002   -1    0    0    0    0 -0.00000000000E+00 -0.00000000000E+00  0.00000000000E+00  0.93800000000E+00  0.93800000000E+00 0. -1.
         11    1    1    2    0    0 -0.22130424758E-01 -0.82092697613E-01  0.82288062771E+00  0.82726160027E+00  0.51100000000E-03 0.  1.
    9000002    1    1    2    0    0  0.76820940022E-01  0.38998606370E+00  0.10656353155E+00  0.10242999429E+01  0.93800000000E+00 0. -1.
         22    1    1    2    0    0 -0.54690515264E-01 -0.30789336609E+00  0.30705558081E+01  0.30864384569E+01  0.00000000000E+00 0.  1.
</event>
<event>
 5    1  0.3005426E+001  0.1597403E+01  0.7818608E-02  0.3356187E+00
         11   -1    0    0    0    0  0.00000000000E+00  0.00000000000E+00  0.39999999674E+01  0.40000000000E+01  0.51100000000E-03 0. -1.
    9000002   -1    0    0    0    0 -0.00000000000E+00 -0.00000000000E+00  0.00000000000E+00  0.93800000000E+00  0.93800000000E+00 0.  1.
         11    1    1    2    0    0 -0.17767527551E+00 -0.42165312332E-01  0.10398197362E+01  0.10557328081E+01  0.51100000000E-03 0. -1.
    9000002    1    1    2    0    0  0.48748549359E+00  0.65982424009E-01  0.16747387792E+00  0.10723279753E+01  0.93800000000E+00 0.  1.
         22    1    1    2    0    0 -0.30981021808E+00 -0.23817111677E-01  0.27927063532E+01  0.28099392167E+01  0.00000000000E+00 0. -1.
</event>
<event>
 5    1  0.3005426E+001  0.1597411E+01  0.7818608E-02  0.3356178E+00
         11   -1    0    0    0    0  0.00000000000E+00  0.00000000000E+00  0.39999999674E+01  0.40000000000E+01  0.51100000000E-03 0. -1.
    9000002   -1    0    0    0    0 -0.00000000000E+00 -0.00000000000E+00  0.00000000000E+00  0.93800000000E+00  0.93800000000E+00 0. -1.
         11    1    1    2    0    0 -0.63902807134E-02  0.17279159378E-01  0.65793595627E+00  0.65819403576E+00  0.51100000000E-03 0. -1.
    9000002    1    1    2    0    0 -0.71891991299E-01 -0.33357542279E+00  0.79817454446E-01  0.10013270430E+01  0.93800000000E+00 0. -1.
         22    1    1    2    0    0  0.78282272013E-01  0.31629626342E+00  0.32622465566E+01  0.32784789212E+01  0.00000000000E+00 0. -1.
</event>
<event>
 5    1  0.3005426E+001  0.1599658E+01  0.7818608E-02  0.3353735E+00
         11   -1    0    0    0    0  0.00000000000E+00  0.00000000000E+00  0.39999999674E+01  0.40000000000E+01  0.51100000000E-03 0. -1.
    9000002   -1    0    0    0    0 -0.00000000000E+00 -0.00000000000E+00  0.00000000000E+00  0.93800000000E+00  0.93800000000E+00 0. -1.
         11    1    1    2    0    0  0.21469210008E-01  0.29243819420E-01  0.35228259946E+00  0.35414604185E+00  0.51100000000E-03 0. -1.
    9000002    1    1    2    0    0 -0.22673754922E+00 -0.35393579893E+00  0.11951155749E+00  0.10347982791E+01  0.93800000000E+00 0. -1.
         22    1    1    2    0    0  0.20526833921E+00  0.32469197951E+00  0.35282058104E+01  0.35490556791E+01  0.00000000000E+00 0. -1.
</event>
<event>
 5    1  0.3005426E+001  0.1599631E+01  0.7818608E-02  0.3353764E+00
         11   -1    0    0    0    0  0.00000000000E+00  0.00000000000E+00  0.39999999674E+01  0.40000000000E+01  0.51100000000E-03 0. -1.
    9000002   -1    0    0    0    0 -0.00000000000E+00 -0.00000000000E+00  0.00000000000E+00  0.93800000000E+00  0.93800000000E+00 0. -1.
         11    1    1    2    0    0  0.28901199604E-01  0.50658040743E-01  0.71045355493E+00  0.71284362329E+00  0.51100000000E-03 0. -1.
    9000002    1    1    2    0    0 -0.16409370297E+00 -0.31379681421E+00  0.84154668445E-01  0.10061417356E+01  0.93800000000E+00 0. -1.
         22    1    1    2    0    0  0.13519250336E+00  0.26313877347E+00  0.32053917440E+01  0.32190146411E+01  0.00000000000E+00 0. -1.
</event>
<event>
 5    1  0.3005426E+001  0.1552853E+01  0.7818608E-02  0.3406180E+00
         11   -1    0    0    0    0  0.00000000000E+00  0.00000000000E+00  0.39999999674E+01  0.40000000000E+01  0.51100000000E-03 0. -1.
    9000002   -1    0    0    0    0 -0.00000000000E+00 -0.00000000000E+00  0.00000000000E+00  0.93800000000E+00  0.93800000000E+00 0. -1.
         11    1    1    2    0    0 -0.62730974492E-01 -0.25348600233E-01  0.49241243218E-01  0.83682064083E-01  0.51100000000E-03 0. -1.
    9000002    1    1    2    0    0  0.22347681908E+00 -0.73725863462E+00  0.49349129945E+00  0.13102938013E+01  0.93800000000E+00 0. -1.
         22    1    1    2    0    0 -0.16074584459E+00  0.76260723486E+00  0.34572674247E+01  0.35440241347E+01  0.00000000000E+00 0. -1.
</event>
<event>
 5    1  0.3005426E+001  0.1599676E+01  0.7818608E-02  0.3353715E+00
         11   -1    0    0    0    0  0.00000000000E+00  0.00000000000E+00  0.39999999674E+01  0.40000000000E+01  0.51100000000E-03 0.  1.
    9000002   -1    0    0    0    0 -0.00000000000E+00 -0.00000000000E+00  0.00000000000E+00  0.93800000000E+00  0.93800000000E+00 0. -1.
         11    1    1    2    0    0 -0.14553016445E+00  0.29122806191E-01  0.14327045142E+01  0.14403713593E+01  0.51100000000E-03 0.  1.
    9000002    1    1    2    0    0  0.39309023432E+00 -0.76946755015E-01  0.10822894044E+00  0.10256696539E+01  0.93800000000E+00 0. -1.
         22    1    1    2    0    0 -0.24756006987E+00  0.47823948824E-01  0.24590665127E+01  0.24719589868E+01  0.00000000000E+00 0.  1.
</event>
<event>
 5    1  0.3005426E+001  0.1598670E+01  0.7818608E-02  0.3354808E+00
         11   -1    0    0    0    0  0.00000000000E+00  0.00000000000E+00  0.39999999674E+01  0.40000000000E+01  0.51100000000E-03 0.  1.
    9000002   -1    0    0    0    0 -0.00000000000E+00 -0.00000000000E+00  0.00000000000E+00  0.93800000000E+00  0.93800000000E+00 0. -1.
         11    1    1    2    0    0 -0.68570494955E-01  0.12566215143E+00  0.14246121424E+01  0.14317866134E+01  0.51100000000E-03 0.  1.
    9000002    1    1    2    0    0  0.87619031921E-01 -0.35227811222E+00  0.89304820388E-01  0.10097506197E+01  0.93800000000E+00 0. -1.
         22    1    1    2    0    0 -0.19048536966E-01  0.22661596079E+00  0.24860830046E+01  0.24964627668E+01  0.00000000000E+00 0.  1.
</event>
<event>
 5    1  0.3005426E+001  0.1599548E+01  0.7818608E-02  0.3353855E+00
         11   -1    0    0    0    0  0.00000000000E+00  0.00000000000E+00  0.39999999674E+01  0.40000000000E+01  0.51100000000E-03 0.  1.
    9000002   -1    0    0    0    0 -0.00000000000E+00 -0.00000000000E+00  0.00000000000E+00  0.93800000000E+00  0.93800000000E+00 0. -1.
         11    1    1    2    0    0  0.11957520063E-01  0.12069812709E+00  0.14458006725E+01  0.14508793423E+01  0.51100000000E-03 0.  1.
    9000002    1    1    2    0    0 -0.33470144651E-01 -0.36238266292E+00  0.89048083984E-01  0.10100569322E+01  0.93800000000E+00 0. -1.
         22    1    1    2    0    0  0.21512624588E-01  0.24168453583E+00  0.24651512108E+01  0.24770637255E+01  0.00000000000E+00 0.  1.
</event>
<event>
 5    1  0.3005426E+001  0.1599401E+01  0.7818608E-02  0.3354014E+00
         11   -1    0    0    0    0  0.00000000000E+00  0.00000000000E+00  0.39999999674E+01  0.40000000000E+01  0.51100000000E-03 0.  1.
    9000002   -1    0    0    0    0 -0.00000000000E+00 -0.00000000000E+00  0.00000000000E+00  0.93800000000E+00  0.93800000000E+00 0. -1.
         11    1    1    2    0    0  0.15425147065E-01  0.11146988338E+00  0.66097869098E+00  0.67048979195E+00  0.51100000000E-03 0.  1.
    9000002    1    1    2    0    0 -0.19226294583E-01 -0.67421392070E+00  0.32326893398E+00  0.11997003230E+01  0.93800000000E+00 0. -1.
         22    1    1    2    0    0  0.38011475186E-02  0.56274403732E+00  0.30157523424E+01  0.30678098851E+01  0.00000000000E+00 0.  1.
</event>
<event>
 5    1  0.3005426E+001  0.1516187E+01  0.7818608E-02  0.3449677E+00
         11   -1    0    0    0    0  0.00000000000E+00  0.00000000000E+00  0.39999999674E+01  0.40000000000E+01  0.51100000000E-03 0. -1.
    9000002   -1    0    0    0    0 -0.00000000000E+00 -0.00000000000E+00  0.00000000000E+00  0.93800000000E+00  0.93800000000E+00 0.  1.
         11    1    1    2    0    0  0.92371373282E-01  0.54952016892E-01  0.32280784301E-01  0.11222524190E+00  0.51100000000E-03 0. -1.
    9000002    1    1    2    0    0 -0.28235076555E+00 -0.60533571841E+00  0.41247059683E+00  0.12231636358E+01  0.93800000000E+00 0.  1.
         22    1    1    2    0    0  0.18997939227E+00  0.55038370152E+00  0.35552485862E+01  0.36026111223E+01  0.00000000000E+00 0. -1.
</event>
<event>
 5    1  0.3005426E+001  0.1599673E+01  0.7818608E-02  0.3353718E+00
         11   -1    0    0    0    0  0.00000000000E+00  0.00000000000E+00  0.39999999674E+01  0.40000000000E+01  0.51100000000E-03 0.  1.
    9000002   -1    0    0    0    0 -0.00000000000E+00 -0.00000000000E+00  0.00000000000E+00  0.93800000000E+00  0.93800000000E+00 0. -1.
         11    1    1    2    0    0 -0.93362942146E-02  0.92814181973E-02  0.46320388585E-01  0.48157560497E-01  0.51100000000E-03 0. -1.
    9000002    1    1    2    0    0  0.65557245193E+00 -0.67806852112E+00  0.69450518963E+00  0.15005777612E+01  0.93800000000E+00 0. -1.
         22    1    1    2    0    0 -0.64623615772E+00  0.66878710292E+00  0.32591743891E+01  0.33892646783E+01  0.00000000000E+00 0.  1.
</event>
<event>
 5    1  0.3005426E+001  0.1599676E+01  0.7818608E-02  0.3353715E+00
         11   -1    0    0    0    0  0.00000000000E+00  0.00000000000E+00  0.39999999674E+01  0.40000000000E+01  0.51100000000E-03 0.  1.
    9000002   -1    0    0    0    0 -0.00000000000E+00 -0.00000000000E+00  0.00000000000E+00  0.93800000000E+00  0.93800000000E+00 0.  1.
         11    1    1    2    0    0  0.11109914843E+00 -0.10916028657E+00  0.13636505034E+01  0.13725166468E+01  0.51100000000E-03 0.  1.
    9000002    1    1    2    0    0 -0.31341292714E+00  0.31237455684E+00  0.13284332285E+00  0.10456083756E+01  0.93800000000E+00 0.  1.
         22    1    1    2    0    0  0.20231377871E+00 -0.20321427027E+00  0.25035061411E+01  0.25198749777E+01  0.00000000000E+00 0.  1.
</event>
<event>
 5    1  0.3005426E+001  0.1599677E+01  0.7818608E-02  0.3353714E+00
         11   -1    0    0    0    0  0.00000000000E+00  0.00000000000E+00  0.39999999674E+01  0.40000000000E+01  0.51100000000E-03 0. -1.
    9000002   -1    0    0    0    0 -0.00000000000E+00 -0.00000000000E+00  0.00000000000E+00  0.93800000000E+00  0.93800000000E+00 0. -1.
         11    1    1    2    0    0 -0.53963349089E-01  0.10653011817E+00  0.70535898479E+00  0.71539658069E+00  0.51100000000E-03 0.  1.
    9000002    1    1    2    0    0  0.28339937581E+00 -0.56197156240E+00  0.27817997665E+00  0.11633380173E+01  0.93800000000E+00 0. -1.
         22    1    1    2    0    0 -0.22943602672E+00  0.45544144423E+00  0.30164610059E+01  0.30592654020E+01  0.00000000000E+00 0. -1.
</event>
<event>
 5    1  0.3005426E+001  0.1595976E+01  0.7818608E-02  0.3357742E+00
         11   -1    0    0    0    0  0.00000000000E+00  0.00000000000E+00  0.39999999674E+01  0.40000000000E+01  0.51100000000E-03 0.  1.
    9000002   -1    0    0    0    0 -0.00000000000E+00 -0.00000000000E+00  0.00000000000E+00  0.93800000000E+00  0.93800000000E+00 0. -1.
         11    1    1    2    0    0  0.26495213864E-01 -0.59813859925E-01  0.46126944271E+00  0.46588566633E+00  0.51100000000E-03 0.  1.
    9000002    1    1    2    0    0 -0.33967496019E+00  0.12310565896E+00  0.90642258384E-01  0.10092542300E+01  0.93800000000E+00 0. -1.
         22    1    1    2    0    0  0.31317974632E+00 -0.63291799036E-01  0.34480882663E+01  0.34628601036E+01  0.00000000000E+00 0. -1.
</event>
<event>
 5    1  0.3005426E+001  0.1599677E+01  0.7818608E-02  0.3353714E+00
         11   -1    0    0    0    0  0.00000000000E+00  0.00000000000E+00  0.39999999674E+01  0.40000000000E+01  0.51100000000E-03 0. -1.
    9000002   -1    0    0    0    0 -0.00000000000E+00 -0.00000000000E+00  0.00000000000E+00  0.93800000000E+00  0.93800000000E+00 0.  1.
         11    1    1    2    0    0  0.13985926098E+00  0.34665876185E-01  0.10829731741E+01  0.10925170447E+01  0.51100000000E-03 0. -1.
    9000002    1    1    2    0    0 -0.49184347752E+00 -0.12126341455E+00  0.17586313265E+00  0.10804566921E+01  0.93800000000E+00 0.  1.
         22    1    1    2    0    0  0.35198421654E+00  0.86597538366E-01  0.27411636606E+01  0.27650262632E+01  0.00000000000E+00 0. -1.
</event>
<event>
 5    1  0.3005426E+001  0.1454781E+01  0.7818608E-02  0.3527819E+00
         11   -1    0    0    0    0  0.00000000000E+00  0.00000000000E+00  0.39999999674E+01  0.40000000000E+01  0.51100000000E-03 0.  1.
    9000002   -1    0    0    0    0 -0.00000000000E+00 -0.00000000000E+00  0.00000000000E+00  0.93800000000E+00  0.93800000000E+00 0.  1.
         11    1    1    2    0    0 -0.15995440528E+00  0.19197847792E-01  0.53938009085E-01  0.16989272814E+00  0.51100000000E-03 0.  1.
    9000002    1    1    2    0    0  0.51908691845E-01  0.30679582799E+00  0.20246272931E+00  0.10087880596E+01  0.93800000000E+00 0.  1.
         22    1    1    2    0    0  0.10804571344E+00 -0.32599367578E+00  0.37435992290E+01  0.37593192123E+01  0.00000000000E+00 0.  1.
</event>
<event>
 5    1  0.3005426E+001  0.1599391E+01  0.7818608E-02  0.3354025E+00
         11   -1    0    0    0    0  0.00000000000E+00  0.00000000000E+00  0.39999999674E+01  0.40000000000E+01  0.51100000000E-03 0. -1.
    9000002   -1    0    0    0    0 -0.00000000000E+00 -0.00000000000E+00  0.00000000000E+00  0.93800000000E+00  0.93800000000E+00 0.  1.
         11    1    1    2    0    0 -0.75355893172E-01  0.15333315856E+00  0.13703471499E+01  0.13809566034E+01  0.51100000000E-03 0. -1.
    9000002    1    1    2    0    0  0.16241256539E+00 -0.41006780274E+00  0.13219763486E+00  0.10449180154E+01  0.93800000000E+00 0.  1.
         22    1    1    2    0    0 -0.87056672222E-01  0.25673464419E+00  0.24974551826E+01  0.25121253812E+01  0.00000000000E+00 0.  1.
</event>
<event>
 5    1  0.3005426E+001  0.1599297E+01  0.7818608E-02  0.3354127E+00
         11   -1    0    0    0    0  0.00000000000E+00  0.00000000000E+00  0.39999999674E+01  0.40000000000E+01  0.51100000000E-03 0.  1.
    9000002   -1    0    0    0    0 -0.00000000000E+00 -0.00000000000E+00  0.00000000000E+00  0.93800000000E+00  0.93800000000E+00 0.  1.
         11    1    1    2    0    0  0.12071402327E+00 -0.14456033630E+00  0.13417437141E+01  0.13548970521E+01  0.51100000000E-03 0.  1.
    9000002    1    1    2    0    0 -0.36464538071E+00  0.46273713313E+00  0.24198491208E+00  0.11337956631E+01  0.93800000000E+00 0.  1.
         22    1    1    2    0    0  0.24393135744E+00 -0.31817679683E+00  0.24162713411E+01  0.24493072848E+01  0.00000000000E+00 0.  1.
</event>
<event>
 5    1  0.3005426E+001  0.1595500E+01  0.7818608E-02  0.3358262E+00
         11   -1    0    0    0    0  0.00000000000E+00  0.00000000000E+00  0.39999999674E+01  0.40000000000E+01  0.51100000000E-03 0. -1.
    9000002   -1    0    0    0    0 -0.00000000000E+00 -0.00000000000E+00  0.00000000000E+00  0.93800000000E+00  0.93800000000E+00 0.  1.
         11    1    1    2    0    0  0.60601488451E-01  0.36781926141E-01  0.30074409107E+00  0.30898660153E+00  0.51100000000E-03 0. -1.
    9000002    1    1    2    0    0 -0.23229024879E+00 -0.46760811023E+00  0.19118385525E+00  0.10904179799E+01  0.93800000000E+00 0.  1.
         22    1    1    2    0    0  0.17168876034E+00  0.43082618409E+00  0.35080720210E+01  0.35385954185E+01  0.00000000000E+00 0. -1.
</event>
<event>
 5    1  0.3005426E+001  0.1599419E+01  0.7818608E-02  0.3353994E+00
         11   -1    0    0    0    0  0.00000000000E+00  0.00000000000E+00  0.39999999674E+01  0.40000000000E+01  0.51100000000E-03 0.  1.
    9000002   -1    0    0    0    0 -0.00000000000E+00 -0.00000000000E+00  0.00000000000E+00  0.93800000000E+00  0.93800000000E+00 0. -1.
         11    1    1    2    0    0 -0.43148423773E-01  0.43998610139E-01  0.75328833222E+00  0.75580502562E+00  0.51100000000E-03 0.  1.
    9000002    1    1    2    0    0  0.30046484665E+00 -0.24576305619E+00  0.10169729114E+00  0.10202278877E+01  0.93800000000E+00 0. -1.
         22    1    1    2    0    0 -0.25731642287E+00  0.20176444605E+00  0.31450143440E+01  0.31619670867E+01  0.00000000000E+00 0.  1.
</event>
<event>
 5    1  0.3005426E+001  0.1599677E+01  0.7818608E-02  0.3353714E+00
         11   -1    0    0    0    0  0.00000000000E+00  0.00000000000E+00  0.39999999674E+01  0.40000000000E+01  0.51100000000E-03 0.  1.
    9000002   -1    0    0    0    0 -0.00000000000E+00 -0.00000000000E+00  0.00000000000E+00  0.93800000000E+00  0.93800000000E+00 0.  1.
         11    1    1    2    0    0  0.54437778283E-01  0.12316245250E+00  0.12667789760E+01  0.12739158907E+01  0.51100000000E-03 0. -1.
    9000002    1    1    2    0    0 -0.16746041888E+00 -0.37780569317E+00  0.11539459716E+00  0.10314746952E+01  0.93800000000E+00 0.  1.
         22    1    1    2    0    0  0.11302264060E+00  0.25464324067E+00  0.26178263942E+01  0.26326094141E+01  0.00000000000E+00 0.  1.
</event>
<event>
 5    1  0.3005426E+001  0.1595463E+01  0.7818608E-02  0.3358303E+00
         11   -1    0    0    0    0  0.00000000000E+00  0.00000000000E+00  0.39999999674E+01  0.40000000000E+01  0.51100000000E-03 0. -1.
    9000002   -1    0    0    0    0 -0.00000000000E+00 -0.00000000000E+00  0.00000000000E+00  0.93800000000E+00  0.93800000000E+00 0. -1.
         11    1    1    2    0    0 -0.16792609366E+00  0.71876830044E-01  0.86332876586E+00  0.88244108625E+00  0.51100000000E-03 0. -1.
    9000002    1    1    2    0    0  0.44829760114E+00 -0.29449849563E+00  0.20214525225E+00  0.10992755824E+01  0.93800000000E+00 0. -1.
         22    1    1    2    0    0 -0.28037150748E+00  0.22262166559E+00  0.29345259492E+01  0.29562833313E+01  0.00000000000E+00 0. -1.
</event>
<event>
 5    1  0.3005426E+001  0.1599594E+01  0.7818608E-02  0.3353804E+00
         11   -1    0    0    0    0  0.00000000000E+00  0.00000000000E+00  0.39999999674E+01  0.40000000000E+01  0.51100000000E-03 0.  1.
    9000002   -1    0    0    0    0 -0.00000000000E+00 -0.00000000000E+00  0.00000000000E+00  0.93800000000E+00  0.93800000000E+00 0. -1.
         11    1    1    2    0    0 -0.14260105236E+00  0.29049942370E-01  0.13798828246E+01  0.13875358842E+01  0.51100000000E-03 0.  1.
    9000002    1    1    2    0    0  0.38005672388E+00 -0.10132884530E+00  0.10433587432E+00  0.10224679080E+01  0.93800000000E+00 0. -1.
         22    1    1    2    0    0 -0.23745567152E+00  0.72278902934E-01  0.25157812685E+01  0.25279962078E+01  0.00000000000E+00 0.  1.
</event>
<event>
 5    1  0.3005426E+001  0.1589155E+01  0.7818608E-02  0.3365219E+00
         11   -1    0    0    0    0  0.00000000000E+00  0.00000000000E+00  0.39999999674E+01  0.40000000000E+01  0.51100000000E-03 0.  1.
    9000002   -1    0    0    0    0 -0.00000000000E+00 -0.00000000000E+00  0.00000000000E+00  0.93800000000E+00  0.93800000000E+00 0.  1.
         11    1    1    2    0    0  0.23770773914E+00 -0.32276476376E-01  0.11147484461E+01  0.11402679945E+01  0.51100000000E-03 0.  1.
    9000002    1    1    2    0    0 -0.54732331399E+00  0.39727851731E+00  0.33639439529E+00  0.12043247982E+01  0.93800000000E+00 0.  1.
         22    1    1    2    0    0  0.30961557485E+00 -0.36500204093E+00  0.25488571260E+01  0.25934072073E+01  0.00000000000E+00 0.  1.
</event>
<event>
 5    1  0.3005426E+001  0.1589640E+01  0.7818608E-02  0.3364685E+00
         11   -1    0    0    0    0  0.00000000000E+00  0.00000000000E+00  0.39999999674E+01  0.40000000000E+01  0.51100000000E-03 0.  1.
    9000002   -1    0    0    0    0 -0.00000000000E+00 -0.00000000000E+00  0.00000000000E+00  0.93800000000E+00  0.93800000000E+00 0. -1.
         11    1    1    2    0    0 -0.32529659201E-01 -0.33618286479E-01  0.30806316932E+00  0.31159516255E+00  0.51100000000E-03 0.  1.
    9000002    1    1    2    0    0  0.87906962566E+00 -0.18977957916E+00  0.63454110984E+00  0.14461210584E+01  0.93800000000E+00 0. -1.
         22    1    1    2    0    0 -0.84653996645E+00  0.22339786564E+00  0.30573956882E+01  0.31802837791E+01  0.00000000000E+00 0.  1.
</event>
<event>
 5    1  0.3005426E+001  0.1599175E+01  0.7818608E-02  0.3354259E+00
         11   -1    0    0    0    0  0.00000000000E+00  0.00000000000E+00  0.39999999674E+01  0.40000000000E+01  0.51100000000E-03 0.  1.
    9000002   -1    0    0    0    0 -0.00000000000E+00 -0.00000000000E+00  0.00000000000E+00  0.93800000000E+00  0.93800000000E+00 0.  1.
         11    1    1    2    0    0 -0.42588076064E-01  0.68120037998E-01  0.11728692070E+01  0.11756175065E+01  0.51100000000E-03 0.  1.
    9000002    1    1    2    0    0  0.21451837166E+00 -0.26819845941E+00  0.79431664722E-01  0.10020488685E+01  0.93800000000E+00 0.  1.
         22    1    1    2    0    0 -0.17193029559E+00  0.20007842141E+00  0.27476990957E+01  0.27603336250E+01  0.00000000000E+00 0.  1.
</event>
<event>
 5    1  0.3005426E+001  0.1599677E+01  0.7818608E-02  0.3353714E+00
         11   -1    0    0    0    0  0.00000000000E+00  0.00000000000E+00  0.39999999674E+01  0.40000000000E+01  0.51100000000E-03 0.  1.
    9000002   -1    0    0    0    0 -0.00000000000E+00 -0.00000000000E+00  0.00000000000E+00  0.93800000000E+00  0.93800000000E+00 0.  1.
         11    1    1    2    0    0 -0.21309249816E-01  0.16634774124E+00  0.13905065967E+01  0.14005836326E+01  0.51100000000E-03 0. -1.
    9000002    1    1    2    0    0  0.59398449525E-01 -0.46052387369E+00  0.14675520424E+00  0.10568781879E+01  0.93800000000E+00 0.  1.
         22    1    1    2    0    0 -0.38089199708E-01  0.29417613245E+00  0.24627381664E+01  0.24805381795E+01  0.00000000000E+00 0.  1.
</event>
<event>
 5    1  0.3005426E+001  0.1599665E+01  0.7818608E-02  0.3353727E+00
         11   -1    0    0    0    0  0.00000000000E+00  0.00000000000E+00  0.39999999674E+01  0.40000000000E+01  0.51100000000E-03 0.  1.
    9000002   -1    0    0    0    0 -0.00000000000E+00 -0.00000000000E+00  0.00000000000E+00  0.93800000000E+00  0.93800000000E+00 0.  1.
         11    1    1    2    0    0  0.80366281165E-01 -0.13974666652E-01  0.80716085194E+00  0.81127241570E+00  0.51100000000E-03 0.  1.
    9000002    1    1    2    0    0 -0.39832257448E+00  0.79140887502E-01  0.11134265147E+00  0.10281854597E+01  0.93800000000E+00 0.  1.
         22    1    1    2    0    0  0.31795629332E+00 -0.65166220851E-01  0.30814964640E+01  0.30985421246E+01  0.00000000000E+00 0.  1.
</event>
<event>
 5    1  0.3005426E+001  0.1599673E+01  0.7818608E-02  0.3353718E+00
         11   -1    0    0    0    0  0.00000000000E+00  0.00000000000E+00  0.39999999674E+01  0.40000000000E+01  0.51100000000E-03 0.  1.
    9000002   -1    0    0    0    0 -0.00000000000E+00 -0.00000000000E+00  0.00000000000E+00  0.93800000000E+00  0.93800000000E+00 0. -1.
         11    1    1    2    0    0 -0.14168011808E+00 -0.42572484369E-01  0.13543714351E+01  0.13624272156E+01  0.51100000000E-03 0.  1.
    9000002    1    1    2    0    0  0.41149719455E+00  0.12303281937E+00  0.12492212131E+00  0.10391903349E+01  0.93800000000E+00 0. -1.
         22    1    1    2    0    0 -0.26981707647E+00 -0.80460335004E-01  0.25207064109E+01  0.25363824495E+01  0.00000000000E+00 0.  1.
</event>
<event>
 5    1  0.3005426E+001  0.1599625E+01  0.7818608E-02  0.3353771E+00
         11   -1    0    0    0    0  0.00000000000E+00  0.00000000000E+00  0.39999999674E+01  0.40000000000E+01  0.51100000000E-03 0.  1.
    9000002   -1    0    0    0    0 -0.00000000000E+00 -0.00000000000E+00  0.00000000000E+00  0.93800000000E+00  0.93800000000E+00 0.  1.
         11    1    1    2    0    0 -0.11508735576E+00  0.15238723706E+00  0.10798870140E+01  0.10966417800E+01  0.51100000000E-03 0.  1.
    9000002    1    1    2    0    0  0.39153905694E+00 -0.49759432074E+00  0.28183227553E+00  0.11662659957E+01  0.93800000000E+00 0.  1.
         22    1    1    2    0    0 -0.27645170118E+00  0.34520708368E+00  0.26382806778E+01  0.26750922243E+01  0.00000000000E+00 0.  1.
</event>
<event>
 5    1  0.3005426E+001  0.1599674E+01  0.7818608E-02  0.3353718E+00
         11   -1    0    0    0    0  0.00000000000E+00  0.00000000000E+00  0.39999999674E+01  0.40000000000E+01  0.51100000000E-03 0.  1.
    9000002   -1    0    0    0    0 -0.00000000000E+00 -0.00000000000E+00  0.00000000000E+00  0.93800000000E+00  0.93800000000E+00 0.  1.
         11    1    1    2    0    0  0.12424245777E-01 -0.22750049796E-01  0.28941402183E+00  0.29057299221E+00  0.51100000000E-03 0.  1.
    9000002    1    1    2    0    0 -0.16034711425E+00  0.32009681693E+00  0.86021164405E-01  0.10076789221E+01  0.93800000000E+00 0.  1.
         22    1    1    2    0    0  0.14792286848E+00 -0.29734676713E+00  0.36245647811E+01  0.36397480857E+01  0.00000000000E+00 0.  1.
</event>
<event>
 5    1  0.3005426E+001  0.1535159E+01  0.7818608E-02  0.3426893E+00
         11   -1    0    0    0    0  0.00000000000E+00  0.00000000000E+00  0.39999999674E+01  0.40000000000E+01  0.51100000000E-03 0.  1.
    9000002   -1    0    0    0    0 -0.00000000000E+00 -0.00000000000E+00  0.00000000000E+00  0.93800000000E+00  0.93800000000E+00 0. -1.
         11    1    1    2    0    0 -0.19391738959E-01 -0.11929620656E+00  0.44413990750E+00  0.46029136750E+00  0.51100000000E-03 0.  1.
    9000002    1    1    2    0    0  0.28670943132E+00 -0.65749037117E+00  0.44774090119E+00  0.12628585830E+01  0.93800000000E+00 0. -1.
         22    1    1    2    0    0 -0.26731769236E+00  0.77678657773E+00  0.31081191587E+01  0.32148500494E+01  0.00000000000E+00 0.  1.
</event>
<event>
 5    1  0.3005426E+001  0.1599676E+01  0.7818608E-02  0.3353715E+00
         11   -1    0    0    0    0  0.00000000000E+00  0.00000000000E+00  0.39999999674E+01  0.40000000000E+01  0.51100000000E-03 0. -1.
    9000002   -1    0    0    0    0 -0.00000000000E+00 -0.00000000000E+00  0.00000000000E+00  0.93800000000E+00  0.93800000000E+00 0. -1.
         11    1    1    2    0    0 -0.28037383615E-01 -0.10286785214E+00  0.90099971184E+00  0.90728641109E+00  0.51100000000E-03 0. -1.
    9000002    1    1    2    0    0  0.11837392438E+00  0.43818981250E+00  0.14000871426E+00  0.10514129245E+01  0.93800000000E+00 0. -1.
         22    1    1    2    0    0 -0.90336540763E-01 -0.33532196036E+00  0.29589915413E+01  0.29793006644E+01  0.00000000000E+00 0. -1.
</event>
<event>
 5    1  0.3005426E+001  0.1599677E+01  0.7818608E-02  0.3353714E+00
         11   -1    0    0    0    0  0.00000000000E+00  0.00000000000E+00  0.39999999674E+01  0.40000000000E+01  0.51100000000E-03 0. -1.
    9000002   -1    0    0    0    0 -0.00000000000E+00 -0.00000000000E+00  0.00000000000E+00  0.93800000000E+00  0.93800000000E+00 0.  1.
         11    1    1    2    0    0 -0.20199198771E-01  0.67992517692E-01  0.60054696879E+00  0.60472135148E+00  0.51100000000E-03 0.  1.
    9000002    1    1    2    0    0  0.12932292831E+00 -0.43758488364E+00  0.14154213069E+00  0.10526552736E+01  0.93800000000E+00 0.  1.
         22    1    1    2    0    0 -0.10912372954E+00  0.36959236595E+00  0.32579108679E+01  0.32806233750E+01  0.00000000000E+00 0. -1.
</event>
<event>
 5    1  0.3005426E+001  0.1599677E+01  0.7818608E-02  0.3353714E+00
         11   -1    0    0    0    0  0.00000000000E+00  0.00000000000E+00  0.39999999674E+01  0.40000000000E+01  0.51100000000E-03 0.  1.
    9000002   -1    0    0    0    0 -0.00000000000E+00 -0.00000000000E+00  0.00000000000E+00  0.93800000000E+00  0.93800000000E+00 0. -1.
         11    1    1    2    0    0 -0.64869891149E-02  0.74722159628E-01  0.79995950441E+00  0.80346807776E+00  0.51100000000E-03 0.  1.
    9000002    1    1    2    0    0  0.31626971944E-01 -0.36608735159E+00  0.90711866322E-01  0.10114805273E+01  0.93800000000E+00 0. -1.
         22    1    1    2    0    0 -0.25139982829E-01  0.29136519196E+00  0.31093285966E+01  0.31230513950E+01  0.00000000000E+00 0.  1.
</event>
<event>
 5    1  0.3005426E+001  0.1592078E+01  0.7818608E-02  0.3362007E+00
         11   -1    0    0    0    0  0.00000000000E+00  0.00000000000E+00  0.39999999674E+01  0.40000000000E+01  0.51100000000E-03 0. -1.
    9000002   -1    0    0    0    0 -0.00000000000E+00 -0.00000000000E+00  0.00000000000E+00  0.93800000000E+00  0.93800000000E+00 0.  1.
         11    1    1    2    0    0 -0.31587000514E-01  0.89825558448E-01  0.12285064062E+01  0.12321909839E+01  0.51100000000E-03 0. -1.
    9000002    1    1    2    0    0  0.29434243284E+00 -0.43455536359E-01  0.65007311824E-01  0.98620271851E+00  0.93800000000E+00 0.  1.
         22    1    1    2    0    0 -0.26275543232E+00 -0.46370022090E-01  0.27064862493E+01  0.27196062976E+01  0.00000000000E+00 0. -1.
</event>
<event>
 5    1  0.3005426E+001  0.1593254E+01  0.7818608E-02  0.3360718E+00
         11   -1    0    0    0    0  0.00000000000E+00  0.00000000000E+00  0.39999999674E+01  0.40000000000E+01  0.51100000000E-03 0. -1.
    9000002   -1    0    0    0    0 -0.00000000000E+00 -0.00000000000E+00  0.00000000000E+00  0.93800000000E+00  0.93800000000E+00 0. -1.
         11    1    1    2    0    0  0.53515321581E-02  0.18824915490E-01  0.12814923698E+01  0.12816419045E+01  0.51100000000E-03 0. -1.
    9000002    1    1    2    0    0  0.22152563128E+00  0.87228917647E-01  0.42519745489E-01  0.96867663239E+00  0.93800000000E+00 0. -1.
         22    1    1    2    0    0 -0.22687716344E+00 -0.10605383314E+00  0.26759878520E+01  0.26876814631E+01  0.00000000000E+00 0. -1.
</event>
<event>
 5    1  0.3005426E+001  0.1599677E+01  0.7818608E-02  0.3353714E+00
         11   -1    0    0    0    0  0.00000000000E+00  0.00000000000E+00  0.39999999674E+01  0.40000000000E+01  0.51100000000E-03 0.  1.
    9000002   -1    0    0    0    0 -0.00000000000E+00 -0.00000000000E+00  0.00000000000E+00  0.93800000000E+00  0.93800000000E+00 0.  1.
         11    1    1    2    0    0 -0.11896083974E+00  0.32017276796E-01  0.10674354013E+01  0.10745210023E+01  0.51100000000E-03 0. -1.
    9000002    1    1    2    0    0  0.42921771622E+00 -0.11467680703E+00  0.13394440937E+00  0.10465007037E+01  0.93800000000E+00 0.  1.
         22    1    1    2    0    0 -0.31025687648E+00  0.82659530236E-01  0.27986201567E+01  0.28169782940E+01  0.00000000000E+00 0.  1.
</event>
<event>
 5    1  0.3005426E+001  0.1512987E+01  0.7818608E-02  0.3453580E+00
         11   -1    0    0    0    0  0.00000000000E+00  0.00000000000E+00  0.39999999674E+01  0.40000000000E+01  0.51100000000E-03 0.  1.
    9000002   -1    0    0    0    0 -0.00000000000E+00 -0.00000000000E+00  0.00000000000E+00  0.93800000000E+00  0.93800000000E+00 0. -1.
         11    1    1    2    0    0  0.23439120289E+00 -0.27553992325E+00  0.11194130081E+01  0.11764128651E+01  0.51100000000E-03 0.  1.
    9000002    1    1    2    0    0  0.10758749453E+00  0.31321343977E+00  0.14595513379E+00  0.10053977466E+01  0.93800000000E+00 0. -1.
         22    1    1    2    0    0 -0.34197869742E+00 -0.37673516515E-01  0.27346318254E+01  0.27561893883E+01  0.00000000000E+00 0.  1.
</event>
<event>
 5    1  0.3005426E+001  0.1599583E+01  0.7818608E-02  0.3353816E+00
         11   -1    0    0    0    0  0.00000000000E+00  0.00000000000E+00  0.39999999674E+01  0.40000000000E+01  0.51100000000E-03 0.  1.
    9000002   -1    0    0    0    0 -0.00000000000E+00 -0.00000000000E+00  0.00000000000E+00  0.93800000000E+00  0.93800000000E+00 0.  1.
         11    1    1    2    0    0 -0.14603260139E+00  0.17137603372E+00  0.13538331881E+01  0.13724284418E+01  0.51100000000E-03 0.  1.
    9000002    1    1    2    0    0  0.37987360394E+00 -0.45629828333E+00  0.24571288714E+00  0.11369832458E+01  0.93800000000E+00 0.  1.
         22    1    1    2    0    0 -0.23384100255E+00  0.28492224962E+00  0.24004538921E+01  0.24285883123E+01  0.00000000000E+00 0.  1.
</event>
<event>
 5    1  0.3005426E+001  0.1599676E+01  0.7818608E-02  0.3353715E+00
         11   -1    0    0    0    0  0.00000000000E+00  0.00000000000E+00  0.39999999674E+01  0.40000000000E+01  0.51100000000E-03 0. -1.
    9000002   -1    0    0    0    0 -0.00000000000E+00 -0.00000000000E+00  0.00000000000E+00  0.93800000000E+00  0.93800000000E+00 0.  1.
         11    1    1    2    0    0  0.12118602936E+00 -0.28536341744E-01  0.12474049715E+01  0.12536027284E+01  0.51100000000E-03 0. -1.
    9000002    1    1    2    0    0 -0.37771580296E+00  0.86739548736E-01  0.10114975835E+00  0.10199354150E+01  0.93800000000E+00 0.  1.
         22    1    1    2    0    0  0.25652977360E+00 -0.58203206992E-01  0.26514452375E+01  0.26644618566E+01  0.00000000000E+00 0. -1.
</event>
<event>
 5    1  0.3005426E+001  0.1584917E+01  0.7818608E-02  0.3369898E+00
         11   -1    0    0    0    0  0.00000000000E+00  0.00000000000E+00  0.39999999674E+01  0.40000000000E+01  0.51100000000E-03 0. -1.
    9000002   -1    0    0    0    0 -0.00000000000E+00 -0.00000000000E+00  0.00000000000E+00  0.93800000000E+00  0.93800000000E+00 0.  1.
         11    1    1    2    0    0 -0.10017401287E-02  0.55354537808E-01  0.37375435762E+00  0.37783291189E+00  0.51100000000E-03 0. -1.
    9000002    1    1    2    0    0 -0.32361154977E+00  0.25630627995E+00  0.12764169905E+00  0.10327408908E+01  0.93800000000E+00 0.  1.
         22    1    1    2    0    0  0.32461328990E+00 -0.31166081776E+00  0.34986039107E+01  0.35274261973E+01  0.00000000000E+00 0. -1.
</event>
<event>
 5    1  0.3005426E+001  0.1599265E+01  0.7818608E-02  0.3354161E+00
         11   -1    0    0    0    0  0.00000000000E+00  0.00000000000E+00  0.39999999674E+01  0.40000000000E+01  0.51100000000E-03 0.  1.
    9000002   -1    0    0    0    0 -0.00000000000E+00 -0.00000000000E+00  0.00000000000E+00  0.93800000000E+00  0.93800000000E+00 0. -1.
         11    1    1    2    0    0  0.22063043142E-02 -0.96230679786E-01  0.12708825847E+01  0.12745226623E+01  0.51100000000E-03 0.  1.
    9000002    1    1    2    0    0 -0.53444155926E-01  0.34955266897E+00  0.84209001714E-01  0.10059714221E+01  0.93800000000E+00 0. -1.
         22    1    1    2    0    0  0.51237851612E-01 -0.25332198918E+00  0.26449083809E+01  0.26575059155E+01  0.00000000000E+00 0.  1.
</event>
<event>
 5    1  0.3005426E+001  0.1599674E+01  0.7818608E-02  0.3353717E+00
         11   -1    0    0    0    0  0.00000000000E+00  0.00000000000E+00  0.39999999674E+01  0.40000000000E+01  0.51100000000E-03 0. -1.
    9000002   -1    0    0    0    0 -0.00000000000E+00 -0.00000000000E+00  0.00000000000E+00  0.93800000000E+00  0.93800000000E+00 0. -1.
         11    1    1    2    0    0 -0.24666780832E-01 -0.90664085049E-01  0.54640352383E+00  0.55442357307E+00  0.51100000000E-03 0. -1.
    9000002    1    1    2    0    0  0.17636018858E+00  0.61177930576E+00  0.28515874706E+00  0.11689894551E+01  0.93800000000E+00 0. -1.
         22    1    1    2    0    0 -0.15169340775E+00 -0.52111522071E+00  0.31684376965E+01  0.32145869719E+01  0.00000000000E+00 0. -1.
</event>
<event>
 5    1  0.3005426E+001  0.1598964E+01  0.7818608E-02  0.3354488E+00
         11   -1    0    0    0    0  0.00000000000E+00  0.00000000000E+00  0.39999999674E+01  0.40000000000E+01  0.51100000000E-03 0.  1.
    9000002   -1    0    0    0    0 -0.00000000000E+00 -0.00000000000E+00  0.00000000000E+00  0.93800000000E+00  0.93800000000E+00 0. -1.
         11    1    1    2    0    0 -0.81362460923E-01  0.90102842473E-01  0.93965691506E+00  0.94746701864E+00  0.51100000000E-03 0.  1.
    9000002    1    1    2    0    0  0.41237809562E+00 -0.28874835728E+00  0.17423215756E+00  0.10787178279E+01  0.93800000000E+00 0. -1.
         22    1    1    2    0    0 -0.33101563469E+00  0.19864551481E+00  0.28861108947E+01  0.29118151534E+01  0.00000000000E+00 0.  1.
</event>
<event>
 5    1  0.3005426E+001  0.1594229E+01  0.7818608E-02  0.3359651E+00
         11   -1    0    0    0    0  0.00000000000E+00  0.00000000000E+00  0.39999999674E+01  0.40000000000E+01  0.51100000000E-03 0.  1.
    9000002   -1    0    0    0    0 -0.00000000000E+00 -0.00000000000E+00  0.00000000000E+00  0.93800000000E+00  0.93800000000E+00 0. -1.
         11    1    1    2    0    0 -0.86799655215E-01 -0.14060868671E+00  0.77988061282E+00  0.79719446454E+00  0.51100000000E-03 0.  1.
    9000002    1    1    2    0    0  0.32349897461E+00  0.35213328574E+00  0.16079723798E+00  0.10650583032E+01  0.93800000000E+00 0. -1.
         22    1    1    2    0    0 -0.23669931940E+00 -0.21152459903E+00  0.30593221166E+01  0.30757472322E+01  0.00000000000E+00 0.  1.
</event>
<event>
 5    1  0.3005426E+001  0.1599671E+01  0.7818608E-02  0.3353721E+00
         11   -1    0    0    0    0  0.00000000000E+00  0.00000000000E+00  0.39999999674E+01  0.40000000000E+01  0.51100000000E-03 0. -1.
    9000002   -1    0    0    0    0 -0.00000000000E+00 -0.00000000000E+00  0.00000000000E+00  0.93800000000E+00  0.93800000000E+00 0. -1.
         11    1    1    2    0    0  0.19333298611E+00  0.40306510805E+00  0.76281252839E+00  0.88415063165E+00  0.51100000000E-03 0. -1.
    9000002    1    1    2    0    0 -0.54684404300E+00 -0.11513970406E+01  0.18122986260E+01  0.24060390401E+01  0.93800000000E+00 0. -1.
         22    1    1    2    0    0  0.35351105689E+00  0.74833193258E+00  0.14248888130E+01  0.16478103283E+01  0.00000000000E+00 0. -1.
</event>
<event>
 5    1  0.3005426E+001  0.1545507E+01  0.7818608E-02  0.3414718E+00
         11   -1    0    0    0    0  0.00000000000E+00  0.00000000000E+00  0.39999999674E+01  0.40000000000E+01  0.51100000000E-03 0. -1.
    9000002   -1    0    0    0    0 -0.00000000000E+00 -0.00000000000E+00  0.00000000000E+00  0.93800000000E+00  0.93800000000E+00 0. -1.
         11    1    1    2    0    0 -0.37247614386E+00 -0.17070213256E-01  0.32462350784E+00  0.49437895676E+00  0.51100000000E-03 0. -1.
    9000002    1    1    2    0    0  0.65378140940E-04  0.32064088278E+00  0.30210138336E+00  0.10363010305E+01  0.93800000000E+00 0. -1.
         22    1    1    2    0    0  0.37241076572E+00 -0.30357066952E+00  0.33732750762E+01  0.34073200127E+01  0.00000000000E+00 0. -1.
</event>
<event>
 5    1  0.3005426E+001  0.1597296E+01  0.7818608E-02  0.3356303E+00
         11   -1    0    0    0    0  0.00000000000E+00  0.00000000000E+00  0.39999999674E+01  0.40000000000E+01  0.51100000000E-03 0. -1.
    9000002   -1    0    0    0    0 -0.00000000000E+00 -0.00000000000E+00  0.00000000000E+00  0.93800000000E+00  0.93800000000E+00 0. -1.
         11    1    1    2    0    0  0.80074112383E-02  0.95838934048E-01  0.12510966641E+01  0.12547877685E+01  0.51100000000E-03 0. -1.
    9000002    1    1    2    0    0  0.14478882620E+00 -0.32304159930E+00  0.85989688636E-01  0.10062593630E+01  0.93800000000E+00 0. -1.
         22    1    1    2    0    0 -0.15279623744E+00  0.22720266525E+00  0.26629136146E+01  0.26769528685E+01  0.00000000000E+00 0. -1.
</event>
<event>
 5    1  0.3005426E+001  0.1599661E+01  0.7818608E-02  0.3353731E+00
         11   -1    0    0    0    0  0.00000000000E+00  0.00000000000E+00  0.39999999674E+01  0.40000000000E+01  0.51100000000E-03 0.  1.
    9000002   -1    0    0    0    0 -0.00000000000E+00 -0.00000000000E+00  0.00000000000E+00  0.93800000000E+00  0.93800000000E+00 0.  1.
         11    1    1    2    0    0  0.14113911464E+00 -0.39516409032E-02  0.13197933474E+01  0.13273246047E+01  0.51100000000E-03 0.  1.
    9000002    1    1    2    0    0 -0.40504788035E+00  0.19619596452E-01  0.11101657896E+00  0.10279189631E+01  0.93800000000E+00 0.  1.
         22    1    1    2    0    0  0.26390876571E+00 -0.15667955549E-01  0.25691900409E+01  0.25827564322E+01  0.00000000000E+00 0.  1.
</event>
<event>
 5    1  0.3005426E+001  0.1568666E+01  0.7818608E-02  0.3388091E+00
         11   -1    0    0    0    0  0.00000000000E+00  0.00000000000E+00  0.39999999674E+01  0.40000000000E+01  0.51100000000E-03 0.  1.
    9000002   -1    0    0    0    0 -0.00000000000E+00 -0.00000000000E+00  0.00000000000E+00  0.93800000000E+00  0.93800000000E+00 0. -1.
         11    1    1    2    0    0  0.13346263914E+00  0.12039032870E+00  0.12521414416E+01  0.12649761097E+01  0.51100000000E-03 0.  1.
    9000002    1    1    2    0    0 -0.28814691168E-01  0.10264322060E+00  0.30511977459E-01  0.94453210529E+00  0.93800000000E+00 0. -1.
         22    1    1    2    0    0 -0.10464794797E+00 -0.22303354930E+00  0.27173465483E+01  0.27284917850E+01  0.00000000000E+00 0.  1.
</event>
<event>
 5    1  0.3005426E+001  0.1522176E+01  0.7818608E-02  0.3442419E+00
         11   -1    0    0    0    0  0.00000000000E+00  0.00000000000E+00  0.39999999674E+01  0.40000000000E+01  0.51100000000E-03 0. -1.
    9000002   -1    0    0    0    0 -0.00000000000E+00 -0.00000000000E+00  0.00000000000E+00  0.93800000000E+00  0.93800000000E+00 0. -1.
         11    1    1    2    0    0 -0.45900506149E+00  0.95714760538E-01  0.10591883744E+01  0.11583295021E+01  0.51100000000E-03 0. -1.
    9000002    1    1    2    0    0  0.50537384369E+00 -0.47893108855E+00  0.43849851468E+00  0.12477590540E+01  0.93800000000E+00 0. -1.
         22    1    1    2    0    0 -0.46368782200E-01  0.38321632801E+00  0.25023130782E+01  0.25319114439E+01  0.00000000000E+00 0. -1.
</event>
<event>
 5    1  0.3005426E+001  0.1599565E+01  0.7818608E-02  0.3353836E+00
         11   -1    0    0    0    0  0.00000000000E+00  0.00000000000E+00  0.39999999674E+01  0.40000000000E+01  0.51100000000E-03 0. -1.
    9000002   -1    0    0    0    0 -0.00000000000E+00 -0.00000000000E+00  0.00000000000E+00  0.93800000000E+00  0.93800000000E+00 0.  1.
         11    1    1    2    0    0 -0.13377156337E+00 -0.12509864537E+00  0.12695108386E+01  0.12826544868E+01  0.51100000000E-03 0. -1.
    9000002    1    1    2    0    0  0.40183257303E+00  0.40757411940E+00  0.22736096738E+00  0.11221065409E+01  0.93800000000E+00 0.  1.
         22    1    1    2    0    0 -0.26806100966E+00 -0.28247547404E+00  0.25031281614E+01  0.25332389723E+01  0.00000000000E+00 0. -1.
</event>
<event>
 5    1  0.3005426E+001  0.1598554E+01  0.7818608E-02  0.3354935E+00
         11   -1    0    0    0    0  0.00000000000E+00  0.00000000000E+00  0.39999999674E+01  0.40000000000E+01  0.51100000000E-03 0.  1.
    9000002   -1    0    0    0    0 -0.00000000000E+00 -0.00000000000E+00  0.00000000000E+00  0.93800000000E+00  0.93800000000E+00 0.  1.
         11    1    1    2    0    0  0.73561419093E-03  0.70368136815E-02  0.74384700155E-01  0.74722169489E-01  0.51100000000E-03 0.  1.
    9000002    1    1    2    0    0 -0.34568120814E+00  0.12057509702E+00  0.90949290953E-01  0.10110141568E+01  0.93800000000E+00 0.  1.
         22    1    1    2    0    0  0.34494559395E+00 -0.12761191070E+00  0.38346659763E+01  0.38522636737E+01  0.00000000000E+00 0.  1.
</event>
<event>
 5    1  0.3005426E+001  0.1573046E+01  0.7818608E-02  0.3383148E+00
         11   -1    0    0    0    0  0.00000000000E+00  0.00000000000E+00  0.39999999674E+01  0.40000000000E+01  0.51100000000E-03 0.  1.
    9000002   -1    0    0    0    0 -0.00000000000E+00 -0.00000000000E+00  0.00000000000E+00  0.93800000000E+00  0.93800000000E+00 0. -1.
         11    1    1    2    0    0  0.23826330719E+00  0.24954068491E-01  0.60486230217E+00  0.65057726274E+00  0.51100000000E-03 0.  1.
    9000002    1    1    2    0    0 -0.55983450067E+00 -0.67751032479E-01  0.24619183632E+00  0.11218107197E+01  0.93800000000E+00 0. -1.
         22    1    1    2    0    0  0.32157119348E+00  0.42796963988E-01  0.31489458289E+01  0.31656120176E+01  0.00000000000E+00 0.  1.
</event>
<event>
 5    1  0.3005426E+001  0.1599670E+01  0.7818608E-02  0.3353721E+00
         11   -1    0    0    0    0  0.00000000000E+00  0.00000000000E+00  0.39999999674E+01  0.40000000000E+01  0.51100000000E-03 0.  1.
    9000002   -1    0    0    0    0 -0.00000000000E+00 -0.00000000000E+00  0.00000000000E+00  0.93800000000E+00  0.93800000000E+00 0.  1.
         11    1    1    2    0    0  0.11980042902E+00  0.28784001434E-01  0.11695315680E+01  0.11760038313E+01  0.51100000000E-03 0.  1.
    9000002    1    1    2    0    0 -0.38910575985E+00 -0.96615740685E-01  0.10843938085E+00  0.10258367282E+01  0.93800000000E+00 0.  1.
         22    1    1    2    0    0  0.26930533083E+00  0.67831739251E-01  0.27220290185E+01  0.27361594404E+01  0.00000000000E+00 0.  1.
</event>
<event>
 5    1  0.3005426E+001  0.1555129E+01  0.7818608E-02  0.3403553E+00
         11   -1    0    0    0    0  0.00000000000E+00  0.00000000000E+00  0.39999999674E+01  0.40000000000E+01  0.51100000000E-03 0.  1.
    9000002   -1    0    0    0    0 -0.00000000000E+00 -0.00000000000E+00  0.00000000000E+00  0.93800000000E+00  0.93800000000E+00 0.  1.
         11    1    1    2    0    0 -0.53972811174E-01 -0.18360384245E+00  0.13421196516E+01  0.13556949715E+01  0.51100000000E-03 0.  1.
    9000002    1    1    2    0    0 -0.65785500131E-01 -0.13106578329E+00  0.47798297508E-01  0.95059699601E+00  0.93800000000E+00 0.  1.
         22    1    1    2    0    0  0.11975831131E+00  0.31466962574E+00  0.26100820182E+01  0.26317080325E+01  0.00000000000E+00 0.  1.
</event>
<event>
 5    1  0.3005426E+001  0.1599586E+01  0.7818608E-02  0.3353813E+00
         11   -1    0    0    0    0  0.00000000000E+00  0.00000000000E+00  0.39999999674E+01  0.40000000000E+01  0.51100000000E-03 0. -1.
    9000002   -1    0    0    0    0 -0.00000000000E+00 -0.00000000000E+00  0.00000000000E+00  0.93800000000E+00  0.93800000000E+00 0.  1.
         11    1    1    2    0    0 -0.11158173735E+00 -0.56335582269E-01  0.81067720234E+00  0.82025725810E+00  0.51100000000E-03 0. -1.
    9000002    1    1    2    0    0  0.47809230170E+00  0.26955319656E+00  0.20810060800E+00  0.11065175271E+01  0.93800000000E+00 0.  1.
         22    1    1    2    0    0 -0.36651056436E+00 -0.21321761429E+00  0.29812221570E+01  0.30112252148E+01  0.00000000000E+00 0. -1.
</event>
<event>
 5    1  0.3773983E+001  0.1599509E+01  0.7818608E-02  0.3353896E+00
         11   -1    0    0    0    0  0.00000000000E+00  0.00000000000E+00  0.39999999674E+01  0.40000000000E+01  0.51100000000E-03 0.  1.
    9000002   -1    0    0    0    0 -0.00000000000E+00 -0.00000000000E+00  0.00000000000E+00  0.93800000000E+00  0.93800000000E+00 0. -1.
         11    1    1    2    0    0 -0.80746464238E-01 -0.80325398593E-01  0.14679799237E+01  0.14723917545E+01  0.51100000000E-03 0.  1.
    9000002    1    1    2    0    0  0.22591511089E+00  0.25376886459E+00  0.77449601687E-01  0.10006391531E+01  0.93800000000E+00 0. -1.
         22    1    1    2    0    0 -0.14516864665E+00 -0.17344346600E+00  0.24545704420E+01  0.24649690924E+01  0.00000000000E+00 0.  1.
</event>
<event>
 5    1  0.3005426E+001  0.1595686E+01  0.7818608E-02  0.3358059E+00
         11   -1    0    0    0    0  0.00000000000E+00  0.00000000000E+00  0.39999999674E+01  0.40000000000E+01  0.51100000000E-03 0.  1.
    9000002   -1    0    0    0    0 -0.00000000000E+00 -0.00000000000E+00  0.00000000000E+00  0.93800000000E+00  0.93800000000E+00 0.  1.
         11    1    1    2    0    0 -0.87746232246E-01  0.11309612127E+00  0.14355122001E+01  0.14426315093E+01  0.51100000000E-03 0.  1.
    9000002    1    1    2    0    0  0.10867796957E+00 -0.45472193647E+00  0.15235569126E+00  0.10590746892E+01  0.93800000000E+00 0.  1.
         22    1    1    2    0    0 -0.20931737328E-01  0.34162581520E+00  0.24121320760E+01  0.24362938015E+01  0.00000000000E+00 0.  1.
</event>
<event>
 5    1  0.3005426E+001  0.1599470E+01  0.7818608E-02  0.3353939E+00
         11   -1    0    0    0    0  0.00000000000E+00  0.00000000000E+00  0.39999999674E+01  0.40000000000E+01  0.51100000000E-03 0. -1.
    9000002   -1    0    0    0    0 -0.00000000000E+00 -0.00000000000E+00  0.00000000000E+00  0.93800000000E+00  0.93800000000E+00 0.  1.
         11    1    1    2    0    0  0.25649142506E-01 -0.34565496425E-01  0.43253039735E+00  0.43466706547E+00  0.51100000000E-03 0. -1.
    9000002    1    1    2    0    0 -0.31328707686E+00  0.25849017667E+00  0.11153464719E+00  0.10282266003E+01  0.93800000000E+00 0.  1.
         22    1    1    2    0    0  0.28763793435E+00 -0.22392468025E+00  0.34559349228E+01  0.34751063343E+01  0.00000000000E+00 0. -1.
</event>
<event>
 5    1  0.3005426E+001  0.1599677E+01  0.7818608E-02  0.3353714E+00
         11   -1    0    0    0    0  0.00000000000E+00  0.00000000000E+00  0.39999999674E+01  0.40000000000E+01  0.51100000000E-03 0. -1.
    9000002   -1    0    0    0    0 -0.00000000000E+00 -0.00000000000E+00  0.00000000000E+00  0.93800000000E+00  0.93800000000E+00 0. -1.
         11    1    1    2    0    0 -0.20839421778E-01 -0.99591022504E-01  0.10401191877E+01  0.10450841301E+01  0.51100000000E-03 0.  1.
    9000002    1    1    2    0    0  0.78257096346E-01  0.37243386815E+00  0.97455036798E-01  0.10169427926E+01  0.93800000000E+00 0. -1.
         22    1    1    2    0    0 -0.57417674568E-01 -0.27284284564E+00  0.28624257429E+01  0.28759730773E+01  0.00000000000E+00 0. -1.
</event>
<event>
 5    1  0.3005426E+001  0.1586988E+01  0.7818608E-02  0.3367608E+00
         11   -1    0    0    0    0  0.00000000000E+00  0.00000000000E+00  0.39999999674E+01  0.40000000000E+01  0.51100000000E-03 0.  1.
    9000002   -1    0    0    0    0 -0.00000000000E+00 -0.00000000000E+00  0.00000000000E+00  0.93800000000E+00  0.93800000000E+00 0.  1.
         11    1    1    2    0    0 -0.18344739645E-02 -0.31025408225E-01  0.67341355149E-01  0.74169134311E-01  0.51100000000E-03 0.  1.
    9000002    1    1    2    0    0  0.18509665956E+00 -0.27731776452E+00  0.84591545665E-01  0.99908240175E+00  0.93800000000E+00 0.  1.
         22    1    1    2    0    0 -0.18326218559E+00  0.30834317274E+00  0.38480670665E+01  0.38647484639E+01  0.00000000000E+00 0.  1.
</event>
<event>
 5    1  0.3005426E+001  0.1599676E+01  0.7818608E-02  0.3353715E+00
         11   -1    0    0    0    0  0.00000000000E+00  0.00000000000E+00  0.39999999674E+01  0.40000000000E+01  0.51100000000E-03 0.  1.
    9000002   -1    0    0    0    0 -0.00000000000E+00 -0.00000000000E+00  0.00000000000E+00  0.93800000000E+00  0.93800000000E+00 0. -1.
         11    1    1    2    0    0  0.11040302908E+00  0.13269995240E+00  0.13681460917E+01  0.13789931456E+01  0.51100000000E-03 0.  1.
    9000002    1    1    2    0    0 -0.31193654044E+00 -0.36931750922E+00  0.15954648759E+00  0.10672389187E+01  0.93800000000E+00 0. -1.
         22    1    1    2    0    0  0.20153351136E+00  0.23661755681E+00  0.24723073881E+01  0.24917679357E+01  0.00000000000E+00 0.  1.
</event>
<event>
 5    1  0.3005426E+001  0.1599595E+01  0.7818608E-02  0.3353803E+00
         11   -1    0    0    0    0  0.00000000000E+00  0.00000000000E+00  0.39999999674E+01  0.40000000000E+01  0.51100000000E-03 0.  1.
    9000002   -1    0    0    0    0 -0.00000000000E+00 -0.00000000000E+00  0.00000000000E+00  0.93800000000E+00  0.93800000000E+00 0.  1.
         11    1    1    2    0    0 -0.40738159662E-01 -0.24305423040E+00  0.11418688513E+01  0.11681608157E+01  0.51100000000E-03 0.  1.
    9000002    1    1    2    0    0  0.98707496382E-01  0.74976565544E+00  0.41546819550E+00  0.12744997173E+01  0.93800000000E+00 0.  1.
         22    1    1    2    0    0 -0.57969336719E-01 -0.50671142504E+00  0.24426629205E+01  0.24953394670E+01  0.00000000000E+00 0.  1.
</event>
<event>
 5    1  0.3005426E+001  0.1599676E+01  0.7818608E-02  0.3353715E+00
         11   -1    0    0    0    0  0.00000000000E+00  0.00000000000E+00  0.39999999674E+01  0.40000000000E+01  0.51100000000E-03 0. -1.
    9000002   -1    0    0    0    0 -0.00000000000E+00 -0.00000000000E+00  0.00000000000E+00  0.93800000000E+00  0.93800000000E+00 0.  1.
         11    1    1    2    0    0 -0.10338233260E+00 -0.45006596184E-01  0.10305874992E+01  0.10367373607E+01  0.51100000000E-03 0. -1.
    9000002    1    1    2    0    0  0.39114928700E+00  0.16703067169E+00  0.12243113820E+00  0.10371742349E+01  0.93800000000E+00 0.  1.
         22    1    1    2    0    0 -0.28776695439E+00 -0.12202407551E+00  0.28469813300E+01  0.28640884044E+01  0.00000000000E+00 0. -1.
</event>
<event>
 5    1  0.3005426E+001  0.1599673E+01  0.7818608E-02  0.3353718E+00
         11   -1    0    0    0    0  0.00000000000E+00  0.00000000000E+00  0.39999999674E+01  0.40000000000E+01  0.51100000000E-03 0. -1.
    9000002   -1    0    0    0    0 -0.00000000000E+00 -0.00000000000E+00  0.00000000000E+00  0.93800000000E+00  0.93800000000E+00 0. -1.
         11    1    1    2    0    0 -0.67027864009E-02  0.87425563958E-02  0.68990792722E-01  0.69866660427E-01  0.51100000000E-03 0. -1.
    9000002    1    1    2    0    0  0.36098393510E+00 -0.45773830651E+00  0.23625974452E+00  0.11293787786E+01  0.93800000000E+00 0. -1.
         22    1    1    2    0    0 -0.35428114870E+00  0.44899575011E+00  0.36947494301E+01  0.37387545610E+01  0.00000000000E+00 0. -1.
</event>
<event>
 5    1  0.3005426E+001  0.1574106E+01  0.7818608E-02  0.3381956E+00
         11   -1    0    0    0    0  0.00000000000E+00  0.00000000000E+00  0.39999999674E+01  0.40000000000E+01  0.51100000000E-03 0.  1.
    9000002   -1    0    0    0    0 -0.00000000000E+00 -0.00000000000E+00  0.00000000000E+00  0.93800000000E+00  0.93800000000E+00 0.  1.
         11    1    1    2    0    0 -0.67462579710E-01  0.14121048909E+00  0.35143798522E+00  0.38470835768E+00  0.51100000000E-03 0.  1.
    9000002    1    1    2    0    0  0.65046662063E-01 -0.47944204626E+00  0.18290103738E+00  0.10711641020E+01  0.93800000000E+00 0.  1.
         22    1    1    2    0    0  0.24159176460E-02  0.33823155717E+00  0.34656609448E+01  0.34821275403E+01  0.00000000000E+00 0.  1.
</event>
<event>
 5    1  0.3005426E+001  0.1596174E+01  0.7818608E-02  0.3357527E+00
         11   -1    0    0    0    0  0.00000000000E+00  0.00000000000E+00  0.39999999674E+01  0.40000000000E+01  0.51100000000E-03 0. -1.
    9000002   -1    0    0    0    0 -0.00000000000E+00 -0.00000000000E+00  0.00000000000E+00  0.93800000000E+00  0.93800000000E+00 0.  1.
         11    1    1    2    0    0 -0.71232919111E-01 -0.83706922474E-01  0.13018173764E+01  0.13064492796E+01  0.51100000000E-03 0. -1.
    9000002    1    1    2    0    0  0.35492385758E+00  0.10737828767E+00  0.95278356020E-01  0.10131253656E+01  0.93800000000E+00 0.  1.
         22    1    1    2    0    0 -0.28369093847E+00 -0.23671365192E-01  0.26029042350E+01  0.26184253548E+01  0.00000000000E+00 0. -1.
</event>
<event>
 5    1  0.3005426E+001  0.1594684E+01  0.7818608E-02  0.3359154E+00
         11   -1    0    0    0    0  0.00000000000E+00  0.00000000000E+00  0.39999999674E+01  0.40000000000E+01  0.51100000000E-03 0.  1.
    9000002   -1    0    0    0    0 -0.00000000000E+00 -0.00000000000E+00  0.00000000000E+00  0.93800000000E+00  0.93800000000E+00 0.  1.
         11    1    1    2    0    0  0.12593717159E-01  0.81679789617E-02  0.41895478188E-01  0.44506289509E-01  0.51100000000E-03 0.  1.
    9000002    1    1    2    0    0  0.35080239438E+00 -0.13630544031E+00  0.99359860989E-01  0.10155579131E+01  0.93800000000E+00 0.  1.
         22    1    1    2    0    0 -0.36339611153E+00  0.12813746135E+00  0.38587446282E+01  0.38779357974E+01  0.00000000000E+00 0.  1.
</event>
<event>
 5    1  0.3005426E+001  0.1599676E+01  0.7818608E-02  0.3353715E+00
         11   -1    0    0    0    0  0.00000000000E+00  0.00000000000E+00  0.39999999674E+01  0.40000000000E+01  0.51100000000E-03 0.  1.
    9000002   -1    0    0    0    0 -0.00000000000E+00 -0.00000000000E+00  0.00000000000E+00  0.93800000000E+00  0.93800000000E+00 0.  1.
         11    1    1    2    0    0 -0.29879265905E-01 -0.11992524397E-01  0.35016767643E+00  0.35164506809E+00  0.51100000000E-03 0. -1.
    9000002    1    1    2    0    0  0.33883379234E+00  0.13222104680E+00  0.88840281046E-01  0.10099640289E+01  0.93800000000E+00 0.  1.
         22    1    1    2    0    0 -0.30895452644E+00 -0.12022852240E+00  0.35609920099E+01  0.35763909031E+01  0.00000000000E+00 0.  1.
</event>
<event>
 5    1  0.3005426E+001  0.1599670E+01  0.7818608E-02  0.3353722E+00
         11   -1    0    0    0    0  0.00000000000E+00  0.00000000000E+00  0.39999999674E+01  0.40000000000E+01  0.51100000000E-03 0. -1.
    9000002   -1    0    0    0    0 -0.00000000000E+00 -0.00000000000E+00  0.00000000000E+00  0.93800000000E+00  0.93800000000E+00 0.  1.
         11    1    1    2    0    0 -0.16589871897E-01 -0.96575391504E-02  0.17513314311E+00  0.17618277683E+00  0.51100000000E-03 0. -1.
    9000002    1    1    2    0    0  0.37003444655E+00  0.24104757060E+00  0.13230538865E+00  0.10451689523E+01  0.93800000000E+00 0.  1.
         22    1    1    2    0    0 -0.35344457465E+00 -0.23139003145E+00  0.36925614356E+01  0.37166482709E+01  0.00000000000E+00 0. -1.
</event>
<event>
 5    1  0.3005426E+001  0.1489597E+01  0.7818608E-02  0.3482659E+00
         11   -1    0    0    0    0  0.00000000000E+00  0.00000000000E+00  0.39999999674E+01  0.40000000000E+01  0.51100000000E-03 0.  1.
    9000002   -1    0    0    0    0 -0.00000000000E+00 -0.00000000000E+00  0.00000000000E+00  0.93800000000E+00  0.93800000000E+00 0.  1.
         11    1    1    2    0    0 -0.55438845430E-01  0.40386938459E+00  0.12340789091E+01  0.12996672498E+01  0.51100000000E-03 0.  1.
    9000002    1    1    2    0    0  0.61866175531E-01 -0.10221968888E+00  0.94905466231E-01  0.95033011948E+00  0.93800000000E+00 0.  1.
         22    1    1    2    0    0 -0.64273301012E-02 -0.30164969571E+00  0.26710155921E+01  0.26880026307E+01  0.00000000000E+00 0.  1.
</event>
<event>
 5    1  0.3005426E+001  0.1571490E+01  0.7818608E-02  0.3384901E+00
         11   -1    0    0    0    0  0.00000000000E+00  0.00000000000E+00  0.39999999674E+01  0.40000000000E+01  0.51100000000E-03 0.  1.
    9000002   -1    0    0    0    0 -0.00000000000E+00 -0.00000000000E+00  0.00000000000E+00  0.93800000000E+00  0.93800000000E+00 0.  1.
         11    1    1    2    0    0 -0.15891177919E+00  0.36908275527E-01  0.32589467836E+00  0.36444859291E+00  0.51100000000E-03 0.  1.
    9000002    1    1    2    0    0  0.50678715698E+00 -0.12587405480E+00  0.21376495392E+00  0.10946309678E+01  0.93800000000E+00 0.  1.
         22    1    1    2    0    0 -0.34787537779E+00  0.88965779273E-01  0.34603403351E+01  0.34789204393E+01  0.00000000000E+00 0.  1.
</event>
<event>
 5    1  0.3005426E+001  0.1599493E+01  0.7818608E-02  0.3353914E+00
         11   -1    0    0    0    0  0.00000000000E+00  0.00000000000E+00  0.39999999674E+01  0.40000000000E+01  0.51100000000E-03 0.  1.
    9000002   -1    0    0    0    0 -0.00000000000E+00 -0.00000000000E+00  0.00000000000E+00  0.93800000000E+00  0.93800000000E+00 0. -1.
         11    1    1    2    0    0  0.36936314751E-01 -0.17658693139E+00  0.10880484632E+01  0.11029038739E+01  0.51100000000E-03 0.  1.
    9000002    1    1    2    0    0 -0.17386425694E+00  0.61884962493E+00  0.29127001727E+00  0.11738338303E+01  0.93800000000E+00 0. -1.
         22    1    1    2    0    0  0.13692794219E+00 -0.44226269354E+00  0.26206814869E+01  0.26612622958E+01  0.00000000000E+00 0.  1.
</event>
<event>
 5    1  0.3005426E+001  0.1583201E+01  0.7818608E-02  0.3371801E+00
         11   -1    0    0    0    0  0.00000000000E+00  0.00000000000E+00  0.39999999674E+01  0.40000000000E+01  0.51100000000E-03 0. -1.
    9000002   -1    0    0    0    0 -0.00000000000E+00 -0.00000000000E+00  0.00000000000E+00  0.93800000000E+00  0.93800000000E+00 0. -1.
         11    1    1    2    0    0  0.15542591160E-01 -0.20464221725E-01  0.31408249259E-01  0.40584427473E-01  0.51100000000E-03 0. -1.
    9000002    1    1    2    0    0 -0.13322514467E+00 -0.64277332171E+00  0.32223527120E+00  0.11893637174E+01  0.93800000000E+00 0. -1.
         22    1    1    2    0    0  0.11768255351E+00  0.66323754343E+00  0.36463564469E+01  0.37080518551E+01  0.00000000000E+00 0. -1.
</event>
<event>
 5    1  0.3005426E+001  0.1597991E+01  0.7818608E-02  0.3355547E+00
         11   -1    0    0    0    0  0.00000000000E+00  0.00000000000E+00  0.39999999674E+01  0.40000000000E+01  0.51100000000E-03 0.  1.
    9000002   -1    0    0    0    0 -0.00000000000E+00 -0.00000000000E+00  0.00000000000E+00  0.93800000000E+00  0.93800000000E+00 0. -1.
         11    1    1    2    0    0 -0.20555690631E-01 -0.43117773934E-01  0.31396764179E+00  0.31758088743E+00  0.51100000000E-03 0.  1.
    9000002    1    1    2    0    0  0.35046033486E+00  0.21368577665E+00  0.11521593983E+00  0.10303410941E+01  0.93800000000E+00 0. -1.
         22    1    1    2    0    0 -0.32990464423E+00 -0.17056800272E+00  0.35708163857E+01  0.35900780184E+01  0.00000000000E+00 0.  1.
</event>
<event>
 5    1  0.3005426E+001  0.1599676E+01  0.7818608E-02  0.3353715E+00
         11   -1    0    0    0    0  0.00000000000E+00  0.00000000000E+00  0.39999999674E+01  0.40000000000E+01  0.51100000000E-03 0. -1.
    9000002   -1    0    0    0    0 -0.00000000000E+00 -0.00000000000E+00  0.00000000000E+00  0.93800000000E+00  0.93800000000E+00 0. -1.
         11    1    1    2    0    0  0.10704632981E+00  0.28760958947E-01  0.10966880153E+01  0.11022753619E+01  0.51100000000E-03 0. -1.
    9000002    1    1    2    0    0 -0.37889500700E+00 -0.99199447139E-01  0.10336403119E+00  0.10217289658E+01  0.93800000000E+00 0. -1.
         22    1    1    2    0    0  0.27184867719E+00  0.70438488192E-01  0.27999479209E+01  0.28139956723E+01  0.00000000000E+00 0.  1.
</event>
<event>
 5    1  0.3005426E+001  0.1494650E+01  0.7818608E-02  0.3476294E+00
         11   -1    0    0    0    0  0.00000000000E+00  0.00000000000E+00  0.39999999674E+01  0.40000000000E+01  0.51100000000E-03 0. -1.
    9000002   -1    0    0    0    0 -0.00000000000E+00 -0.00000000000E+00  0.00000000000E+00  0.93800000000E+00  0.93800000000E+00 0. -1.
         11    1    1    2    0    0  0.77643453084E-01 -0.11889600648E-01 -0.15785396354E-01  0.80120585803E-01  0.51100000000E-03 0. -1.
    9000002    1    1    2    0    0 -0.64409549068E+00  0.71038484756E-01  0.41642347327E+00  0.12137371942E+01  0.93800000000E+00 0. -1.
         22    1    1    2    0    0  0.56645203760E+00 -0.59148884108E-01  0.35993618904E+01  0.36441422200E+01  0.00000000000E+00 0. -1.
</event>
<event>
 5    1  0.3005426E+001  0.1482579E+01  0.7818608E-02  0.3491577E+00
         11   -1    0    0    0    0  0.00000000000E+00  0.00000000000E+00  0.39999999674E+01  0.40000000000E+01  0.51100000000E-03 0. -1.
    9000002   -1    0    0    0    0 -0.00000000000E+00 -0.00000000000E+00  0.00000000000E+00  0.93800000000E+00  0.93800000000E+00 0.  1.
         11    1    1    2    0    0  0.19279360443E+00 -0.10174132464E+00  0.12537775279E+00  0.25147666505E+00  0.51100000000E-03 0. -1.
    9000002    1    1    2    0    0  0.19042522230E+00  0.12570876268E+00  0.19240571139E+00  0.98434161554E+00  0.93800000000E+00 0.  1.
         22    1    1    2    0    0 -0.38321882674E+00 -0.23967438039E-01  0.36822165032E+01  0.37021817194E+01  0.00000000000E+00 0. -1.
</event>
<event>
 5    1  0.3005426E+001  0.1596043E+01  0.7818608E-02  0.3357669E+00
         11   -1    0    0    0    0  0.00000000000E+00  0.00000000000E+00  0.39999999674E+01  0.40000000000E+01  0.51100000000E-03 0. -1.
    9000002   -1    0    0    0    0 -0.00000000000E+00 -0.00000000000E+00  0.00000000000E+00  0.93800000000E+00  0.93800000000E+00 0. -1.
         11    1    1    2    0    0  0.28052337344E-01 -0.17202521576E-01  0.55430647122E+00  0.55528261772E+00  0.51100000000E-03 0. -1.
    9000002    1    1    2    0    0 -0.43507103671E+00 -0.14153415649E+00  0.14548902322E+00  0.10537218705E+01  0.93800000000E+00 0. -1.
         22    1    1    2    0    0  0.40701869937E+00  0.15873667806E+00  0.33002044729E+01  0.33289955118E+01  0.00000000000E+00 0. -1.
</event>
<event>
 5    1  0.3005426E+001  0.1598885E+01  0.7818608E-02  0.3354575E+00
         11   -1    0    0    0    0  0.00000000000E+00  0.00000000000E+00  0.39999999674E+01  0.40000000000E+01  0.51100000000E-03 0. -1.
    9000002   -1    0    0    0    0 -0.00000000000E+00 -0.00000000000E+00  0.00000000000E+00  0.93800000000E+00  0.93800000000E+00 0. -1.
         11    1    1    2    0    0 -0.94316737207E-01  0.45116750000E-01  0.11729236385E+01  0.11775743250E+01  0.51100000000E-03 0. -1.
    9000002    1    1    2    0    0  0.31708088018E+00 -0.25273494268E+00  0.11164221048E+00  0.10279704368E+01  0.93800000000E+00 0. -1.
         22    1    1    2    0    0 -0.22276414297E+00  0.20761819268E+00  0.27154341184E+01  0.27324552382E+01  0.00000000000E+00 0. -1.
</event>
<event>
 5    1  0.3005426E+001  0.1563021E+01  0.7818608E-02  0.3394503E+00
         11   -1    0    0    0    0  0.00000000000E+00  0.00000000000E+00  0.39999999674E+01  0.40000000000E+01  0.51100000000E-03 0. -1.
    9000002   -1    0    0    0    0 -0.00000000000E+00 -0.00000000000E+00  0.00000000000E+00  0.93800000000E+00  0.93800000000E+00 0. -1.
         11    1    1    2    0    0 -0.76097078924E-01  0.11847589322E+00  0.79955106323E+00  0.81185557000E+00  0.51100000000E-03 0. -1.
    9000002    1    1    2    0    0 -0.67975732426E-01  0.21517549627E+00  0.62030733625E-01  0.96675384991E+00  0.93800000000E+00 0. -1.
         22    1    1    2    0    0  0.14407281135E+00 -0.33365138949E+00  0.31384181705E+01  0.31593905801E+01  0.00000000000E+00 0. -1.
</event>
<event>
 5    1  0.3005426E+001  0.1599669E+01  0.7818608E-02  0.3353723E+00
         11   -1    0    0    0    0  0.00000000000E+00  0.00000000000E+00  0.39999999674E+01  0.40000000000E+01  0.51100000000E-03 0.  1.
    9000002   -1    0    0    0    0 -0.00000000000E+00 -0.00000000000E+00  0.00000000000E+00  0.93800000000E+00  0.93800000000E+00 0.  1.
         11    1    1    2    0    0 -0.68217780473E-02 -0.42447362788E-01  0.36231551787E+00  0.36485765838E+00  0.51100000000E-03 0.  1.
    9000002    1    1    2    0    0  0.55273499687E-01  0.46235205642E+00  0.14761804129E+00  0.10575725365E+01  0.93800000000E+00 0.  1.
         22    1    1    2    0    0 -0.48451721639E-01 -0.41990469364E+00  0.34900664082E+01  0.35155698051E+01  0.00000000000E+00 0.  1.
</event>
<event>
 5    1  0.3005426E+001  0.1599598E+01  0.7818608E-02  0.3353800E+00
         11   -1    0    0    0    0  0.00000000000E+00  0.00000000000E+00  0.39999999674E+01  0.40000000000E+01  0.51100000000E-03 0. -1.
    9000002   -1    0    0    0    0 -0.00000000000E+00 -0.00000000000E+00  0.00000000000E+00  0.93800000000E+00  0.93800000000E+00 0. -1.
         11    1    1    2    0    0 -0.57738050252E-01 -0.57986134014E-01  0.80698065305E+00  0.81111904779E+00  0.51100000000E-03 0. -1.
    9000002    1    1    2    0    0  0.24264634592E+00  0.30092598781E+00  0.10069081745E+00  0.10195176997E+01  0.93800000000E+00 0. -1.
         22    1    1    2    0    0 -0.18490829567E+00 -0.24293985380E+00  0.30923284969E+01  0.31073632525E+01  0.00000000000E+00 0. -1.
</event>
<event>
 5    1  0.3005426E+001  0.1596922E+01  0.7818608E-02  0.3356711E+00
         11   -1    0    0    0    0  0.00000000000E+00  0.00000000000E+00  0.39999999674E+01  0.40000000000E+01  0.51100000000E-03 0.  1.
    9000002   -1    0    0    0    0 -0.00000000000E+00 -0.00000000000E+00  0.00000000000E+00  0.93800000000E+00  0.93800000000E+00 0.  1.
         11    1    1    2    0    0 -0.39487387081E-01  0.28254578233E-01  0.76312914240E+00  0.76467242924E+00  0.51100000000E-03 0.  1.
    9000002    1    1    2    0    0  0.33939585142E+00  0.72541360838E-01  0.82955780983E-01  0.10035823108E+01  0.93800000000E+00 0.  1.
         22    1    1    2    0    0 -0.29990846434E+00 -0.10079593907E+00  0.31539150440E+01  0.31697452599E+01  0.00000000000E+00 0.  1.
</event>
<event>
 5    1  0.3005426E+001  0.1518340E+01  0.7818608E-02  0.3447060E+00
         11   -1    0    0    0    0  0.00000000000E+00  0.00000000000E+00  0.39999999674E+01  0.40000000000E+01  0.51100000000E-03 0. -1.
    9000002   -1    0    0    0    0 -0.00000000000E+00 -0.00000000000E+00  0.00000000000E+00  0.93800000000E+00  0.93800000000E+00 0.  1.
         11    1    1    2    0    0  0.24346611442E+00  0.91020329801E-01  0.74015521384E+00  0.78446826004E+00  0.51100000000E-03 0. -1.
    9000002    1    1    2    0    0 -0.19583446889E-02  0.14607142046E+00  0.76650561547E-01  0.95239697793E+00  0.93800000000E+00 0.  1.
         22    1    1    2    0    0 -0.24150776973E+00 -0.23709175026E+00  0.31831941920E+01  0.32011347620E+01  0.00000000000E+00 0. -1.
</event>
<event>
 5    1  0.3005426E+001  0.1599674E+01  0.7818608E-02  0.3353717E+00
         11   -1    0    0    0    0  0.00000000000E+00  0.00000000000E+00  0.39999999674E+01  0.40000000000E+01  0.51100000000E-03 0.  1.
    9000002   -1    0    0    0    0 -0.00000000000E+00 -0.00000000000E+00  0.00000000000E+00  0.93800000000E+00  0.93800000000E+00 0.  1.
         11    1    1    2    0    0 -0.70672069353E-01  0.43473428407E-01  0.88657483935E+00  0.89044914917E+00  0.51100000000E-03 0.  1.
    9000002    1    1    2    0    0  0.30657513316E+00 -0.19637554726E+00  0.89020508560E-01  0.10101090628E+01  0.93800000000E+00 0.  1.
         22    1    1    2    0    0 -0.23590306380E+00  0.15290211885E+00  0.30244046195E+01  0.30374417880E+01  0.00000000000E+00 0.  1.
</event>
<event>
 5    1  0.3005426E+001  0.1496828E+01  0.7818608E-02  0.3473564E+00
         11   -1    0    0    0    0  0.00000000000E+00  0.00000000000E+00  0.39999999674E+01  0.40000000000E+01  0.51100000000E-03 0. -1.
    9000002   -1    0    0    0    0 -0.00000000000E+00 -0.00000000000E+00  0.00000000000E+00  0.93800000000E+00  0.93800000000E+00 0.  1.
         11    1    1    2    0    0  0.75924411667E-01 -0.23920216647E+00  0.17070134592E+00  0.30351507928E+00  0.51100000000E-03 0. -1.
    9000002    1    1    2    0    0  0.15660724068E-01 -0.11229993555E+00  0.17342774440E+00  0.96061319808E+00  0.93800000000E+00 0.  1.
         22    1    1    2    0    0 -0.91585135736E-01  0.35150210202E+00  0.36558708770E+01  0.36738717226E+01  0.00000000000E+00 0. -1.
</event>
<event>
 5    1  0.4727099E+001  0.1518071E+01  0.7818608E-02  0.3447387E+00
         11   -1    0    0    0    0  0.00000000000E+00  0.00000000000E+00  0.39999999674E+01  0.40000000000E+01  0.51100000000E-03 0.  1.
    9000002   -1    0    0    0    0 -0.00000000000E+00 -0.00000000000E+00  0.00000000000E+00  0.93800000000E+00  0.93800000000E+00 0.  1.
         11    1    1    2    0    0  0.11432948801E+00  0.22331326708E+00  0.64263765840E+00  0.68987206655E+00  0.51100000000E-03 0.  1.
    9000002    1    1    2    0    0 -0.66600148808E-01  0.72601592641E-01  0.68509789900E-01  0.94564483945E+00  0.93800000000E+00 0.  1.
         22    1    1    2    0    0 -0.47729339206E-01 -0.29591485972E+00  0.32888525191E+01  0.33024830940E+01  0.00000000000E+00 0.  1.
</event>
<event>
 5    1  0.3005426E+001  0.1599415E+01  0.7818608E-02  0.3353999E+00
         11   -1    0    0    0    0  0.00000000000E+00  0.00000000000E+00  0.39999999674E+01  0.40000000000E+01  0.51100000000E-03 0. -1.
    9000002   -1    0    0    0    0 -0.00000000000E+00 -0.00000000000E+00  0.00000000000E+00  0.93800000000E+00  0.93800000000E+00 0. -1.
         11    1    1    2    0    0 -0.80456575451E-01  0.12641363889E+00  0.99607194964E+00  0.10072801292E+01  0.51100000000E-03 0. -1.
    9000002    1    1    2    0    0  0.25554031364E+00 -0.52111355565E+00  0.23432201487E+00  0.11276573045E+01  0.93800000000E+00 0. -1.
         22    1    1    2    0    0 -0.17508373819E+00  0.39469991677E+00  0.27696060028E+01  0.28030625663E+01  0.00000000000E+00 0. -1.
</event>
<event>
 5    1  0.3005426E+001  0.1599673E+01  0.7818608E-02  0.3353718E+00
         11   -1    0    0    0    0  0.00000000000E+00  0.00000000000E+00  0.39999999674E+01  0.40000000000E+01  0.51100000000E-03 0. -1.
    9000002   -1    0    0    0    0 -0.00000000000E+00 -0.00000000000E+00  0.00000000000E+00  0.93800000000E+00  0.93800000000E+00 0. -1.
         11    1    1    2    0    0  0.14540248357E+00 -0.28991087281E+00  0.13112190485E+01  0.13507353000E+01  0.51100000000E-03 0. -1.
    9000002    1    1    2    0    0 -0.38223605835E+00  0.75862285808E+00  0.54110824564E+00  0.13763194319E+01  0.93800000000E+00 0. -1.
         22    1    1    2    0    0  0.23683357477E+00 -0.46871198527E+00  0.21476726732E+01  0.22109452681E+01  0.00000000000E+00 0. -1.
</event>
<event>
 5    1  0.3005426E+001  0.1599677E+01  0.7818608E-02  0.3353714E+00
         11   -1    0    0    0    0  0.00000000000E+00  0.00000000000E+00  0.39999999674E+01  0.40000000000E+01  0.51100000000E-03 0.  1.
    9000002   -1    0    0    0    0 -0.00000000000E+00 -0.00000000000E+00  0.00000000000E+00  0.93800000000E+00  0.93800000000E+00 0. -1.
         11    1    1    2    0    0  0.17099633473E-01  0.87747313807E-01  0.96056976138E+00  0.96472095247E+00  0.51100000000E-03 0.  1.
    9000002    1    1    2    0    0 -0.69190270663E-01 -0.35531181686E+00  0.87978208741E-01  0.10092660432E+01  0.93800000000E+00 0. -1.
         22    1    1    2    0    0  0.52090637190E-01  0.26756450305E+00  0.29514519972E+01  0.29640130043E+01  0.00000000000E+00 0.  1.
</event>
<event>
 5    1  0.3005426E+001  0.1594724E+01  0.7818608E-02  0.3359109E+00
         11   -1    0    0    0    0  0.00000000000E+00  0.00000000000E+00  0.39999999674E+01  0.40000000000E+01  0.51100000000E-03 0.  1.
    9000002   -1    0    0    0    0 -0.00000000000E+00 -0.00000000000E+00  0.00000000000E+00  0.93800000000E+00  0.93800000000E+00 0. -1.
         11    1    1    2    0    0 -0.15532417756E-01  0.39801424444E-01  0.84628130621E+00  0.84735926250E+00  0.51100000000E-03 0.  1.
    9000002    1    1    2    0    0  0.29025059285E+00  0.54286905806E-01  0.62018780710E-01  0.98533385406E+00  0.93800000000E+00 0. -1.
         22    1    1    2    0    0 -0.27471817509E+00 -0.94088330250E-01  0.30916998804E+01  0.31053068834E+01  0.00000000000E+00 0.  1.
</event>
<event>
 5    1  0.3005426E+001  0.1548266E+01  0.7818608E-02  0.3411501E+00
         11   -1    0    0    0    0  0.00000000000E+00  0.00000000000E+00  0.39999999674E+01  0.40000000000E+01  0.51100000000E-03 0. -1.
    9000002   -1    0    0    0    0 -0.00000000000E+00 -0.00000000000E+00  0.00000000000E+00  0.93800000000E+00  0.93800000000E+00 0. -1.
         11    1    1    2    0    0 -0.46045372355E-01  0.11741230227E+00  0.61533884676E+00  0.62813054574E+00  0.51100000000E-03 0. -1.
    9000002    1    1    2    0    0 -0.59564787482E+00  0.14890623969E+00  0.31773409684E+00  0.11652332021E+01  0.93800000000E+00 0. -1.
         22    1    1    2    0    0  0.64169324718E+00 -0.26631854197E+00  0.30669270238E+01  0.31446362522E+01  0.00000000000E+00 0. -1.
</event>
<event>
 5    1  0.3005426E+001  0.1599541E+01  0.7818608E-02  0.3353862E+00
         11   -1    0    0    0    0  0.00000000000E+00  0.00000000000E+00  0.39999999674E+01  0.40000000000E+01  0.51100000000E-03 0.  1.
    9000002   -1    0    0    0    0 -0.00000000000E+00 -0.00000000000E+00  0.00000000000E+00  0.93800000000E+00  0.93800000000E+00 0.  1.
         11    1    1    2    0    0 -0.29904464447E-01  0.86905224770E-01  0.90223145892E+00  0.90690057982E+00  0.51100000000E-03 0.  1.
    9000002    1    1    2    0    0  0.85341377079E-01 -0.40111159238E+00  0.11369965327E+00  0.10300219761E+01  0.93800000000E+00 0.  1.
         22    1    1    2    0    0 -0.55436912632E-01  0.31420636761E+00  0.29840688552E+01  0.30010774440E+01  0.00000000000E+00 0.  1.
</event>
<event>
 5    1  0.3005426E+001  0.1598900E+01  0.7818608E-02  0.3354558E+00
         11   -1    0    0    0    0  0.00000000000E+00  0.00000000000E+00  0.39999999674E+01  0.40000000000E+01  0.51100000000E-03 0. -1.
    9000002   -1    0    0    0    0 -0.00000000000E+00 -0.00000000000E+00  0.00000000000E+00  0.93800000000E+00  0.93800000000E+00 0.  1.
         11    1    1    2    0    0 -0.21201813267E+00  0.17752890302E+00  0.11109001571E+01  0.11448002533E+01  0.51100000000E-03 0. -1.
    9000002    1    1    2    0    0  0.61621391761E+00 -0.48553213556E+00  0.45201259975E+00  0.13036949172E+01  0.93800000000E+00 0.  1.
         22    1    1    2    0    0 -0.40419578495E+00  0.30800323253E+00  0.24370872105E+01  0.24895048294E+01  0.00000000000E+00 0. -1.
</event>
<event>
 5    1  0.3005426E+001  0.1594914E+01  0.7818608E-02  0.3358903E+00
         11   -1    0    0    0    0  0.00000000000E+00  0.00000000000E+00  0.39999999674E+01  0.40000000000E+01  0.51100000000E-03 0.  1.
    9000002   -1    0    0    0    0 -0.00000000000E+00 -0.00000000000E+00  0.00000000000E+00  0.93800000000E+00  0.93800000000E+00 0. -1.
         11    1    1    2    0    0 -0.32404837775E-01 -0.23830217810E-02  0.11764575279E+00  0.12205136859E+00  0.51100000000E-03 0.  1.
    9000002    1    1    2    0    0  0.18784827811E+00  0.43504519353E+00  0.15727352897E+00  0.10626054107E+01  0.93800000000E+00 0. -1.
         22    1    1    2    0    0 -0.15544344033E+00 -0.43266217175E+00  0.37250806856E+01  0.37533432207E+01  0.00000000000E+00 0.  1.
</event>
<event>
 5    1  0.3005426E+001  0.1599672E+01  0.7818608E-02  0.3353720E+00
         11   -1    0    0    0    0  0.00000000000E+00  0.00000000000E+00  0.39999999674E+01  0.40000000000E+01  0.51100000000E-03 0. -1.
    9000002   -1    0    0    0    0 -0.00000000000E+00 -0.00000000000E+00  0.00000000000E+00  0.93800000000E+00  0.93800000000E+00 0.  1.
         11    1    1    2    0    0  0.20839317302E-01 -0.26659062426E-01  0.30709984689E+00  0.30895883195E+00  0.51100000000E-03 0. -1.
    9000002    1    1    2    0    0 -0.26429731765E+00  0.31929137976E+00  0.11610715518E+00  0.10320488985E+01  0.93800000000E+00 0.  1.
         22    1    1    2    0    0  0.24345800035E+00 -0.29263231733E+00  0.35767929653E+01  0.35969922696E+01  0.00000000000E+00 0. -1.
</event>
<event>
 5    1  0.3005426E+001  0.1599365E+01  0.7818608E-02  0.3354053E+00
         11   -1    0    0    0    0  0.00000000000E+00  0.00000000000E+00  0.39999999674E+01  0.40000000000E+01  0.51100000000E-03 0.  1.
    9000002   -1    0    0    0    0 -0.00000000000E+00 -0.00000000000E+00  0.00000000000E+00  0.93800000000E+00  0.93800000000E+00 0.  1.
         11    1    1    2    0    0 -0.11365297013E-01  0.88604351801E-04  0.22714935349E+00  0.22743409537E+00  0.51100000000E-03 0.  1.
    9000002    1    1    2    0    0  0.35007477577E+00  0.73213427859E-01  0.86092211744E-01  0.10075556677E+01  0.93800000000E+00 0.  1.
         22    1    1    2    0    0 -0.33870947875E+00 -0.73302032210E-01  0.36867584021E+01  0.37030102369E+01  0.00000000000E+00 0.  1.
</event>
<event>
 5    1  0.3005426E+001  0.1598770E+01  0.7818608E-02  0.3354699E+00
         11   -1    0    0    0    0  0.00000000000E+00  0.00000000000E+00  0.39999999674E+01  0.40000000000E+01  0.51100000000E-03 0. -1.
    9000002   -1    0    0    0    0 -0.00000000000E+00 -0.00000000000E+00  0.00000000000E+00  0.93800000000E+00  0.93800000000E+00 0. -1.
         11    1    1    2    0    0 -0.42073995599E-01 -0.61031481270E-01  0.70977175002E+00  0.71363244114E+00  0.51100000000E-03 0. -1.
    9000002    1    1    2    0    0  0.30450581764E+00  0.20059162784E+00  0.90036028165E-01  0.10104015442E+01  0.93800000000E+00 0. -1.
         22    1    1    2    0    0 -0.26243182205E+00 -0.13956014657E+00  0.32001921892E+01  0.32139660147E+01  0.00000000000E+00 0. -1.
</event>
<event>
 5    1  0.3005426E+001  0.1599509E+01  0.7818608E-02  0.3353897E+00
         11   -1    0    0    0    0  0.00000000000E+00  0.00000000000E+00  0.39999999674E+01  0.40000000000E+01  0.51100000000E-03 0.  1.
    9000002   -1    0    0    0    0 -0.00000000000E+00 -0.00000000000E+00  0.00000000000E+00  0.93800000000E+00  0.93800000000E+00 0.  1.
         11    1    1    2    0    0  0.10068247440E+00  0.13805834223E+00  0.14795757793E+01  0.14894098880E+01  0.51100000000E-03 0.  1.
    9000002    1    1    2    0    0 -0.25483422729E+00 -0.39803775685E+00  0.15238305126E+00  0.10613383690E+01  0.93800000000E+00 0.  1.
         22    1    1    2    0    0  0.15415175289E+00  0.25997941462E+00  0.23680411368E+01  0.23872517430E+01  0.00000000000E+00 0.  1.
</event>
<event>
 5    1  0.3005426E+001  0.1469862E+01  0.7818608E-02  0.3507973E+00
         11   -1    0    0    0    0  0.00000000000E+00  0.00000000000E+00  0.39999999674E+01  0.40000000000E+01  0.51100000000E-03 0. -1.
    9000002   -1    0    0    0    0 -0.00000000000E+00 -0.00000000000E+00  0.00000000000E+00  0.93800000000E+00  0.93800000000E+00 0.  1.
         11    1    1    2    0    0 -0.22741139175E+00 -0.42949007089E-01  0.30248409814E+00  0.38086408213E+00  0.51100000000E-03 0. -1.
    9000002    1    1    2    0    0 -0.15419376607E+00  0.22808888185E-01  0.11900663378E+00  0.95828103485E+00  0.93800000000E+00 0.  1.
         22    1    1    2    0    0  0.38160515783E+00  0.20140118904E-01  0.35785092354E+01  0.35988548830E+01  0.00000000000E+00 0. -1.
</event>
<event>
 5    1  0.3005426E+001  0.1597217E+01  0.7818608E-02  0.3356389E+00
         11   -1    0    0    0    0  0.00000000000E+00  0.00000000000E+00  0.39999999674E+01  0.40000000000E+01  0.51100000000E-03 0. -1.
    9000002   -1    0    0    0    0 -0.00000000000E+00 -0.00000000000E+00  0.00000000000E+00  0.93800000000E+00  0.93800000000E+00 0. -1.
         11    1    1    2    0    0  0.70713681603E-01  0.17159301705E+00  0.12953175489E+01  0.13085459113E+01  0.51100000000E-03 0. -1.
    9000002    1    1    2    0    0 -0.43732233874E-01 -0.53057988386E+00  0.19740911776E+00  0.10964679116E+01  0.93800000000E+00 0. -1.
         22    1    1    2    0    0 -0.26981447730E-01  0.35898686681E+00  0.25072733007E+01  0.25329861771E+01  0.00000000000E+00 0. -1.
</event>
<event>
 5    1  0.5834424E+001  0.1575591E+01  0.7818608E-02  0.3380290E+00
         11   -1    0    0    0    0  0.00000000000E+00  0.00000000000E+00  0.39999999674E+01  0.40000000000E+01  0.51100000000E-03 0. -1.
    9000002   -1    0    0    0    0 -0.00000000000E+00 -0.00000000000E+00  0.00000000000E+00  0.93800000000E+00  0.93800000000E+00 0. -1.
         11    1    1    2    0    0 -0.12581164637E+00  0.23129522416E-01  0.10263083638E+01  0.10342498073E+01  0.51100000000E-03 0. -1.
    9000002    1    1    2    0    0 -0.13713261922E+00  0.15728174103E-01  0.30511778937E-01  0.94859248330E+00  0.93800000000E+00 0. -1.
         22    1    1    2    0    0  0.26294426559E+00 -0.38857696520E-01  0.29431798246E+01  0.29551577094E+01  0.00000000000E+00 0. -1.
</event>
<event>
 5    1  0.3005426E+001  0.1599645E+01  0.7818608E-02  0.3353749E+00
         11   -1    0    0    0    0  0.00000000000E+00  0.00000000000E+00  0.39999999674E+01  0.40000000000E+01  0.51100000000E-03 0. -1.
    9000002   -1    0    0    0    0 -0.00000000000E+00 -0.00000000000E+00  0.00000000000E+00  0.93800000000E+00  0.93800000000E+00 0. -1.
         11    1    1    2    0    0  0.61859590984E-01 -0.10874273868E+00  0.11584004648E+01  0.11651366830E+01  0.51100000000E-03 0. -1.
    9000002    1    1    2    0    0 -0.19715384884E+00  0.34722890722E+00  0.10756090441E+00  0.10251101903E+01  0.93800000000E+00 0. -1.
         22    1    1    2    0    0  0.13529425786E+00 -0.23848616854E+00  0.27340385982E+01  0.27477531267E+01  0.00000000000E+00 0. -1.
</event>
<event>
 5    1  0.3005426E+001  0.1599611E+01  0.7818608E-02  0.3353786E+00
         11   -1    0    0    0    0  0.00000000000E+00  0.00000000000E+00  0.39999999674E+01  0.40000000000E+01  0.51100000000E-03 0.  1.
    9000002   -1    0    0    0    0 -0.00000000000E+00 -0.00000000000E+00  0.00000000000E+00  0.93800000000E+00  0.93800000000E+00 0.  1.
         11    1    1    2    0    0 -0.48065733225E-01  0.11232960011E-01  0.42138152886E+00  0.42426306472E+00  0.51100000000E-03 0.  1.
    9000002    1    1    2    0    0  0.39937553452E+00 -0.68671031413E-01  0.11089785979E+00  0.10277932007E+01  0.93800000000E+00 0.  1.
         22    1    1    2    0    0 -0.35130980130E+00  0.57438071401E-01  0.34677205787E+01  0.34859437346E+01  0.00000000000E+00 0.  1.
</event>
<event>
 5    1  0.3005426E+001  0.1599659E+01  0.7818608E-02  0.3353733E+00
         11   -1    0    0    0    0  0.00000000000E+00  0.00000000000E+00  0.39999999674E+01  0.40000000000E+01  0.51100000000E-03 0.  1.
    9000002   -1    0    0    0    0 -0.00000000000E+00 -0.00000000000E+00  0.00000000000E+00  0.93800000000E+00  0.93800000000E+00 0. -1.
         11    1    1    2    0    0  0.10621489568E-01  0.73868261985E-01  0.67822943683E+00  0.68232306591E+00  0.51100000000E-03 0.  1.
    9000002    1    1    2    0    0 -0.49423090033E-01 -0.44022687354E+00  0.13316369894E+00  0.10458579792E+01  0.93800000000E+00 0. -1.
         22    1    1    2    0    0  0.38801600465E-01  0.36635861156E+00  0.31886068316E+01  0.32098189549E+01  0.00000000000E+00 0.  1.
</event>
<event>
 5    1  0.3005426E+001  0.1553820E+01  0.7818608E-02  0.3405063E+00
         11   -1    0    0    0    0  0.00000000000E+00  0.00000000000E+00  0.39999999674E+01  0.40000000000E+01  0.51100000000E-03 0. -1.
    9000002   -1    0    0    0    0 -0.00000000000E+00 -0.00000000000E+00  0.00000000000E+00  0.93800000000E+00  0.93800000000E+00 0. -1.
         11    1    1    2    0    0  0.11167021621E+00  0.15617950301E+00  0.11759112258E+01  0.11914821637E+01  0.51100000000E-03 0. -1.
    9000002    1    1    2    0    0 -0.28611731809E-01  0.18732571410E+00  0.58818171928E-01  0.95875603347E+00  0.93800000000E+00 0. -1.
         22    1    1    2    0    0 -0.83058484398E-01 -0.34350521712E+00  0.27652705696E+01  0.27877618028E+01  0.00000000000E+00 0. -1.
</event>
<event>
 5    1  0.3005426E+001  0.1469797E+01  0.7818608E-02  0.3508058E+00
         11   -1    0    0    0    0  0.00000000000E+00  0.00000000000E+00  0.39999999674E+01  0.40000000000E+01  0.51100000000E-03 0. -1.
    9000002   -1    0    0    0    0 -0.00000000000E+00 -0.00000000000E+00  0.00000000000E+00  0.93800000000E+00  0.93800000000E+00 0.  1.
         11    1    1    2    0    0 -0.40877597920E+00  0.26076655331E+00  0.13669402193E+01  0.14503871279E+01  0.51100000000E-03 0. -1.
    9000002    1    1    2    0    0  0.13423269200E+00 -0.14740936764E+00  0.13085476215E+00  0.96784033086E+00  0.93800000000E+00 0.  1.
         22    1    1    2    0    0  0.27454328721E+00 -0.11335718567E+00  0.25022049859E+01  0.25197725413E+01  0.00000000000E+00 0. -1.
</event>
<event>
 5    1  0.3005426E+001  0.1599677E+01  0.7818608E-02  0.3353714E+00
         11   -1    0    0    0    0  0.00000000000E+00  0.00000000000E+00  0.39999999674E+01  0.40000000000E+01  0.51100000000E-03 0.  1.
    9000002   -1    0    0    0    0 -0.00000000000E+00 -0.00000000000E+00  0.00000000000E+00  0.93800000000E+00  0.93800000000E+00 0. -1.
         11    1    1    2    0    0 -0.54192002623E-01 -0.11945401109E+00  0.13685072102E+01  0.13747793566E+01  0.51100000000E-03 0.  1.
    9000002    1    1    2    0    0  0.15618535445E+00  0.34221605415E+00  0.95167214503E-01  0.10150894007E+01  0.93800000000E+00 0. -1.
         22    1    1    2    0    0 -0.10199335182E+00 -0.22276204306E+00  0.25363255427E+01  0.25481312427E+01  0.00000000000E+00 0.  1.
</event>
<event>
 5    1  0.3005426E+001  0.1599664E+01  0.7818608E-02  0.3353728E+00
         11   -1    0    0    0    0  0.00000000000E+00  0.00000000000E+00  0.39999999674E+01  0.40000000000E+01  0.51100000000E-03 0.  1.
    9000002   -1    0    0    0    0 -0.00000000000E+00 -0.00000000000E+00  0.00000000000E+00  0.93800000000E+00  0.93800000000E+00 0. -1.
         11    1    1    2    0    0 -0.10366080457E+00  0.81828607133E-01  0.12403224186E+01  0.12473337350E+01  0.51100000000E-03 0.  1.
    9000002    1    1    2    0    0  0.31375220873E+00 -0.26253484732E+00  0.11303563348E+00  0.10295562389E+01  0.93800000000E+00 0. -1.
         22    1    1    2    0    0 -0.21009140415E+00  0.18070624018E+00  0.26466419153E+01  0.26611100261E+01  0.00000000000E+00 0.  1.
</event>
<event>
 5    1  0.3005426E+001  0.1599623E+01  0.7818608E-02  0.3353773E+00
         11   -1    0    0    0    0  0.00000000000E+00  0.00000000000E+00  0.39999999674E+01  0.40000000000E+01  0.51100000000E-03 0.  1.
    9000002   -1    0    0    0    0 -0.00000000000E+00 -0.00000000000E+00  0.00000000000E+00  0.93800000000E+00  0.93800000000E+00 0.  1.
         11    1    1    2    0    0 -0.32987220518E-01  0.11459786181E+00  0.10921136814E+01  0.10986051980E+01  0.51100000000E-03 0.  1.
    9000002    1    1    2    0    0  0.13726255674E+00 -0.42498638068E+00  0.13544525620E+00  0.10476849959E+01  0.93800000000E+00 0.  1.
         22    1    1    2    0    0 -0.10427533623E+00  0.31038851888E+00  0.27724410297E+01  0.27917098061E+01  0.00000000000E+00 0.  1.
</event>
<event>
 5    1  0.3005426E+001  0.1599620E+01  0.7818608E-02  0.3353776E+00
         11   -1    0    0    0    0  0.00000000000E+00  0.00000000000E+00  0.39999999674E+01  0.40000000000E+01  0.51100000000E-03 0. -1.
    9000002   -1    0    0    0    0 -0.00000000000E+00 -0.00000000000E+00  0.00000000000E+00  0.93800000000E+00  0.93800000000E+00 0.  1.
         11    1    1    2    0    0  0.12079639075E+00 -0.43102715450E-01  0.11728811226E+01  0.11798728749E+01  0.51100000000E-03 0. -1.
    9000002    1    1    2    0    0 -0.42257061575E+00  0.12892067928E+00  0.13245798246E+00  0.10452634041E+01  0.93800000000E+00 0.  1.
         22    1    1    2    0    0  0.30177422500E+00 -0.85817963832E-01  0.26946608623E+01  0.27128637210E+01  0.00000000000E+00 0. -1.
</event>
<event>
 5    1  0.3005426E+001  0.1596508E+01  0.7818608E-02  0.3357162E+00
         11   -1    0    0    0    0  0.00000000000E+00  0.00000000000E+00  0.39999999674E+01  0.40000000000E+01  0.51100000000E-03 0. -1.
    9000002   -1    0    0    0    0 -0.00000000000E+00 -0.00000000000E+00  0.00000000000E+00  0.93800000000E+00  0.93800000000E+00 0. -1.
         11    1    1    2    0    0  0.73948137788E-01 -0.92756844562E-02  0.41381855318E+00  0.42047642203E+00  0.51100000000E-03 0. -1.
    9000002    1    1    2    0    0 -0.36619583824E+00 -0.12996809176E+00  0.10432031259E+00  0.10206457879E+01  0.93800000000E+00 0. -1.
         22    1    1    2    0    0  0.29224770046E+00  0.13924377622E+00  0.34818611016E+01  0.34968777900E+01  0.00000000000E+00 0. -1.
</event>
<event>
 5    1  0.3005426E+001  0.1599629E+01  0.7818608E-02  0.3353766E+00
         11   -1    0    0    0    0  0.00000000000E+00  0.00000000000E+00  0.39999999674E+01  0.40000000000E+01  0.51100000000E-03 0. -1.
    9000002   -1    0    0    0    0 -0.00000000000E+00 -0.00000000000E+00  0.00000000000E+00  0.93800000000E+00  0.93800000000E+00 0. -1.
         11    1    1    2    0    0 -0.49968650516E-02  0.16328346005E-02  0.34514896179E-01  0.34916672069E-01  0.51100000000E-03 0. -1.
    9000002    1    1    2    0    0  0.39932663692E+00 -0.13931762569E+00  0.12106037042E+00  0.10360360887E+01  0.93800000000E+00 0. -1.
         22    1    1    2    0    0 -0.39432977187E+00  0.13768479109E+00  0.38444247008E+01  0.38670472392E+01  0.00000000000E+00 0. -1.
</event>
<event>
 5    1  0.3005426E+001  0.1599519E+01  0.7818608E-02  0.3353885E+00
         11   -1    0    0    0    0  0.00000000000E+00  0.00000000000E+00  0.39999999674E+01  0.40000000000E+01  0.51100000000E-03 0. -1.
    9000002   -1    0    0    0    0 -0.00000000000E+00 -0.00000000000E+00  0.00000000000E+00  0.93800000000E+00  0.93800000000E+00 0. -1.
         11    1    1    2    0    0 -0.13859321298E-02 -0.41487132377E-04  0.40348229192E-02  0.42969112208E-02  0.51100000000E-03 0.  1.
    9000002    1    1    2    0    0  0.58553570990E+00 -0.40836069356E+00  0.36576896106E+00  0.12341966847E+01  0.93800000000E+00 0. -1.
         22    1    1    2    0    0 -0.58414977778E+00  0.40840218069E+00  0.36301961834E+01  0.36995064041E+01  0.00000000000E+00 0. -1.
</event>
<event>
 5    1  0.3005426E+001  0.1595510E+01  0.7818608E-02  0.3358251E+00
         11   -1    0    0    0    0  0.00000000000E+00  0.00000000000E+00  0.39999999674E+01  0.40000000000E+01  0.51100000000E-03 0. -1.
    9000002   -1    0    0    0    0 -0.00000000000E+00 -0.00000000000E+00  0.00000000000E+00  0.93800000000E+00  0.93800000000E+00 0.  1.
         11    1    1    2    0    0 -0.78851736262E-01  0.26705678202E+00  0.13360349837E+01  0.13647441738E+01  0.51100000000E-03 0. -1.
    9000002    1    1    2    0    0  0.44910660287E-01 -0.62841445934E+00  0.28307349249E+00  0.11648589195E+01  0.93800000000E+00 0.  1.
         22    1    1    2    0    0  0.33941075976E-01  0.36135767733E+00  0.23808914912E+01  0.24083969068E+01  0.00000000000E+00 0. -1.
</event>
<event>
 5    1  0.3005426E+001  0.1599672E+01  0.7818608E-02  0.3353720E+00
         11   -1    0    0    0    0  0.00000000000E+00  0.00000000000E+00  0.39999999674E+01  0.40000000000E+01  0.51100000000E-03 0.  1.
    9000002   -1    0    0    0    0 -0.00000000000E+00 -0.00000000000E+00  0.00000000000E+00  0.93800000000E+00  0.93800000000E+00 0. -1.
         11    1    1    2    0    0 -0.10451258665E+00  0.78131231423E-01  0.96994049883E+00  0.97867880455E+00  0.51100000000E-03 0. -1.
    9000002    1    1    2    0    0  0.41187675500E+00 -0.31657996878E+00  0.18536303443E+00  0.10881492510E+01  0.93800000000E+00 0. -1.
         22    1    1    2    0    0 -0.30736416835E+00  0.23844873735E+00  0.28446964341E+01  0.28711719444E+01  0.00000000000E+00 0.  1.
</event>
<event>
 5    1  0.3005426E+001  0.1588695E+01  0.7818608E-02  0.3365726E+00
         11   -1    0    0    0    0  0.00000000000E+00  0.00000000000E+00  0.39999999674E+01  0.40000000000E+01  0.51100000000E-03 0.  1.
    9000002   -1    0    0    0    0 -0.00000000000E+00 -0.00000000000E+00  0.00000000000E+00  0.93800000000E+00  0.93800000000E+00 0.  1.
         11    1    1    2    0    0 -0.75679164003E-01 -0.83082422043E-01  0.13975134431E+01  0.14020250031E+01  0.51100000000E-03 0.  1.
    9000002    1    1    2    0    0  0.10075522331E+00  0.53938250793E+00  0.21833589174E+00  0.11084221518E+01  0.93800000000E+00 0.  1.
         22    1    1    2    0    0 -0.25076059304E-01 -0.45630008589E+00  0.23841506325E+01  0.24275528451E+01  0.00000000000E+00 0.  1.
</event>
<event>
 5    1  0.3005426E+001  0.1597885E+01  0.7818608E-02  0.3355662E+00
         11   -1    0    0    0    0  0.00000000000E+00  0.00000000000E+00  0.39999999674E+01  0.40000000000E+01  0.51100000000E-03 0. -1.
    9000002   -1    0    0    0    0 -0.00000000000E+00 -0.00000000000E+00  0.00000000000E+00  0.93800000000E+00  0.93800000000E+00 0.  1.
         11    1    1    2    0    0 -0.45554242520E-01 -0.58114807172E-01  0.99228380391E+00  0.99502760186E+00  0.51100000000E-03 0. -1.
    9000002    1    1    2    0    0  0.23526532861E+00  0.38988946426E+00  0.14250644001E+00  0.10523856967E+01  0.93800000000E+00 0.  1.
         22    1    1    2    0    0 -0.18971108609E+00 -0.33177465708E+00  0.28652097234E+01  0.28905867014E+01  0.00000000000E+00 0. -1.
</event>
<event>
 5    1  0.3005426E+001  0.1599668E+01  0.7818608E-02  0.3353724E+00
         11   -1    0    0    0    0  0.00000000000E+00  0.00000000000E+00  0.39999999674E+01  0.40000000000E+01  0.51100000000E-03 0. -1.
    9000002   -1    0    0    0    0 -0.00000000000E+00 -0.00000000000E+00  0.00000000000E+00  0.93800000000E+00  0.93800000000E+00 0.  1.
         11    1    1    2    0    0  0.17053217750E-02 -0.39624453441E-01  0.41460062541E+00  0.41649363158E+00  0.51100000000E-03 0. -1.
    9000002    1    1    2    0    0  0.11996137799E-02  0.38422661589E+00  0.99391063036E-01  0.10185058246E+01  0.93800000000E+00 0.  1.
         22    1    1    2    0    0 -0.29049355549E-02 -0.34460216245E+00  0.34860082789E+01  0.35030005438E+01  0.00000000000E+00 0. -1.
</event>
<event>
 5    1  0.3005426E+001  0.1572367E+01  0.7818608E-02  0.3383913E+00
         11   -1    0    0    0    0  0.00000000000E+00  0.00000000000E+00  0.39999999674E+01  0.40000000000E+01  0.51100000000E-03 0.  1.
    9000002   -1    0    0    0    0 -0.00000000000E+00 -0.00000000000E+00  0.00000000000E+00  0.93800000000E+00  0.93800000000E+00 0. -1.
         11    1    1    2    0    0  0.56695962074E-01  0.50433366477E-01  0.15387700448E+00  0.17157024858E+00  0.51100000000E-03 0.  1.
    9000002    1    1    2    0    0 -0.22738304641E+00  0.32733731699E+00  0.13019098959E+00  0.10274465741E+01  0.93800000000E+00 0. -1.
         22    1    1    2    0    0  0.17068708433E+00 -0.37777068347E+00  0.37159319733E+01  0.37389831773E+01  0.00000000000E+00 0.  1.
</event>
<event>
 5    1  0.3005426E+001  0.1599674E+01  0.7818608E-02  0.3353717E+00
         11   -1    0    0    0    0  0.00000000000E+00  0.00000000000E+00  0.39999999674E+01  0.40000000000E+01  0.51100000000E-03 0.  1.
    9000002   -1    0    0    0    0 -0.00000000000E+00 -0.00000000000E+00  0.00000000000E+00  0.93800000000E+00  0.93800000000E+00 0.  1.
         11    1    1    2    0    0 -0.75094537268E-01 -0.19992358869E-02  0.81110589505E+00  0.81457732634E+00  0.51100000000E-03 0.  1.
    9000002    1    1    2    0    0  0.36106079116E+00  0.17464062676E-01  0.87730952984E-01  0.10090642242E+01  0.93800000000E+00 0.  1.
         22    1    1    2    0    0 -0.28596625390E+00 -0.15464826789E-01  0.31011631193E+01  0.31143584495E+01  0.00000000000E+00 0.  1.
</event>
<event>
 5    1  0.3005426E+001  0.1596753E+01  0.7818608E-02  0.3356895E+00
         11   -1    0    0    0    0  0.00000000000E+00  0.00000000000E+00  0.39999999674E+01  0.40000000000E+01  0.51100000000E-03 0.  1.
    9000002   -1    0    0    0    0 -0.00000000000E+00 -0.00000000000E+00  0.00000000000E+00  0.93800000000E+00  0.93800000000E+00 0.  1.
         11    1    1    2    0    0  0.40029546563E-01 -0.37440249596E-02  0.42198383601E+00  0.42389503571E+00  0.51100000000E-03 0.  1.
    9000002    1    1    2    0    0 -0.29748336347E+00 -0.33098420247E+00  0.13693197852E+00  0.10472064078E+01  0.93800000000E+00 0.  1.
         22    1    1    2    0    0  0.25745381691E+00  0.33472822743E+00  0.34410841528E+01  0.34668985565E+01  0.00000000000E+00 0.  1.
</event>
<event>
 5    1  0.3005426E+001  0.1546096E+01  0.7818608E-02  0.3414031E+00
         11   -1    0    0    0    0  0.00000000000E+00  0.00000000000E+00  0.39999999674E+01  0.40000000000E+01  0.51100000000E-03 0. -1.
    9000002   -1    0    0    0    0 -0.00000000000E+00 -0.00000000000E+00  0.00000000000E+00  0.93800000000E+00  0.93800000000E+00 0. -1.
         11    1    1    2    0    0  0.14230039936E+00 -0.19205035809E+00  0.10364215991E+01  0.10636271602E+01  0.51100000000E-03 0. -1.
    9000002    1    1    2    0    0  0.12892185553E+00  0.79093894240E-01  0.55761756406E-01  0.95175105065E+00  0.93800000000E+00 0. -1.
         22    1    1    2    0    0 -0.27122225489E+00  0.11295646385E+00  0.29078166118E+01  0.29226217891E+01  0.00000000000E+00 0. -1.
</event>
<event>
 5    1  0.3005426E+001  0.1599673E+01  0.7818608E-02  0.3353718E+00
         11   -1    0    0    0    0  0.00000000000E+00  0.00000000000E+00  0.39999999674E+01  0.40000000000E+01  0.51100000000E-03 0. -1.
    9000002   -1    0    0    0    0 -0.00000000000E+00 -0.00000000000E+00  0.00000000000E+00  0.93800000000E+00  0.93800000000E+00 0. -1.
         11    1    1    2    0    0 -0.38564152812E-01 -0.96784127013E-01  0.10366643591E+01  0.10418865656E+01  0.51100000000E-03 0. -1.
    9000002    1    1    2    0    0  0.13896357349E+00  0.36844768929E+00  0.10451451392E+00  0.10226592092E+01  0.93800000000E+00 0. -1.
         22    1    1    2    0    0 -0.10039942068E+00 -0.27166356227E+00  0.28588210943E+01  0.28734542252E+01  0.00000000000E+00 0. -1.
</event>
<event>
 5    1  0.3005426E+001  0.1599676E+01  0.7818608E-02  0.3353715E+00
         11   -1    0    0    0    0  0.00000000000E+00  0.00000000000E+00  0.39999999674E+01  0.40000000000E+01  0.51100000000E-03 0. -1.
    9000002   -1    0    0    0    0 -0.00000000000E+00 -0.00000000000E+00  0.00000000000E+00  0.93800000000E+00  0.93800000000E+00 0.  1.
         11    1    1    2    0    0 -0.74972484605E-01  0.12331490474E+00  0.14860333543E+01  0.14930247253E+01  0.51100000000E-03 0. -1.
    9000002    1    1    2    0    0  0.19443470680E+00 -0.32156260281E+00  0.94962845459E-01  0.10149232999E+01  0.93800000000E+00 0.  1.
         22    1    1    2    0    0 -0.11946222220E+00  0.19824769808E+00  0.24190037676E+01  0.24300519747E+01  0.00000000000E+00 0. -1.
</event>
<event>
 5    1  0.3005426E+001  0.1582172E+01  0.7818608E-02  0.3372943E+00
         11   -1    0    0    0    0  0.00000000000E+00  0.00000000000E+00  0.39999999674E+01  0.40000000000E+01  0.51100000000E-03 0. -1.
    9000002   -1    0    0    0    0 -0.00000000000E+00 -0.00000000000E+00  0.00000000000E+00  0.93800000000E+00  0.93800000000E+00 0. -1.
         11    1    1    2    0    0  0.10745295182E-01 -0.13699710030E+00  0.93353690003E+00  0.94359687987E+00  0.51100000000E-03 0. -1.
    9000002    1    1    2    0    0 -0.36365536655E+00  0.10237966094E+00  0.11049479097E+00  0.10172413280E+01  0.93800000000E+00 0. -1.
         22    1    1    2    0    0  0.35291007137E+00  0.34617439359E-01  0.29559682764E+01  0.29771617921E+01  0.00000000000E+00 0. -1.
</event>
<event>
 5    1  0.3005426E+001  0.1599147E+01  0.7818608E-02  0.3354290E+00
         11   -1    0    0    0    0  0.00000000000E+00  0.00000000000E+00  0.39999999674E+01  0.40000000000E+01  0.51100000000E-03 0. -1.
    9000002   -1    0    0    0    0 -0.00000000000E+00 -0.00000000000E+00  0.00000000000E+00  0.93800000000E+00  0.93800000000E+00 0.  1.
         11    1    1    2    0    0 -0.47341299826E-01 -0.30784066105E-01  0.58240639806E+00  0.58513787351E+00  0.51100000000E-03 0. -1.
    9000002    1    1    2    0    0  0.39843764436E+00  0.30098707771E+00  0.17114976007E+00  0.10763280252E+01  0.93800000000E+00 0.  1.
         22    1    1    2    0    0 -0.35109634453E+00 -0.27020301160E+00  0.32464438092E+01  0.32765341013E+01  0.00000000000E+00 0. -1.
</event>
<event>
 5    1  0.3005426E+001  0.1599672E+01  0.7818608E-02  0.3353720E+00
         11   -1    0    0    0    0  0.00000000000E+00  0.00000000000E+00  0.39999999674E+01  0.40000000000E+01  0.51100000000E-03 0.  1.
    9000002   -1    0    0    0    0 -0.00000000000E+00 -0.00000000000E+00  0.00000000000E+00  0.93800000000E+00  0.93800000000E+00 0.  1.
         11    1    1    2    0    0 -0.12516383124E+00  0.33740247112E-01  0.13744423165E+01  0.13805420426E+01  0.51100000000E-03 0.  1.
    9000002    1    1    2    0    0  0.36314567479E+00 -0.95899946444E-01  0.94872695266E-01  0.10148479734E+01  0.93800000000E+00 0.  1.
         22    1    1    2    0    0 -0.23798184355E+00  0.62159699332E-01  0.25306849556E+01  0.25426099840E+01  0.00000000000E+00 0.  1.
</event>
<event>
 5    1  0.3005426E+001  0.1494494E+01  0.7818608E-02  0.3476490E+00
         11   -1    0    0    0    0  0.00000000000E+00  0.00000000000E+00  0.39999999674E+01  0.40000000000E+01  0.51100000000E-03 0. -1.
    9000002   -1    0    0    0    0 -0.00000000000E+00 -0.00000000000E+00  0.00000000000E+00  0.93800000000E+00  0.93800000000E+00 0.  1.
         11    1    1    2    0    0 -0.14468936892E-01  0.24393224211E+00  0.13694977058E+00  0.28012102680E+00  0.51100000000E-03 0. -1.
    9000002    1    1    2    0    0 -0.27149052238E+00 -0.56301542243E-01  0.22484335890E+00  0.10036311591E+01  0.93800000000E+00 0.  1.
         22    1    1    2    0    0  0.28595945927E+00 -0.18763069987E+00  0.36382068379E+01  0.36542478141E+01  0.00000000000E+00 0. -1.
</event>
<event>
 5    1  0.3005426E+001  0.1521959E+01  0.7818608E-02  0.3442681E+00
         11   -1    0    0    0    0  0.00000000000E+00  0.00000000000E+00  0.39999999674E+01  0.40000000000E+01  0.51100000000E-03 0. -1.
    9000002   -1    0    0    0    0 -0.00000000000E+00 -0.00000000000E+00  0.00000000000E+00  0.93800000000E+00  0.93800000000E+00 0. -1.
         11    1    1    2    0    0 -0.30411563140E+00  0.41267344569E-01  0.90945946891E+00  0.95984691368E+00  0.51100000000E-03 0. -1.
    9000002    1    1    2    0    0  0.14829065528E+00  0.23584477211E+00  0.11449309484E+00  0.98517284968E+00  0.93800000000E+00 0. -1.
         22    1    1    2    0    0  0.15582497612E+00 -0.27711211668E+00  0.29760474036E+01  0.29929802366E+01  0.00000000000E+00 0. -1.
</event>
<event>
 5    1  0.3005426E+001  0.1599460E+01  0.7818608E-02  0.3353949E+00
         11   -1    0    0    0    0  0.00000000000E+00  0.00000000000E+00  0.39999999674E+01  0.40000000000E+01  0.51100000000E-03 0. -1.
    9000002   -1    0    0    0    0 -0.00000000000E+00 -0.00000000000E+00  0.00000000000E+00  0.93800000000E+00  0.93800000000E+00 0. -1.
         11    1    1    2    0    0 -0.84920248767E-01 -0.76741796287E-02  0.93260624525E+00  0.93649613533E+00  0.51100000000E-03 0. -1.
    9000002    1    1    2    0    0  0.40716948870E+00  0.65875196481E-01  0.11512268774E+00  0.10311274253E+01  0.93800000000E+00 0. -1.
         22    1    1    2    0    0 -0.32224923993E+00 -0.58201016853E-01  0.29522710344E+01  0.29703764393E+01  0.00000000000E+00 0. -1.
</event>
<event>
 5    1  0.3005426E+001  0.1479443E+01  0.7818608E-02  0.3495591E+00
         11   -1    0    0    0    0  0.00000000000E+00  0.00000000000E+00  0.39999999674E+01  0.40000000000E+01  0.51100000000E-03 0.  1.
    9000002   -1    0    0    0    0 -0.00000000000E+00 -0.00000000000E+00  0.00000000000E+00  0.93800000000E+00  0.93800000000E+00 0. -1.
         11    1    1    2    0    0  0.45417860415E+00 -0.28887808796E+00  0.12349093182E+01  0.13471191631E+01  0.51100000000E-03 0.  1.
    9000002    1    1    2    0    0 -0.23594481393E+00  0.45554719769E+00  0.29983312809E+00  0.11103770122E+01  0.93800000000E+00 0. -1.
         22    1    1    2    0    0 -0.21823379022E+00 -0.16666910974E+00  0.24652575210E+01  0.24805038247E+01  0.00000000000E+00 0.  1.
</event>
<event>
 5    1  0.3005426E+001  0.1599676E+01  0.7818608E-02  0.3353715E+00
         11   -1    0    0    0    0  0.00000000000E+00  0.00000000000E+00  0.39999999674E+01  0.40000000000E+01  0.51100000000E-03 0.  1.
    9000002   -1    0    0    0    0 -0.00000000000E+00 -0.00000000000E+00  0.00000000000E+00  0.93800000000E+00  0.93800000000E+00 0.  1.
         11    1    1    2    0    0  0.10653910227E-01  0.66845519177E-01  0.50803587537E+00  0.51252564914E+00  0.51100000000E-03 0.  1.
    9000002    1    1    2    0    0 -0.85253251684E-01 -0.50296317978E+00  0.17845710587E+00  0.10825576270E+01  0.93800000000E+00 0.  1.
         22    1    1    2    0    0  0.74599341457E-01  0.43611766060E+00  0.33135069861E+01  0.33429167239E+01  0.00000000000E+00 0.  1.
</event>
<event>
 5    1  0.3851514E+001  0.1599556E+01  0.7818608E-02  0.3353845E+00
         11   -1    0    0    0    0  0.00000000000E+00  0.00000000000E+00  0.39999999674E+01  0.40000000000E+01  0.51100000000E-03 0. -1.
    9000002   -1    0    0    0    0 -0.00000000000E+00 -0.00000000000E+00  0.00000000000E+00  0.93800000000E+00  0.93800000000E+00 0.  1.
         11    1    1    2    0    0  0.13434495928E+00  0.95266656174E-01  0.14462273438E+01  0.14555748332E+01  0.51100000000E-03 0. -1.
    9000002    1    1    2    0    0 -0.38641611430E+00 -0.27187499214E+00  0.15224162964E+00  0.10612515906E+01  0.93800000000E+00 0.  1.
         22    1    1    2    0    0  0.25207115502E+00  0.17660833597E+00  0.24015309939E+01  0.24211735762E+01  0.00000000000E+00 0. -1.
</event>
<event>
 5    1  0.3005426E+001  0.1483230E+01  0.7818608E-02  0.3490746E+00
         11   -1    0    0    0    0  0.00000000000E+00  0.00000000000E+00  0.39999999674E+01  0.40000000000E+01  0.51100000000E-03 0.  1.
    9000002   -1    0    0    0    0 -0.00000000000E+00 -0.00000000000E+00  0.00000000000E+00  0.93800000000E+00  0.93800000000E+00 0.  1.
         11    1    1    2    0    0  0.69619524414E-01  0.14592465098E+00  0.14042499223E+00  0.21415023116E+00  0.51100000000E-03 0.  1.
    9000002    1    1    2    0    0 -0.81095192798E-02  0.22199198695E+00  0.12652998802E+00  0.97221399108E+00  0.93800000000E+00 0.  1.
         22    1    1    2    0    0 -0.61510005135E-01 -0.36791663794E+00  0.37330449871E+01  0.37516357778E+01  0.00000000000E+00 0.  1.
</event>
<event>
 5    1  0.3005426E+001  0.1599677E+01  0.7818608E-02  0.3353714E+00
         11   -1    0    0    0    0  0.00000000000E+00  0.00000000000E+00  0.39999999674E+01  0.40000000000E+01  0.51100000000E-03 0.  1.
    9000002   -1    0    0    0    0 -0.00000000000E+00 -0.00000000000E+00  0.00000000000E+00  0.93800000000E+00  0.93800000000E+00 0.  1.
         11    1    1    2    0    0  0.12349725197E+00  0.46529498093E-01  0.10864572549E+01  0.10944433258E+01  0.51100000000E-03 0.  1.
    9000002    1    1    2    0    0 -0.43632710885E+00 -0.16482954344E+00  0.14812301595E+00  0.10579860832E+01  0.93800000000E+00 0.  1.
         22    1    1    2    0    0  0.31282985688E+00  0.11830004535E+00  0.27654196965E+01  0.27855705911E+01  0.00000000000E+00 0.  1.
</event>
<event>
 5    1  0.3005426E+001  0.1599340E+01  0.7818608E-02  0.3354080E+00
         11   -1    0    0    0    0  0.00000000000E+00  0.00000000000E+00  0.39999999674E+01  0.40000000000E+01  0.51100000000E-03 0. -1.
    9000002   -1    0    0    0    0 -0.00000000000E+00 -0.00000000000E+00  0.00000000000E+00  0.93800000000E+00  0.93800000000E+00 0.  1.
         11    1    1    2    0    0 -0.32137580759E-01  0.12817681665E-01  0.48339959901E+00  0.48463651379E+00  0.51100000000E-03 0. -1.
    9000002    1    1    2    0    0  0.27886148492E+00 -0.22023930573E+00  0.84987679703E-01  0.10066459086E+01  0.93800000000E+00 0.  1.
         22    1    1    2    0    0 -0.24672390416E+00  0.20742162407E+00  0.34316126887E+01  0.34467175776E+01  0.00000000000E+00 0. -1.
</event>
<event>
 5    1  0.3005426E+001  0.1599675E+01  0.7818608E-02  0.3353716E+00
         11   -1    0    0    0    0  0.00000000000E+00  0.00000000000E+00  0.39999999674E+01  0.40000000000E+01  0.51100000000E-03 0.  1.
    9000002   -1    0    0    0    0 -0.00000000000E+00 -0.00000000000E+00  0.00000000000E+00  0.93800000000E+00  0.93800000000E+00 0. -1.
         11    1    1    2    0    0 -0.24530806408E-01  0.75397265959E-02  0.21820341330E+00  0.21970798492E+00  0.51100000000E-03 0. -1.
    9000002    1    1    2    0    0  0.43261691519E+00 -0.12225968518E+00  0.13725924783E+00  0.10491848870E+01  0.93800000000E+00 0. -1.
         22    1    1    2    0    0 -0.40808610878E+00  0.11471995858E+00  0.36445373062E+01  0.36691071281E+01  0.00000000000E+00 0.  1.
</event>
<event>
 5    1  0.3005426E+001  0.1599129E+01  0.7818608E-02  0.3354310E+00
         11   -1    0    0    0    0  0.00000000000E+00  0.00000000000E+00  0.39999999674E+01  0.40000000000E+01  0.51100000000E-03 0.  1.
    9000002   -1    0    0    0    0 -0.00000000000E+00 -0.00000000000E+00  0.00000000000E+00  0.93800000000E+00  0.93800000000E+00 0. -1.
         11    1    1    2    0    0  0.58004109867E-01 -0.62387367019E-01  0.61344093912E+00  0.61932762512E+00  0.51100000000E-03 0.  1.
    9000002    1    1    2    0    0 -0.33651595809E+00  0.26695972950E+00  0.12541555241E+00  0.10392706808E+01  0.93800000000E+00 0. -1.
         22    1    1    2    0    0  0.27851184822E+00 -0.20457236249E+00  0.32611434758E+01  0.32794016941E+01  0.00000000000E+00 0.  1.
</event>
<event>
 5    1  0.3005426E+001  0.1598077E+01  0.7818608E-02  0.3355454E+00
         11   -1    0    0    0    0  0.00000000000E+00  0.00000000000E+00  0.39999999674E+01  0.40000000000E+01  0.51100000000E-03 0.  1.
    9000002   -1    0    0    0    0 -0.00000000000E+00 -0.00000000000E+00  0.00000000000E+00  0.93800000000E+00  0.93800000000E+00 0.  1.
         11    1    1    2    0    0 -0.56592876281E-02  0.10347929193E-01  0.45305067462E-01  0.46817917871E-01  0.51100000000E-03 0.  1.
    9000002    1    1    2    0    0 -0.19115447244E+00 -0.31027775070E+00  0.90498525304E-01  0.10103693869E+01  0.93800000000E+00 0.  1.
         22    1    1    2    0    0  0.19681376007E+00  0.29992982151E+00  0.38641963746E+01  0.38808126952E+01  0.00000000000E+00 0.  1.
</event>
<event>
 5    1  0.3005426E+001  0.1594298E+01  0.7818608E-02  0.3359576E+00
         11   -1    0    0    0    0  0.00000000000E+00  0.00000000000E+00  0.39999999674E+01  0.40000000000E+01  0.51100000000E-03 0. -1.
    9000002   -1    0    0    0    0 -0.00000000000E+00 -0.00000000000E+00  0.00000000000E+00  0.93800000000E+00  0.93800000000E+00 0. -1.
         11    1    1    2    0    0  0.49913076202E-01 -0.14467554729E+00  0.14451025811E+01  0.14531841109E+01  0.51100000000E-03 0. -1.
    9000002    1    1    2    0    0  0.86275393495E-01  0.32740065943E+00  0.81082811990E-01  0.10005263903E+01  0.93800000000E+00 0. -1.
         22    1    1    2    0    0 -0.13618846970E+00 -0.18272511214E+00  0.24738145743E+01  0.24842894988E+01  0.00000000000E+00 0. -1.
</event>
<event>
 5    1  0.3005426E+001  0.1575966E+01  0.7818608E-02  0.3379869E+00
         11   -1    0    0    0    0  0.00000000000E+00  0.00000000000E+00  0.39999999674E+01  0.40000000000E+01  0.51100000000E-03 0. -1.
    9000002   -1    0    0    0    0 -0.00000000000E+00 -0.00000000000E+00  0.00000000000E+00  0.93800000000E+00  0.93800000000E+00 0.  1.
         11    1    1    2    0    0  0.30621105802E-01 -0.36082206990E-01  0.99250360629E+00  0.99363134381E+00  0.51100000000E-03 0. -1.
    9000002    1    1    2    0    0  0.34306404144E-01 -0.46977846973E+00  0.17230864446E+00  0.10636742965E+01  0.93800000000E+00 0.  1.
         22    1    1    2    0    0 -0.64927509946E-01  0.50586067672E+00  0.28351877166E+01  0.28806943597E+01  0.00000000000E+00 0. -1.
</event>
<event>
 5    1  0.3005426E+001  0.1599677E+01  0.7818608E-02  0.3353714E+00
         11   -1    0    0    0    0  0.00000000000E+00  0.00000000000E+00  0.39999999674E+01  0.40000000000E+01  0.51100000000E-03 0.  1.
    9000002   -1    0    0    0    0 -0.00000000000E+00 -0.00000000000E+00  0.00000000000E+00  0.93800000000E+00  0.93800000000E+00 0.  1.
         11    1    1    2    0    0  0.85930540937E-01  0.16397333559E-01  0.75270011965E+00  0.75776689137E+00  0.51100000000E-03 0.  1.
    9000002    1    1    2    0    0 -0.44090191057E+00 -0.85531202270E-01  0.13698073885E+00  0.10489603444E+01  0.93800000000E+00 0.  1.
         22    1    1    2    0    0  0.35497136963E+00  0.69133868711E-01  0.31103191089E+01  0.31312727642E+01  0.00000000000E+00 0.  1.
</event>
<event>
 5    1  0.3005426E+001  0.1599677E+01  0.7818608E-02  0.3353715E+00
         11   -1    0    0    0    0  0.00000000000E+00  0.00000000000E+00  0.39999999674E+01  0.40000000000E+01  0.51100000000E-03 0.  1.
    9000002   -1    0    0    0    0 -0.00000000000E+00 -0.00000000000E+00  0.00000000000E+00  0.93800000000E+00  0.93800000000E+00 0.  1.
         11    1    1    2    0    0 -0.32292656127E-01  0.13082945553E+00  0.11788821177E+01  0.11865590885E+01  0.51100000000E-03 0.  1.
    9000002    1    1    2    0    0  0.10405814535E+00 -0.42774467059E+00  0.13143473445E+00  0.10444676588E+01  0.93800000000E+00 0.  1.
         22    1    1    2    0    0 -0.71765489222E-01  0.29691521505E+00  0.26896831152E+01  0.27069732527E+01  0.00000000000E+00 0.  1.
</event>
<event>
 5    1  0.3005426E+001  0.1599676E+01  0.7818608E-02  0.3353715E+00
         11   -1    0    0    0    0  0.00000000000E+00  0.00000000000E+00  0.39999999674E+01  0.40000000000E+01  0.51100000000E-03 0.  1.
    9000002   -1    0    0    0    0 -0.00000000000E+00 -0.00000000000E+00  0.00000000000E+00  0.93800000000E+00  0.93800000000E+00 0. -1.
         11    1    1    2    0    0  0.56402401957E-01  0.18941769869E+00  0.75267794959E+00  0.77819319738E+00  0.51100000000E-03 0.  1.
    9000002    1    1    2    0    0 -0.25755517537E+00 -0.85182514763E+00  0.60355782305E+00  0.14269081247E+01  0.93800000000E+00 0. -1.
         22    1    1    2    0    0  0.20115277342E+00  0.66240744894E+00  0.26437641947E+01  0.27328986779E+01  0.00000000000E+00 0. -1.
</event>
<event>
 5    1  0.3005426E+001  0.1596611E+01  0.7818608E-02  0.3357049E+00
         11   -1    0    0    0    0  0.00000000000E+00  0.00000000000E+00  0.39999999674E+01  0.40000000000E+01  0.51100000000E-03 0.  1.
    9000002   -1    0    0    0    0 -0.00000000000E+00 -0.00000000000E+00  0.00000000000E+00  0.93800000000E+00  0.93800000000E+00 0. -1.
         11    1    1    2    0    0 -0.11743457762E+00 -0.22694203925E+00  0.13609424240E+01  0.13847231174E+01  0.51100000000E-03 0.  1.
    9000002    1    1    2    0    0  0.28283348435E+00  0.45867886851E+00  0.20301629428E+00  0.11006546688E+01  0.93800000000E+00 0. -1.
         22    1    1    2    0    0 -0.16539890673E+00 -0.23173682926E+00  0.24360412491E+01  0.24526222138E+01  0.00000000000E+00 0.  1.
</event>
<event>
 5    1  0.3005426E+001  0.1588386E+01  0.7818608E-02  0.3366067E+00
         11   -1    0    0    0    0  0.00000000000E+00  0.00000000000E+00  0.39999999674E+01  0.40000000000E+01  0.51100000000E-03 0. -1.
    9000002   -1    0    0    0    0 -0.00000000000E+00 -0.00000000000E+00  0.00000000000E+00  0.93800000000E+00  0.93800000000E+00 0.  1.
         11    1    1    2    0    0  0.42122633736E-01  0.15422242439E-01  0.89838450328E-01  0.10041598535E+00  0.51100000000E-03 0. -1.
    9000002    1    1    2    0    0 -0.11962831222E+00 -0.41471547583E+00  0.13587544228E+00  0.10414441871E+01  0.93800000000E+00 0.  1.
         22    1    1    2    0    0  0.77505678479E-01  0.39929323340E+00  0.37742860748E+01  0.37961398276E+01  0.00000000000E+00 0. -1.
</event>
<event>
 5    1  0.3005426E+001  0.1599677E+01  0.7818608E-02  0.3353714E+00
         11   -1    0    0    0    0  0.00000000000E+00  0.00000000000E+00  0.39999999674E+01  0.40000000000E+01  0.51100000000E-03 0. -1.
    9000002   -1    0    0    0    0 -0.00000000000E+00 -0.00000000000E+00  0.00000000000E+00  0.93800000000E+00  0.93800000000E+00 0.  1.
         11    1    1    2    0    0  0.74431432113E-01 -0.89926806570E-01  0.12460705465E+01  0.12515266424E+01  0.51100000000E-03 0. -1.
    9000002    1    1    2    0    0 -0.23257211696E+00  0.28281650596E+00  0.90063314597E-01  0.10109551752E+01  0.93800000000E+00 0.  1.
         22    1    1    2    0    0  0.15814068484E+00 -0.19288969939E+00  0.26638661062E+01  0.26755181824E+01  0.00000000000E+00 0. -1.
</event>
<event>
 5    1  0.3005426E+001  0.1597493E+01  0.7818608E-02  0.3356088E+00
         11   -1    0    0    0    0  0.00000000000E+00  0.00000000000E+00  0.39999999674E+01  0.40000000000E+01  0.51100000000E-03 0. -1.
    9000002   -1    0    0    0    0 -0.00000000000E+00 -0.00000000000E+00  0.00000000000E+00  0.93800000000E+00  0.93800000000E+00 0. -1.
         11    1    1    2    0    0 -0.51854976970E-01  0.66963285522E-01  0.57261802004E+00  0.57884771593E+00  0.51100000000E-03 0. -1.
    9000002    1    1    2    0    0  0.85760323501E-01 -0.40188861073E+00  0.11590142626E+00  0.10306048851E+01  0.93800000000E+00 0. -1.
         22    1    1    2    0    0 -0.33905346531E-01  0.33492532521E+00  0.33114805211E+01  0.33285473990E+01  0.00000000000E+00 0. -1.
</event>
<event>
 5    1  0.3005426E+001  0.1587315E+01  0.7818608E-02  0.3367247E+00
         11   -1    0    0    0    0  0.00000000000E+00  0.00000000000E+00  0.39999999674E+01  0.40000000000E+01  0.51100000000E-03 0. -1.
    9000002   -1    0    0    0    0 -0.00000000000E+00 -0.00000000000E+00  0.00000000000E+00  0.93800000000E+00  0.93800000000E+00 0.  1.
         11    1    1    2    0    0  0.14064519042E+00  0.82136343846E-01  0.13381421104E+01  0.13480178105E+01  0.51100000000E-03 0. -1.
    9000002    1    1    2    0    0 -0.49294088709E-01 -0.32190691690E+00  0.80804271600E-01  0.99620645483E+00  0.93800000000E+00 0.  1.
         22    1    1    2    0    0 -0.91351101709E-01  0.23977057306E+00  0.25810535853E+01  0.25937757347E+01  0.00000000000E+00 0. -1.
</event>
<event>
 5    1  0.3005426E+001  0.1599630E+01  0.7818608E-02  0.3353765E+00
         11   -1    0    0    0    0  0.00000000000E+00  0.00000000000E+00  0.39999999674E+01  0.40000000000E+01  0.51100000000E-03 0.  1.
    9000002   -1    0    0    0    0 -0.00000000000E+00 -0.00000000000E+00  0.00000000000E+00  0.93800000000E+00  0.93800000000E+00 0. -1.
         11    1    1    2    0    0 -0.24475688217E-01  0.83097086794E-02  0.27418475625E+00  0.27540089370E+00  0.51100000000E-03 0.  1.
    9000002    1    1    2    0    0  0.38148883867E+00 -0.16646234617E+00  0.11714541820E+00  0.10328651876E+01  0.93800000000E+00 0. -1.
         22    1    1    2    0    0 -0.35701315045E+00  0.15815263749E+00  0.36086697929E+01  0.36297339187E+01  0.00000000000E+00 0.  1.
</event>
<event>
 5    1  0.3005426E+001  0.1598461E+01  0.7818608E-02  0.3355036E+00
         11   -1    0    0    0    0  0.00000000000E+00  0.00000000000E+00  0.39999999674E+01  0.40000000000E+01  0.51100000000E-03 0. -1.
    9000002   -1    0    0    0    0 -0.00000000000E+00 -0.00000000000E+00  0.00000000000E+00  0.93800000000E+00  0.93800000000E+00 0. -1.
         11    1    1    2    0    0  0.42332127244E+00  0.42293517959E+00  0.13137820949E+01  0.14436407863E+01  0.51100000000E-03 0. -1.
    9000002    1    1    2    0    0 -0.88650284508E+00 -0.84509835686E+00  0.14944694538E+01  0.21478737103E+01  0.93800000000E+00 0. -1.
         22    1    1    2    0    0  0.46318157264E+00  0.42216317726E+00  0.11917484187E+01  0.13464855034E+01  0.00000000000E+00 0. -1.
</event>
<event>
 5    1  0.3005426E+001  0.1599517E+01  0.7818608E-02  0.3353887E+00
         11   -1    0    0    0    0  0.00000000000E+00  0.00000000000E+00  0.39999999674E+01  0.40000000000E+01  0.51100000000E-03 0.  1.
    9000002   -1    0    0    0    0 -0.00000000000E+00 -0.00000000000E+00  0.00000000000E+00  0.93800000000E+00  0.93800000000E+00 0. -1.
         11    1    1    2    0    0  0.84352168829E-01  0.46218692954E-01  0.87436278032E+00  0.87963741888E+00  0.51100000000E-03 0.  1.
    9000002    1    1    2    0    0 -0.32279215138E+00 -0.18866130142E+00  0.94116427026E-01  0.10141448425E+01  0.93800000000E+00 0. -1.
         22    1    1    2    0    0  0.23843998255E+00  0.14244260847E+00  0.30315207600E+01  0.30442177387E+01  0.00000000000E+00 0.  1.
</event>
<event>
 5    1  0.3005426E+001  0.1535043E+01  0.7818608E-02  0.3427031E+00
         11   -1    0    0    0    0  0.00000000000E+00  0.00000000000E+00  0.39999999674E+01  0.40000000000E+01  0.51100000000E-03 0. -1.
    9000002   -1    0    0    0    0 -0.00000000000E+00 -0.00000000000E+00  0.00000000000E+00  0.93800000000E+00  0.93800000000E+00 0. -1.
         11    1    1    2    0    0  0.17343550505E+00 -0.11001161687E+00  0.55168289886E+00  0.58867368913E+00  0.51100000000E-03 0. -1.
    9000002    1    1    2    0    0 -0.60297111172E-01 -0.19546527986E+00  0.77896498950E-01  0.96320002170E+00  0.93800000000E+00 0. -1.
         22    1    1    2    0    0 -0.11313839388E+00  0.30547689672E+00  0.33704205695E+01  0.33861262892E+01  0.00000000000E+00 0. -1.
</event>
<event>
 5    1  0.3005426E+001  0.1531433E+01  0.7818608E-02  0.3431320E+00
         11   -1    0    0    0    0  0.00000000000E+00  0.00000000000E+00  0.39999999674E+01  0.40000000000E+01  0.51100000000E-03 0.  1.
    9000002   -1    0    0    0    0 -0.00000000000E+00 -0.00000000000E+00  0.00000000000E+00  0.93800000000E+00  0.93800000000E+00 0.  1.
         11    1    1    2    0    0  0.25693534027E+00  0.32445961321E-01  0.87181612985E+00  0.90946805050E+00  0.51100000000E-03 0.  1.
    9000002    1    1    2    0    0 -0.47988108677E-01  0.27013210734E+00  0.10483996457E+00  0.98290876085E+00  0.93800000000E+00 0.  1.
         22    1    1    2    0    0 -0.20894723159E+00 -0.30257806866E+00  0.30233438729E+01  0.30456231887E+01  0.00000000000E+00 0. -1.
</event>
<event>
 5    1  0.3005426E+001  0.1599675E+01  0.7818608E-02  0.3353717E+00
         11   -1    0    0    0    0  0.00000000000E+00  0.00000000000E+00  0.39999999674E+01  0.40000000000E+01  0.51100000000E-03 0. -1.
    9000002   -1    0    0    0    0 -0.00000000000E+00 -0.00000000000E+00  0.00000000000E+00  0.93800000000E+00  0.93800000000E+00 0. -1.
         11    1    1    2    0    0  0.28433596459E+00  0.61849534496E-01  0.13239801615E+01  0.13555795937E+01  0.51100000000E-03 0. -1.
    9000002    1    1    2    0    0 -0.76645190306E+00 -0.16833248861E+00  0.45130093620E+00  0.13035723537E+01  0.93800000000E+00 0. -1.
         22    1    1    2    0    0  0.48211593847E+00  0.10648295411E+00  0.22247188696E+01  0.22788480525E+01  0.00000000000E+00 0. -1.
</event>
<event>
 5    1  0.3005426E+001  0.1532406E+01  0.7818608E-02  0.3430162E+00
         11   -1    0    0    0    0  0.00000000000E+00  0.00000000000E+00  0.39999999674E+01  0.40000000000E+01  0.51100000000E-03 0.  1.
    9000002   -1    0    0    0    0 -0.00000000000E+00 -0.00000000000E+00  0.00000000000E+00  0.93800000000E+00  0.93800000000E+00 0.  1.
         11    1    1    2    0    0 -0.16761652581E+00 -0.16621416543E+00  0.11003735446E+01  0.11254086580E+01  0.51100000000E-03 0.  1.
    9000002    1    1    2    0    0  0.16624658066E+00 -0.31113926664E+00  0.13987146489E+00  0.10118565094E+01  0.93800000000E+00 0.  1.
         22    1    1    2    0    0  0.13699451461E-02  0.47735343207E+00  0.27597549578E+01  0.28007348327E+01  0.00000000000E+00 0.  1.
</event>
<event>
 5    1  0.3005426E+001  0.1597407E+01  0.7818608E-02  0.3356183E+00
         11   -1    0    0    0    0  0.00000000000E+00  0.00000000000E+00  0.39999999674E+01  0.40000000000E+01  0.51100000000E-03 0. -1.
    9000002   -1    0    0    0    0 -0.00000000000E+00 -0.00000000000E+00  0.00000000000E+00  0.93800000000E+00  0.93800000000E+00 0.  1.
         11    1    1    2    0    0  0.73012788160E-01  0.77062463730E-01  0.14125697389E+01  0.14165532178E+01  0.51100000000E-03 0. -1.
    9000002    1    1    2    0    0 -0.35006579862E+00 -0.23828550171E+00  0.12325989270E+00  0.10365148551E+01  0.93800000000E+00 0.  1.
         22    1    1    2    0    0  0.27705301046E+00  0.16122303798E+00  0.24641703358E+01  0.24849319271E+01  0.00000000000E+00 0. -1.
</event>
<event>
 5    1  0.3005426E+001  0.1599677E+01  0.7818608E-02  0.3353714E+00
         11   -1    0    0    0    0  0.00000000000E+00  0.00000000000E+00  0.39999999674E+01  0.40000000000E+01  0.51100000000E-03 0.  1.
    9000002   -1    0    0    0    0 -0.00000000000E+00 -0.00000000000E+00  0.00000000000E+00  0.93800000000E+00  0.93800000000E+00 0.  1.
         11    1    1    2    0    0 -0.66559838060E-01  0.47959479432E-01  0.87724243758E+00  0.88107030317E+00  0.51100000000E-03 0. -1.
    9000002    1    1    2    0    0  0.29732308656E+00 -0.21235007873E+00  0.89664570553E-01  0.10106321333E+01  0.93800000000E+00 0.  1.
         22    1    1    2    0    0 -0.23076324850E+00  0.16439059930E+00  0.30330929592E+01  0.30462975635E+01  0.00000000000E+00 0.  1.
</event>
<event>
 5    1  0.3005426E+001  0.1599675E+01  0.7818608E-02  0.3353716E+00
         11   -1    0    0    0    0  0.00000000000E+00  0.00000000000E+00  0.39999999674E+01  0.40000000000E+01  0.51100000000E-03 0. -1.
    9000002   -1    0    0    0    0 -0.00000000000E+00 -0.00000000000E+00  0.00000000000E+00  0.93800000000E+00  0.93800000000E+00 0. -1.
         11    1    1    2    0    0  0.12736547059E+00 -0.48583098940E-02  0.11214544915E+01  0.11286744455E+01  0.51100000000E-03 0. -1.
    9000002    1    1    2    0    0 -0.44243692315E+00  0.12280970618E-01  0.13291135398E+00  0.10456627952E+01  0.93800000000E+00 0. -1.
         22    1    1    2    0    0  0.31507145256E+00 -0.74226607240E-02  0.27456341219E+01  0.27636627594E+01  0.00000000000E+00 0. -1.
</event>
<event>
 5    1  0.3005426E+001  0.1598951E+01  0.7818608E-02  0.3354502E+00
         11   -1    0    0    0    0  0.00000000000E+00  0.00000000000E+00  0.39999999674E+01  0.40000000000E+01  0.51100000000E-03 0.  1.
    9000002   -1    0    0    0    0 -0.00000000000E+00 -0.00000000000E+00  0.00000000000E+00  0.93800000000E+00  0.93800000000E+00 0. -1.
         11    1    1    2    0    0  0.24266578731E-01  0.32305548028E-01  0.55678440390E+00  0.55824873383E+00  0.51100000000E-03 0.  1.
    9000002    1    1    2    0    0 -0.26825991035E+00 -0.34807857583E+00  0.13158621853E+00  0.10441652203E+01  0.93800000000E+00 0. -1.
         22    1    1    2    0    0  0.24399333162E+00  0.31577302780E+00  0.33116293449E+01  0.33355860458E+01  0.00000000000E+00 0.  1.
</event>
<event>
 5    1  0.3005426E+001  0.1598460E+01  0.7818608E-02  0.3355036E+00
         11   -1    0    0    0    0  0.00000000000E+00  0.00000000000E+00  0.39999999674E+01  0.40000000000E+01  0.51100000000E-03 0.  1.
    9000002   -1    0    0    0    0 -0.00000000000E+00 -0.00000000000E+00  0.00000000000E+00  0.93800000000E+00  0.93800000000E+00 0.  1.
         11    1    1    2    0    0  0.17083487593E-01  0.43203615112E-01  0.35061068158E+00  0.35367571173E+00  0.51100000000E-03 0.  1.
    9000002    1    1    2    0    0  0.65190666156E-01 -0.39929445391E+00  0.11149110903E+00  0.10275992172E+01  0.93800000000E+00 0.  1.
         22    1    1    2    0    0 -0.82274153749E-01  0.35609083880E+00  0.35378981768E+01  0.35567250710E+01  0.00000000000E+00 0.  1.
</event>
<event>
 5    1  0.3005426E+001  0.1595989E+01  0.7818608E-02  0.3357728E+00
         11   -1    0    0    0    0  0.00000000000E+00  0.00000000000E+00  0.39999999674E+01  0.40000000000E+01  0.51100000000E-03 0.  1.
    9000002   -1    0    0    0    0 -0.00000000000E+00 -0.00000000000E+00  0.00000000000E+00  0.93800000000E+00  0.93800000000E+00 0. -1.
         11    1    1    2    0    0 -0.17662265289E+00  0.17351733560E-01  0.85334250849E+00  0.87160216962E+00  0.51100000000E-03 0.  1.
    9000002    1    1    2    0    0  0.53581804248E+00  0.35539527086E-01  0.20213446279E+00  0.10995755425E+01  0.93800000000E+00 0. -1.
         22    1    1    2    0    0 -0.35919538959E+00 -0.52891260646E-01  0.29445229961E+01  0.29668222879E+01  0.00000000000E+00 0.  1.
</event>
<event>
 5    1  0.3005426E+001  0.1588636E+01  0.7818608E-02  0.3365790E+00
         11   -1    0    0    0    0  0.00000000000E+00  0.00000000000E+00  0.39999999674E+01  0.40000000000E+01  0.51100000000E-03 0.  1.
    9000002   -1    0    0    0    0 -0.00000000000E+00 -0.00000000000E+00  0.00000000000E+00  0.93800000000E+00  0.93800000000E+00 0. -1.
         11    1    1    2    0    0 -0.32472936916E-01 -0.63579142025E-01  0.17312668683E+00  0.18726961779E+00  0.51100000000E-03 0.  1.
    9000002    1    1    2    0    0 -0.20837696560E-01  0.47101589520E+00  0.16123747334E+00  0.10621354461E+01  0.93800000000E+00 0. -1.
         22    1    1    2    0    0  0.53310633476E-01 -0.40743675318E+00  0.36656358072E+01  0.36885949361E+01  0.00000000000E+00 0.  1.
</event>
<event>
 5    1  0.3005426E+001  0.1597432E+01  0.7818608E-02  0.3356156E+00
         11   -1    0    0    0    0  0.00000000000E+00  0.00000000000E+00  0.39999999674E+01  0.40000000000E+01  0.51100000000E-03 0. -1.
    9000002   -1    0    0    0    0 -0.00000000000E+00 -0.00000000000E+00  0.00000000000E+00  0.93800000000E+00  0.93800000000E+00 0. -1.
         11    1    1    2    0    0  0.11929017880E-01  0.65709625613E-02  0.47068201538E+00  0.47087928362E+00  0.51100000000E-03 0. -1.
    9000002    1    1    2    0    0  0.10995149801E-01 -0.34335610752E+00  0.80877058157E-01  0.10021972902E+01  0.93800000000E+00 0. -1.
         22    1    1    2    0    0 -0.22924167681E-01  0.33678514496E+00  0.34484408938E+01  0.34649234262E+01  0.00000000000E+00 0. -1.
</event>
<event>
 5    1  0.3005426E+001  0.1534367E+01  0.7818608E-02  0.3427833E+00
         11   -1    0    0    0    0  0.00000000000E+00  0.00000000000E+00  0.39999999674E+01  0.40000000000E+01  0.51100000000E-03 0. -1.
    9000002   -1    0    0    0    0 -0.00000000000E+00 -0.00000000000E+00  0.00000000000E+00  0.93800000000E+00  0.93800000000E+00 0.  1.
         11    1    1    2    0    0  0.23406301968E-01 -0.24386737260E+00  0.85664022754E+00  0.89098366481E+00  0.51100000000E-03 0. -1.
    9000002    1    1    2    0    0 -0.84583957257E-01 -0.49571680020E-01  0.55606063392E-01  0.94474749620E+00  0.93800000000E+00 0.  1.
         22    1    1    2    0    0  0.61177655289E-01  0.29343905262E+00  0.30877536764E+01  0.31022688390E+01  0.00000000000E+00 0. -1.
</event>
<event>
 5    1  0.3005426E+001  0.1599676E+01  0.7818608E-02  0.3353715E+00
         11   -1    0    0    0    0  0.00000000000E+00  0.00000000000E+00  0.39999999674E+01  0.40000000000E+01  0.51100000000E-03 0.  1.
    9000002   -1    0    0    0    0 -0.00000000000E+00 -0.00000000000E+00  0.00000000000E+00  0.93800000000E+00  0.93800000000E+00 0. -1.
         11    1    1    2    0    0 -0.22248078753E-01 -0.50181802873E-02  0.23218168447E+00  0.23329971038E+00  0.51100000000E-03 0. -1.
    9000002    1    1    2    0    0  0.38076307153E+00  0.86000960491E-01  0.10265674782E+00  0.10211557617E+01  0.93800000000E+00 0. -1.
         22    1    1    2    0    0 -0.35851499278E+00 -0.80982780204E-01  0.36651615351E+01  0.36835445279E+01  0.00000000000E+00 0.  1.
</event>
<event>
 5    1  0.3005426E+001  0.1599513E+01  0.7818608E-02  0.3353893E+00
         11   -1    0    0    0    0  0.00000000000E+00  0.00000000000E+00  0.39999999674E+01  0.40000000000E+01  0.51100000000E-03 0.  1.
    9000002   -1    0    0    0    0 -0.00000000000E+00 -0.00000000000E+00  0.00000000000E+00  0.93800000000E+00  0.93800000000E+00 0.  1.
         11    1    1    2    0    0  0.52407844393E-01 -0.65446502335E-01  0.75852246761E+00  0.76314246495E+00  0.51100000000E-03 0.  1.
    9000002    1    1    2    0    0 -0.27936726789E+00  0.27415633584E+00  0.10336534748E+00  0.10216340646E+01  0.93800000000E+00 0.  1.
         22    1    1    2    0    0  0.22695942350E+00 -0.20870983350E+00  0.31381121523E+01  0.31532234705E+01  0.00000000000E+00 0.  1.
</event>
<event>
 5    1  0.3005426E+001  0.1589572E+01  0.7818608E-02  0.3364760E+00
         11   -1    0    0    0    0  0.00000000000E+00  0.00000000000E+00  0.39999999674E+01  0.40000000000E+01  0.51100000000E-03 0. -1.
    9000002   -1    0    0    0    0 -0.00000000000E+00 -0.00000000000E+00  0.00000000000E+00  0.93800000000E+00  0.93800000000E+00 0.  1.
         11    1    1    2    0    0  0.42377961012E-01  0.13825836387E-01  0.10321421889E+01  0.10331044500E+01  0.51100000000E-03 0. -1.
    9000002    1    1    2    0    0  0.24457678507E+00 -0.40813536824E-01  0.48592291994E-01  0.97143644127E+00  0.93800000000E+00 0.  1.
         22    1    1    2    0    0 -0.28695474608E+00  0.26987700437E-01  0.29192654864E+01  0.29334591087E+01  0.00000000000E+00 0. -1.
</event>
<event>
 5    1  0.3005426E+001  0.1588818E+01  0.7818608E-02  0.3365590E+00
         11   -1    0    0    0    0  0.00000000000E+00  0.00000000000E+00  0.39999999674E+01  0.40000000000E+01  0.51100000000E-03 0.  1.
    9000002   -1    0    0    0    0 -0.00000000000E+00 -0.00000000000E+00  0.00000000000E+00  0.93800000000E+00  0.93800000000E+00 0. -1.
         11    1    1    2    0    0 -0.28811945293E-02  0.49363694170E-01  0.80337892191E+00  0.80489939053E+00  0.51100000000E-03 0.  1.
    9000002    1    1    2    0    0 -0.76331723448E-01  0.24529870026E+00  0.52235889863E-01  0.97394587763E+00  0.93800000000E+00 0. -1.
         22    1    1    2    0    0  0.79212917978E-01 -0.29466239443E+00  0.31443851556E+01  0.31591547318E+01  0.00000000000E+00 0.  1.
</event>
<event>
 5    1  0.3005426E+001  0.1599065E+01  0.7818608E-02  0.3354379E+00
         11   -1    0    0    0    0  0.00000000000E+00  0.00000000000E+00  0.39999999674E+01  0.40000000000E+01  0.51100000000E-03 0. -1.
    9000002   -1    0    0    0    0 -0.00000000000E+00 -0.00000000000E+00  0.00000000000E+00  0.93800000000E+00  0.93800000000E+00 0.  1.
         11    1    1    2    0    0  0.12427117958E-01 -0.48886468788E-01  0.22683537166E+00  0.23237656304E+00  0.51100000000E-03 0. -1.
    9000002    1    1    2    0    0 -0.10780555219E+00  0.59025031939E+00  0.25179298376E+00  0.11416046528E+01  0.93800000000E+00 0.  1.
         22    1    1    2    0    0  0.95378434236E-01 -0.54136385061E+00  0.35213716119E+01  0.35640187842E+01  0.00000000000E+00 0. -1.
</event>
<event>
 5    1  0.3005426E+001  0.1599677E+01  0.7818608E-02  0.3353715E+00
         11   -1    0    0    0    0  0.00000000000E+00  0.00000000000E+00  0.39999999674E+01  0.40000000000E+01  0.51100000000E-03 0.  1.
    9000002   -1    0    0    0    0 -0.00000000000E+00 -0.00000000000E+00  0.00000000000E+00  0.93800000000E+00  0.93800000000E+00 0. -1.
         11    1    1    2    0    0  0.43905967649E-01 -0.67579662617E-01  0.75781857040E+00  0.76209185244E+00  0.51100000000E-03 0. -1.
    9000002    1    1    2    0    0 -0.22794130186E+00  0.34585963287E+00  0.11594769227E+00  0.10319224729E+01  0.93800000000E+00 0. -1.
         22    1    1    2    0    0  0.18403533421E+00 -0.27827997025E+00  0.31262337047E+01  0.31439856747E+01  0.00000000000E+00 0.  1.
</event>
<event>
 5    1  0.3005426E+001  0.1599623E+01  0.7818608E-02  0.3353772E+00
         11   -1    0    0    0    0  0.00000000000E+00  0.00000000000E+00  0.39999999674E+01  0.40000000000E+01  0.51100000000E-03 0.  1.
    9000002   -1    0    0    0    0 -0.00000000000E+00 -0.00000000000E+00  0.00000000000E+00  0.93800000000E+00  0.93800000000E+00 0. -1.
         11    1    1    2    0    0 -0.97756129360E-01 -0.78514673906E-01  0.10721851866E+01  0.10794916166E+01  0.51100000000E-03 0.  1.
    9000002    1    1    2    0    0  0.32670052604E+00  0.27358588471E+00  0.12295379171E+00  0.10375664340E+01  0.93800000000E+00 0. -1.
         22    1    1    2    0    0 -0.22894439668E+00 -0.19507121080E+00  0.28048609890E+01  0.28209419494E+01  0.00000000000E+00 0.  1.
</event>
<event>
 5    1  0.3005426E+001  0.1598689E+01  0.7818608E-02  0.3354788E+00
         11   -1    0    0    0    0  0.00000000000E+00  0.00000000000E+00  0.39999999674E+01  0.40000000000E+01  0.51100000000E-03 0. -1.
    9000002   -1    0    0    0    0 -0.00000000000E+00 -0.00000000000E+00  0.00000000000E+00  0.93800000000E+00  0.93800000000E+00 0. -1.
         11    1    1    2    0    0 -0.95952689948E-01 -0.44957091955E-02  0.89547733219E+00  0.90061481428E+00  0.51100000000E-03 0. -1.
    9000002    1    1    2    0    0  0.35895348651E+00 -0.10571385520E+00  0.94955786441E-01  0.10143390094E+01  0.93800000000E+00 0. -1.
         22    1    1    2    0    0 -0.26300079656E+00  0.11020956440E+00  0.30095668487E+01  0.30230461763E+01  0.00000000000E+00 0. -1.
</event>
<event>
 5    1  0.3005426E+001  0.1599665E+01  0.7818608E-02  0.3353727E+00
         11   -1    0    0    0    0  0.00000000000E+00  0.00000000000E+00  0.39999999674E+01  0.40000000000E+01  0.51100000000E-03 0. -1.
    9000002   -1    0    0    0    0 -0.00000000000E+00 -0.00000000000E+00  0.00000000000E+00  0.93800000000E+00  0.93800000000E+00 0.  1.
         11    1    1    2    0    0 -0.85371924941E-01 -0.37020089803E-01  0.80102898819E+00  0.80641586893E+00  0.51100000000E-03 0. -1.
    9000002    1    1    2    0    0  0.42445059436E+00  0.16905249892E+00  0.14192642902E+00  0.10529597170E+01  0.93800000000E+00 0.  1.
         22    1    1    2    0    0 -0.33907866942E+00 -0.13203240912E+00  0.30570445501E+01  0.30786244140E+01  0.00000000000E+00 0. -1.
</event>
<event>
 5    1  0.3005426E+001  0.1598628E+01  0.7818608E-02  0.3354854E+00
         11   -1    0    0    0    0  0.00000000000E+00  0.00000000000E+00  0.39999999674E+01  0.40000000000E+01  0.51100000000E-03 0. -1.
    9000002   -1    0    0    0    0 -0.00000000000E+00 -0.00000000000E+00  0.00000000000E+00  0.93800000000E+00  0.93800000000E+00 0.  1.
         11    1    1    2    0    0 -0.23157216941E-01  0.56494587451E-01  0.78716141020E+00  0.78952596027E+00  0.51100000000E-03 0. -1.
    9000002    1    1    2    0    0  0.23803129189E-01 -0.40483542024E+00  0.11188635059E+00  0.10280179288E+01  0.93800000000E+00 0.  1.
         22    1    1    2    0    0 -0.64591224864E-03  0.34834083279E+00  0.31009522066E+01  0.31204561110E+01  0.00000000000E+00 0. -1.
</event>
<event>
 5    1  0.3005426E+001  0.1599639E+01  0.7818608E-02  0.3353755E+00
         11   -1    0    0    0    0  0.00000000000E+00  0.00000000000E+00  0.39999999674E+01  0.40000000000E+01  0.51100000000E-03 0.  1.
    9000002   -1    0    0    0    0 -0.00000000000E+00 -0.00000000000E+00  0.00000000000E+00  0.93800000000E+00  0.93800000000E+00 0. -1.
         11    1    1    2    0    0 -0.10822188017E+00  0.15146024552E-01  0.11114912210E+01  0.11168502016E+01  0.51100000000E-03 0.  1.
    9000002    1    1    2    0    0  0.35796227268E+00 -0.59237314452E-01  0.88428524001E-01  0.10096086628E+01  0.93800000000E+00 0. -1.
         22    1    1    2    0    0 -0.24974039251E+00  0.44091289901E-01  0.28000802224E+01  0.28115411356E+01  0.00000000000E+00 0.  1.
</event>
<event>
 5    1  0.3005426E+001  0.1599676E+01  0.7818608E-02  0.3353715E+00
         11   -1    0    0    0    0  0.00000000000E+00  0.00000000000E+00  0.39999999674E+01  0.40000000000E+01  0.51100000000E-03 0.  1.
    9000002   -1    0    0    0    0 -0.00000000000E+00 -0.00000000000E+00  0.00000000000E+00  0.93800000000E+00  0.93800000000E+00 0. -1.
         11    1    1    2    0    0 -0.13316113348E+00 -0.71779839664E-01  0.14194066424E+01  0.14274451690E+01  0.51100000000E-03 0.  1.
    9000002    1    1    2    0    0  0.36492608028E+00  0.19387557697E+00  0.11538031227E+00  0.10314627477E+01  0.93800000000E+00 0. -1.
         22    1    1    2    0    0 -0.23176494681E+00 -0.12209573730E+00  0.24652130126E+01  0.24790920833E+01  0.00000000000E+00 0.  1.
</event>
<event>
 5    1  0.3005426E+001  0.1599478E+01  0.7818608E-02  0.3353931E+00
         11   -1    0    0    0    0  0.00000000000E+00  0.00000000000E+00  0.39999999674E+01  0.40000000000E+01  0.51100000000E-03 0. -1.
    9000002   -1    0    0    0    0 -0.00000000000E+00 -0.00000000000E+00  0.00000000000E+00  0.93800000000E+00  0.93800000000E+00 0. -1.
         11    1    1    2    0    0 -0.31169885203E-01 -0.56286380465E-01  0.78519683008E+00  0.78782868789E+00  0.51100000000E-03 0. -1.
    9000002    1    1    2    0    0  0.22170686797E+00  0.26546376781E+00  0.80333583449E-01  0.10029568445E+01  0.93800000000E+00 0. -1.
         22    1    1    2    0    0 -0.19053698276E+00 -0.20917738735E+00  0.31344695538E+01  0.31472144676E+01  0.00000000000E+00 0. -1.
</event>
<event>
 5    1  0.3005426E+001  0.1598395E+01  0.7818608E-02  0.3355107E+00
         11   -1    0    0    0    0  0.00000000000E+00  0.00000000000E+00  0.39999999674E+01  0.40000000000E+01  0.51100000000E-03 0.  1.
    9000002   -1    0    0    0    0 -0.00000000000E+00 -0.00000000000E+00  0.00000000000E+00  0.93800000000E+00  0.93800000000E+00 0. -1.
         11    1    1    2    0    0  0.49817344053E-01  0.19348366274E-01  0.72347738511E+00  0.72544876796E+00  0.51100000000E-03 0.  1.
    9000002    1    1    2    0    0 -0.19636128334E+00 -0.27049494627E+00  0.75809430448E-01  0.99865726819E+00  0.93800000000E+00 0. -1.
         22    1    1    2    0    0  0.14654393929E+00  0.25114658000E+00  0.32007131518E+01  0.32138939639E+01  0.00000000000E+00 0.  1.
</event>
<event>
 5    1  0.3005426E+001  0.1599677E+01  0.7818608E-02  0.3353714E+00
         11   -1    0    0    0    0  0.00000000000E+00  0.00000000000E+00  0.39999999674E+01  0.40000000000E+01  0.51100000000E-03 0. -1.
    9000002   -1    0    0    0    0 -0.00000000000E+00 -0.00000000000E+00  0.00000000000E+00  0.93800000000E+00  0.93800000000E+00 0. -1.
         11    1    1    2    0    0 -0.47164974398E-01 -0.10227373290E+00  0.12087401926E+01  0.12139759329E+01  0.51100000000E-03 0. -1.
    9000002    1    1    2    0    0  0.15395378174E+00  0.32931151534E+00  0.88741896569E-01  0.10098846297E+01  0.93800000000E+00 0. -1.
         22    1    1    2    0    0 -0.10678880734E+00 -0.22703778244E+00  0.27025178782E+01  0.27141394375E+01  0.00000000000E+00 0. -1.
</event>
<event>
 5    1  0.3005426E+001  0.1599676E+01  0.7818608E-02  0.3353715E+00
         11   -1    0    0    0    0  0.00000000000E+00  0.00000000000E+00  0.39999999674E+01  0.40000000000E+01  0.51100000000E-03 0.  1.
    9000002   -1    0    0    0    0 -0.00000000000E+00 -0.00000000000E+00  0.00000000000E+00  0.93800000000E+00  0.93800000000E+00 0.  1.
         11    1    1    2    0    0 -0.15937394366E-01 -0.25112008734E-01  0.31493812605E+00  0.31633984555E+00  0.51100000000E-03 0.  1.
    9000002    1    1    2    0    0  0.19265889233E+00  0.31271746719E+00  0.90636591997E-01  0.10114191292E+01  0.93800000000E+00 0.  1.
         22    1    1    2    0    0 -0.17672149796E+00 -0.28760545846E+00  0.35944252493E+01  0.36102410253E+01  0.00000000000E+00 0.  1.
</event>
<event>
 5    1  0.3005426E+001  0.1599677E+01  0.7818608E-02  0.3353714E+00
         11   -1    0    0    0    0  0.00000000000E+00  0.00000000000E+00  0.39999999674E+01  0.40000000000E+01  0.51100000000E-03 0.  1.
    9000002   -1    0    0    0    0 -0.00000000000E+00 -0.00000000000E+00  0.00000000000E+00  0.93800000000E+00  0.93800000000E+00 0. -1.
         11    1    1    2    0    0  0.73154598159E-01 -0.66152234422E-01  0.99969755391E+00  0.10045512300E+01  0.51100000000E-03 0.  1.
    9000002    1    1    2    0    0 -0.28459361391E+00  0.25909698459E+00  0.99723612901E-01  0.10187804334E+01  0.93800000000E+00 0. -1.
         22    1    1    2    0    0  0.21143901575E+00 -0.19294475017E+00  0.29005788005E+01  0.29146683366E+01  0.00000000000E+00 0.  1.
</event>
<event>
 5    1  0.3005426E+001  0.1599672E+01  0.7818608E-02  0.3353719E+00
         11   -1    0    0    0    0  0.00000000000E+00  0.00000000000E+00  0.39999999674E+01  0.40000000000E+01  0.51100000000E-03 0.  1.
    9000002   -1    0    0    0    0 -0.00000000000E+00 -0.00000000000E+00  0.00000000000E+00  0.93800000000E+00  0.93800000000E+00 0.  1.
         11    1    1    2    0    0 -0.13742381746E+00 -0.16843391649E+00  0.13243099100E+01  0.13420328941E+01  0.51100000000E-03 0.  1.
    9000002    1    1    2    0    0  0.39439669256E+00  0.47421873114E+00  0.26640489948E+00  0.11537970907E+01  0.93800000000E+00 0.  1.
         22    1    1    2    0    0 -0.25697287510E+00 -0.30578481465E+00  0.24092851578E+01  0.24421700152E+01  0.00000000000E+00 0.  1.
</event>
<event>
 5    1  0.3005426E+001  0.1599593E+01  0.7818608E-02  0.3353805E+00
         11   -1    0    0    0    0  0.00000000000E+00  0.00000000000E+00  0.39999999674E+01  0.40000000000E+01  0.51100000000E-03 0.  1.
    9000002   -1    0    0    0    0 -0.00000000000E+00 -0.00000000000E+00  0.00000000000E+00  0.93800000000E+00  0.93800000000E+00 0.  1.
         11    1    1    2    0    0  0.65521369436E-02 -0.72035071593E-01  0.61002540450E+00  0.61429898038E+00  0.51100000000E-03 0.  1.
    9000002    1    1    2    0    0 -0.77890642573E-01  0.48767144354E+00  0.16686061657E+00  0.10731154898E+01  0.93800000000E+00 0.  1.
         22    1    1    2    0    0  0.71338505629E-01 -0.41563637195E+00  0.32231139463E+01  0.32505855298E+01  0.00000000000E+00 0.  1.
</event>
<event>
 5    1  0.3005426E+001  0.1599600E+01  0.7818608E-02  0.3353798E+00
         11   -1    0    0    0    0  0.00000000000E+00  0.00000000000E+00  0.39999999674E+01  0.40000000000E+01  0.51100000000E-03 0.  1.
    9000002   -1    0    0    0    0 -0.00000000000E+00 -0.00000000000E+00  0.00000000000E+00  0.93800000000E+00  0.93800000000E+00 0. -1.
         11    1    1    2    0    0 -0.75080384464E-01 -0.47002218532E-03  0.75805144477E+00  0.76176081489E+00  0.51100000000E-03 0.  1.
    9000002    1    1    2    0    0  0.40813094878E+00  0.38701121942E-01  0.11357772388E+00  0.10299575465E+01  0.93800000000E+00 0. -1.
         22    1    1    2    0    0 -0.33305056432E+00 -0.38231099757E-01  0.31283707987E+01  0.31462816386E+01  0.00000000000E+00 0.  1.
</event>
<event>
 5    1  0.3005426E+001  0.1535959E+01  0.7818608E-02  0.3425946E+00
         11   -1    0    0    0    0  0.00000000000E+00  0.00000000000E+00  0.39999999674E+01  0.40000000000E+01  0.51100000000E-03 0.  1.
    9000002   -1    0    0    0    0 -0.00000000000E+00 -0.00000000000E+00  0.00000000000E+00  0.93800000000E+00  0.93800000000E+00 0. -1.
         11    1    1    2    0    0 -0.46263071279E-01 -0.25697437401E+00  0.95378401187E+00  0.98887830549E+00  0.51100000000E-03 0.  1.
    9000002    1    1    2    0    0 -0.81013873562E-01  0.17854218718E-01  0.52444987161E-01  0.94312061663E+00  0.93800000000E+00 0. -1.
         22    1    1    2    0    0  0.12727694484E+00  0.23912015530E+00  0.29937709683E+01  0.30060010779E+01  0.00000000000E+00 0.  1.
</event>
<event>
 5    1  0.3005426E+001  0.1552945E+01  0.7818608E-02  0.3406074E+00
         11   -1    0    0    0    0  0.00000000000E+00  0.00000000000E+00  0.39999999674E+01  0.40000000000E+01  0.51100000000E-03 0. -1.
    9000002   -1    0    0    0    0 -0.00000000000E+00 -0.00000000000E+00  0.00000000000E+00  0.93800000000E+00  0.93800000000E+00 0.  1.
         11    1    1    2    0    0 -0.20776329585E+00  0.48799502886E-01  0.13565905233E+01  0.13732753138E+01  0.51100000000E-03 0. -1.
    9000002    1    1    2    0    0 -0.84185487198E-01  0.63868845989E-01  0.42323466617E-01  0.94488184530E+00  0.93800000000E+00 0.  1.
         22    1    1    2    0    0  0.29194878305E+00 -0.11266834888E+00  0.26010859774E+01  0.26198428409E+01  0.00000000000E+00 0. -1.
</event>
<event>
 5    1  0.3005426E+001  0.1598294E+01  0.7818608E-02  0.3355217E+00
         11   -1    0    0    0    0  0.00000000000E+00  0.00000000000E+00  0.39999999674E+01  0.40000000000E+01  0.51100000000E-03 0.  1.
    9000002   -1    0    0    0    0 -0.00000000000E+00 -0.00000000000E+00  0.00000000000E+00  0.93800000000E+00  0.93800000000E+00 0.  1.
         11    1    1    2    0    0 -0.28670973119E-02  0.18736669211E+00  0.13925244319E+01  0.14050761730E+01  0.51100000000E-03 0.  1.
    9000002    1    1    2    0    0  0.60314125387E-01 -0.41394494634E+00  0.11948513479E+00  0.10339772288E+01  0.93800000000E+00 0.  1.
         22    1    1    2    0    0 -0.57447028075E-01  0.22657825423E+00  0.24879904007E+01  0.24989465981E+01  0.00000000000E+00 0.  1.
</event>
<event>
 5    1  0.3005426E+001  0.1488577E+01  0.7818608E-02  0.3483950E+00
         11   -1    0    0    0    0  0.00000000000E+00  0.00000000000E+00  0.39999999674E+01  0.40000000000E+01  0.51100000000E-03 0. -1.
    9000002   -1    0    0    0    0 -0.00000000000E+00 -0.00000000000E+00  0.00000000000E+00  0.93800000000E+00  0.93800000000E+00 0. -1.
         11    1    1    2    0    0 -0.34586809914E+00 -0.34427662497E+00  0.67317122864E+00  0.83145108136E+00  0.51100000000E-03 0. -1.
    9000002    1    1    2    0    0 -0.96707475190E-02  0.50007232425E+00  0.37184567790E+00  0.11261789649E+01  0.93800000000E+00 0. -1.
         22    1    1    2    0    0  0.35553884665E+00 -0.15579569928E+00  0.29549830608E+01  0.29803699537E+01  0.00000000000E+00 0. -1.
</event>
<event>
 5    1  0.3005426E+001  0.1596789E+01  0.7818608E-02  0.3356855E+00
         11   -1    0    0    0    0  0.00000000000E+00  0.00000000000E+00  0.39999999674E+01  0.40000000000E+01  0.51100000000E-03 0.  1.
    9000002   -1    0    0    0    0 -0.00000000000E+00 -0.00000000000E+00  0.00000000000E+00  0.93800000000E+00  0.93800000000E+00 0. -1.
         11    1    1    2    0    0  0.36828983150E-02 -0.78089375593E-02  0.18703690380E-01  0.20606610605E-01  0.51100000000E-03 0.  1.
    9000002    1    1    2    0    0 -0.39175759433E+00 -0.23877467156E+00  0.14566294806E+00  0.10543002660E+01  0.93800000000E+00 0. -1.
         22    1    1    2    0    0  0.38807469602E+00  0.24658360911E+00  0.38356333289E+01  0.38630931234E+01  0.00000000000E+00 0.  1.
</event>
<event>
 5    1  0.3005426E+001  0.1598602E+01  0.7818608E-02  0.3354883E+00
         11   -1    0    0    0    0  0.00000000000E+00  0.00000000000E+00  0.39999999674E+01  0.40000000000E+01  0.51100000000E-03 0.  1.
    9000002   -1    0    0    0    0 -0.00000000000E+00 -0.00000000000E+00  0.00000000000E+00  0.93800000000E+00  0.93800000000E+00 0. -1.
         11    1    1    2    0    0 -0.14638261676E-01 -0.12888949537E+00  0.11106740125E+01  0.11182235035E+01  0.51100000000E-03 0.  1.
    9000002    1    1    2    0    0 -0.72494795830E-01  0.46039248403E+00  0.14882913431E+00  0.10579276185E+01  0.93800000000E+00 0. -1.
         22    1    1    2    0    0  0.87133057506E-01 -0.33150298866E+00  0.27404968206E+01  0.27618488780E+01  0.00000000000E+00 0. -1.
</event>
<event>
 5    1  0.3005426E+001  0.1599629E+01  0.7818608E-02  0.3353766E+00
         11   -1    0    0    0    0  0.00000000000E+00  0.00000000000E+00  0.39999999674E+01  0.40000000000E+01  0.51100000000E-03 0. -1.
    9000002   -1    0    0    0    0 -0.00000000000E+00 -0.00000000000E+00  0.00000000000E+00  0.93800000000E+00  0.93800000000E+00 0.  1.
         11    1    1    2    0    0  0.86096995003E-02 -0.11587486900E+00  0.99185256817E+00  0.99863551424E+00  0.51100000000E-03 0. -1.
    9000002    1    1    2    0    0 -0.25102596755E-01  0.42570895845E+00  0.12314084858E+00  0.10377215071E+01  0.93800000000E+00 0.  1.
         22    1    1    2    0    0  0.16492897255E-01 -0.30983408945E+00  0.28850065506E+01  0.29016429787E+01  0.00000000000E+00 0. -1.
</event>
<event>
 5    1  0.3005426E+001  0.1594788E+01  0.7818608E-02  0.3359039E+00
         11   -1    0    0    0    0  0.00000000000E+00  0.00000000000E+00  0.39999999674E+01  0.40000000000E+01  0.51100000000E-03 0.  1.
    9000002   -1    0    0    0    0 -0.00000000000E+00 -0.00000000000E+00  0.00000000000E+00  0.93800000000E+00  0.93800000000E+00 0.  1.
         11    1    1    2    0    0  0.99190952222E-01  0.10404384648E-01  0.66124729109E+00  0.66872665366E+00  0.51100000000E-03 0.  1.
    9000002    1    1    2    0    0 -0.47007267682E+00  0.29284424471E+00  0.21665676759E+00  0.11106350562E+01  0.93800000000E+00 0.  1.
         22    1    1    2    0    0  0.37088172460E+00 -0.30324862936E+00  0.31220959087E+01  0.31586382901E+01  0.00000000000E+00 0.  1.
</event>
<event>
 5    1  0.3005426E+001  0.1599640E+01  0.7818608E-02  0.3353754E+00
         11   -1    0    0    0    0  0.00000000000E+00  0.00000000000E+00  0.39999999674E+01  0.40000000000E+01  0.51100000000E-03 0. -1.
    9000002   -1    0    0    0    0 -0.00000000000E+00 -0.00000000000E+00  0.00000000000E+00  0.93800000000E+00  0.93800000000E+00 0. -1.
         11    1    1    2    0    0 -0.91255743430E-02 -0.51296859278E-01  0.40818632304E+00  0.41149845603E+00  0.51100000000E-03 0. -1.
    9000002    1    1    2    0    0  0.47438928373E-01  0.46603839539E+00  0.14949048670E+00  0.10590720672E+01  0.93800000000E+00 0. -1.
         22    1    1    2    0    0 -0.38313354030E-01 -0.41474153612E+00  0.34423231576E+01  0.34674294768E+01  0.00000000000E+00 0. -1.
</event>
<event>
 5    1  0.3005426E+001  0.1495126E+01  0.7818608E-02  0.3475696E+00
         11   -1    0    0    0    0  0.00000000000E+00  0.00000000000E+00  0.39999999674E+01  0.40000000000E+01  0.51100000000E-03 0.  1.
    9000002   -1    0    0    0    0 -0.00000000000E+00 -0.00000000000E+00  0.00000000000E+00  0.93800000000E+00  0.93800000000E+00 0. -1.
         11    1    1    2    0    0  0.14265409406E+00  0.37802391191E+00  0.10252962514E+01  0.11020367202E+01  0.51100000000E-03 0.  1.
    9000002    1    1    2    0    0  0.27992732978E+00 -0.38429451402E+00  0.25296634307E+00  0.10816087806E+01  0.93800000000E+00 0. -1.
         22    1    1    2    0    0 -0.42258142384E+00  0.62706021083E-02  0.27217373729E+01  0.27543544992E+01  0.00000000000E+00 0.  1.
</event>
<event>
 5    1  0.3005426E+001  0.1599664E+01  0.7818608E-02  0.3353728E+00
         11   -1    0    0    0    0  0.00000000000E+00  0.00000000000E+00  0.39999999674E+01  0.40000000000E+01  0.51100000000E-03 0. -1.
    9000002   -1    0    0    0    0 -0.00000000000E+00 -0.00000000000E+00  0.00000000000E+00  0.93800000000E+00  0.93800000000E+00 0.  1.
         11    1    1    2    0    0  0.14509629539E-01 -0.98940221163E-01  0.95100557817E+00  0.95624869545E+00  0.51100000000E-03 0. -1.
    9000002    1    1    2    0    0 -0.63121434615E-01  0.41823375360E+00  0.12105334792E+00  0.10360510128E+01  0.93800000000E+00 0.  1.
         22    1    1    2    0    0  0.48611805076E-01 -0.31929353244E+00  0.29279410413E+01  0.29457002917E+01  0.00000000000E+00 0. -1.
</event>
<event>
 5    1  0.3005426E+001  0.1520600E+01  0.7818608E-02  0.3444322E+00
         11   -1    0    0    0    0  0.00000000000E+00  0.00000000000E+00  0.39999999674E+01  0.40000000000E+01  0.51100000000E-03 0.  1.
    9000002   -1    0    0    0    0 -0.00000000000E+00 -0.00000000000E+00  0.00000000000E+00  0.93800000000E+00  0.93800000000E+00 0. -1.
         11    1    1    2    0    0  0.21734139933E+00 -0.10926913656E-01  0.26452047059E+00  0.34253178215E+00  0.51100000000E-03 0.  1.
    9000002    1    1    2    0    0 -0.45258175033E+00 -0.25615969546E+00  0.26233324075E+00  0.11041334881E+01  0.93800000000E+00 0. -1.
         22    1    1    2    0    0  0.23524035101E+00  0.26708660912E+00  0.34731462560E+01  0.34913347298E+01  0.00000000000E+00 0.  1.
</event>
<event>
 5    1  0.3005426E+001  0.1533170E+01  0.7818608E-02  0.3429253E+00
         11   -1    0    0    0    0  0.00000000000E+00  0.00000000000E+00  0.39999999674E+01  0.40000000000E+01  0.51100000000E-03 0.  1.
    9000002   -1    0    0    0    0 -0.00000000000E+00 -0.00000000000E+00  0.00000000000E+00  0.93800000000E+00  0.93800000000E+00 0.  1.
         11    1    1    2    0    0 -0.36209803348E+00  0.18984669879E+00  0.49142430395E+00  0.63926118490E+00  0.51100000000E-03 0.  1.
    9000002    1    1    2    0    0  0.97156918907E+00 -0.24611966453E+00  0.95352145836E+00  0.16713972448E+01  0.93800000000E+00 0.  1.
         22    1    1    2    0    0 -0.60947115559E+00  0.56272965744E-01  0.25550542050E+01  0.26273415703E+01  0.00000000000E+00 0.  1.
</event>
<event>
 5    1  0.3005426E+001  0.1599675E+01  0.7818608E-02  0.3353716E+00
         11   -1    0    0    0    0  0.00000000000E+00  0.00000000000E+00  0.39999999674E+01  0.40000000000E+01  0.51100000000E-03 0. -1.
    9000002   -1    0    0    0    0 -0.00000000000E+00 -0.00000000000E+00  0.00000000000E+00  0.93800000000E+00  0.93800000000E+00 0. -1.
         11    1    1    2    0    0  0.94082191916E-01 -0.95327797029E-01  0.13406680060E+01  0.13473417574E+01  0.51100000000E-03 0. -1.
    9000002    1    1    2    0    0 -0.26952572717E+00  0.27683632019E+00  0.10052274008E+00  0.10194269405E+01  0.93800000000E+00 0. -1.
         22    1    1    2    0    0  0.17544353526E+00 -0.18150852317E+00  0.25588092213E+01  0.25712313021E+01  0.00000000000E+00 0. -1.
</event>
<event>
 5    1  0.3005426E+001  0.1599609E+01  0.7818608E-02  0.3353788E+00
         11   -1    0    0    0    0  0.00000000000E+00  0.00000000000E+00  0.39999999674E+01  0.40000000000E+01  0.51100000000E-03 0.  1.
    9000002   -1    0    0    0    0 -0.00000000000E+00 -0.00000000000E+00  0.00000000000E+00  0.93800000000E+00  0.93800000000E+00 0. -1.
         11    1    1    2    0    0 -0.80678365127E-01  0.60317014349E-01  0.81614099038E+00  0.82233418883E+00  0.51100000000E-03 0.  1.
    9000002    1    1    2    0    0  0.37633383366E+00 -0.24745481321E+00  0.13784670858E+00  0.10496221958E+01  0.93800000000E+00 0. -1.
         22    1    1    2    0    0 -0.29565546853E+00  0.18713779886E+00  0.30460122684E+01  0.30660436153E+01  0.00000000000E+00 0.  1.
</event>
<event>
 5    1  0.3005426E+001  0.1547110E+01  0.7818608E-02  0.3412848E+00
         11   -1    0    0    0    0  0.00000000000E+00  0.00000000000E+00  0.39999999674E+01  0.40000000000E+01  0.51100000000E-03 0. -1.
    9000002   -1    0    0    0    0 -0.00000000000E+00 -0.00000000000E+00  0.00000000000E+00  0.93800000000E+00  0.93800000000E+00 0. -1.
         11    1    1    2    0    0  0.25977153796E+00 -0.31493794365E+00  0.40833413821E+00  0.57741162946E+00  0.51100000000E-03 0. -1.
    9000002    1    1    2    0    0  0.74261203801E-01  0.12515449265E+00  0.22953643389E+00  0.97658043596E+00  0.93800000000E+00 0. -1.
         22    1    1    2    0    0 -0.33403274176E+00  0.18978345100E+00  0.33621293953E+01  0.33840079346E+01  0.00000000000E+00 0. -1.
</event>
<event>
 5    1  0.3005426E+001  0.1520666E+01  0.7818608E-02  0.3444243E+00
         11   -1    0    0    0    0  0.00000000000E+00  0.00000000000E+00  0.39999999674E+01  0.40000000000E+01  0.51100000000E-03 0. -1.
    9000002   -1    0    0    0    0 -0.00000000000E+00 -0.00000000000E+00  0.00000000000E+00  0.93800000000E+00  0.93800000000E+00 0.  1.
         11    1    1    2    0    0 -0.22393845331E+00 -0.21143773166E+00  0.11425369001E+01  0.11833195572E+01  0.51100000000E-03 0. -1.
    9000002    1    1    2    0    0  0.49743015685E-01 -0.49045313561E-01  0.63002625939E-01  0.94270522501E+00  0.93800000000E+00 0.  1.
         22    1    1    2    0    0  0.17419543762E+00  0.26048304522E+00  0.27944604413E+01  0.28119752178E+01  0.00000000000E+00 0. -1.
</event>
<event>
 5    1  0.3005426E+001  0.1599672E+01  0.7818608E-02  0.3353719E+00
         11   -1    0    0    0    0  0.00000000000E+00  0.00000000000E+00  0.39999999674E+01  0.40000000000E+01  0.51100000000E-03 0. -1.
    9000002   -1    0    0    0    0 -0.00000000000E+00 -0.00000000000E+00  0.00000000000E+00  0.93800000000E+00  0.93800000000E+00 0. -1.
         11    1    1    2    0    0  0.96887368348E-02 -0.57811035618E-01  0.67087700116E+00  0.67343314387E+00  0.51100000000E-03 0. -1.
    9000002    1    1    2    0    0 -0.59464753693E-01  0.34845376816E+00  0.83820601406E-01  0.10058956102E+01  0.93800000000E+00 0. -1.
         22    1    1    2    0    0  0.49776016858E-01 -0.29064273254E+00  0.32453023648E+01  0.32586712459E+01  0.00000000000E+00 0. -1.
</event>
<event>
 5    1  0.3005426E+001  0.1507259E+01  0.7818608E-02  0.3460611E+00
         11   -1    0    0    0    0  0.00000000000E+00  0.00000000000E+00  0.39999999674E+01  0.40000000000E+01  0.51100000000E-03 0. -1.
    9000002   -1    0    0    0    0 -0.00000000000E+00 -0.00000000000E+00  0.00000000000E+00  0.93800000000E+00  0.93800000000E+00 0.  1.
         11    1    1    2    0    0 -0.15879863630E+00 -0.10610623627E+00  0.31731266299E+00  0.37035540698E+00  0.51100000000E-03 0. -1.
    9000002    1    1    2    0    0 -0.13074682034E+00 -0.12227365386E+00  0.93425932529E-01  0.95948839614E+00  0.93800000000E+00 0.  1.
         22    1    1    2    0    0  0.28954545664E+00  0.22837989014E+00  0.35892613718E+01  0.36081561969E+01  0.00000000000E+00 0. -1.
</event>
<event>
 5    1  0.3005426E+001  0.1598777E+01  0.7818608E-02  0.3354692E+00
         11   -1    0    0    0    0  0.00000000000E+00  0.00000000000E+00  0.39999999674E+01  0.40000000000E+01  0.51100000000E-03 0. -1.
    9000002   -1    0    0    0    0 -0.00000000000E+00 -0.00000000000E+00  0.00000000000E+00  0.93800000000E+00  0.93800000000E+00 0. -1.
         11    1    1    2    0    0 -0.96422083367E-01  0.24520480059E-01  0.13754960017E+01  0.13790895489E+01  0.51100000000E-03 0. -1.
    9000002    1    1    2    0    0  0.36817211668E+00 -0.42050926798E-01  0.93024010119E-01  0.10128259744E+01  0.93800000000E+00 0. -1.
         22    1    1    2    0    0 -0.27175003331E+00  0.17530446739E-01  0.25314799556E+01  0.25460844767E+01  0.00000000000E+00 0. -1.
</event>
<event>
 5    1  0.3005426E+001  0.1599674E+01  0.7818608E-02  0.3353717E+00
         11   -1    0    0    0    0  0.00000000000E+00  0.00000000000E+00  0.39999999674E+01  0.40000000000E+01  0.51100000000E-03 0. -1.
    9000002   -1    0    0    0    0 -0.00000000000E+00 -0.00000000000E+00  0.00000000000E+00  0.93800000000E+00  0.93800000000E+00 0. -1.
         11    1    1    2    0    0  0.40604268235E+00 -0.99224336098E-02  0.13264735706E+01  0.13872640373E+01  0.51100000000E-03 0. -1.
    9000002    1    1    2    0    0 -0.98361539167E+00  0.21941306240E-01  0.77173417373E+00  0.15631373243E+01  0.93800000000E+00 0. -1.
         22    1    1    2    0    0  0.57757270932E+00 -0.12018872631E-01  0.19017922230E+01  0.19875986384E+01  0.00000000000E+00 0. -1.
</event>
<event>
 5    1  0.3005426E+001  0.1599667E+01  0.7818608E-02  0.3353725E+00
         11   -1    0    0    0    0  0.00000000000E+00  0.00000000000E+00  0.39999999674E+01  0.40000000000E+01  0.51100000000E-03 0. -1.
    9000002   -1    0    0    0    0 -0.00000000000E+00 -0.00000000000E+00  0.00000000000E+00  0.93800000000E+00  0.93800000000E+00 0. -1.
         11    1    1    2    0    0  0.18820251619E-01  0.19059802237E+00  0.12454134387E+01  0.12600542458E+01  0.51100000000E-03 0. -1.
    9000002    1    1    2    0    0 -0.59367502141E-01 -0.58597073418E+00  0.24146958067E+00  0.11335950600E+01  0.93800000000E+00 0. -1.
         22    1    1    2    0    0  0.40547250522E-01  0.39537271181E+00  0.25131169480E+01  0.25443506942E+01  0.00000000000E+00 0. -1.
</event>
<event>
 5    1  0.3005426E+001  0.1578116E+01  0.7818608E-02  0.3377463E+00
         11   -1    0    0    0    0  0.00000000000E+00  0.00000000000E+00  0.39999999674E+01  0.40000000000E+01  0.51100000000E-03 0.  1.
    9000002   -1    0    0    0    0 -0.00000000000E+00 -0.00000000000E+00  0.00000000000E+00  0.93800000000E+00  0.93800000000E+00 0.  1.
         11    1    1    2    0    0 -0.14559688977E+00 -0.16148020651E+00  0.77850034665E+00  0.80829286911E+00  0.51100000000E-03 0.  1.
    9000002    1    1    2    0    0  0.50364507002E-01  0.54107962135E+00  0.22422395696E+00  0.11069887638E+01  0.93800000000E+00 0.  1.
         22    1    1    2    0    0  0.95232382767E-01 -0.37959941484E+00  0.29972756637E+01  0.30227183671E+01  0.00000000000E+00 0.  1.
</event>
<event>
 5    1  0.3005426E+001  0.1599667E+01  0.7818608E-02  0.3353725E+00
         11   -1    0    0    0    0  0.00000000000E+00  0.00000000000E+00  0.39999999674E+01  0.40000000000E+01  0.51100000000E-03 0. -1.
    9000002   -1    0    0    0    0 -0.00000000000E+00 -0.00000000000E+00  0.00000000000E+00  0.93800000000E+00  0.93800000000E+00 0. -1.
         11    1    1    2    0    0 -0.76947291011E-01 -0.17841876978E+00  0.12761577914E+01  0.12908652574E+01  0.51100000000E-03 0. -1.
    9000002    1    1    2    0    0  0.21678589447E+00  0.52931627344E+00  0.22695868513E+00  0.11218404905E+01  0.93800000000E+00 0. -1.
         22    1    1    2    0    0 -0.13983860346E+00 -0.35089750366E+00  0.24968834908E+01  0.25252942521E+01  0.00000000000E+00 0. -1.
</event>
<event>
 5    1  0.3005426E+001  0.1599629E+01  0.7818608E-02  0.3353766E+00
         11   -1    0    0    0    0  0.00000000000E+00  0.00000000000E+00  0.39999999674E+01  0.40000000000E+01  0.51100000000E-03 0.  1.
    9000002   -1    0    0    0    0 -0.00000000000E+00 -0.00000000000E+00  0.00000000000E+00  0.93800000000E+00  0.93800000000E+00 0.  1.
         11    1    1    2    0    0 -0.40722782061E-01 -0.37421741790E-01  0.61637524661E+00  0.61885170880E+00  0.51100000000E-03 0.  1.
    9000002    1    1    2    0    0  0.23814502887E+00  0.27029718598E+00  0.87153518541E-01  0.10085699576E+01  0.93800000000E+00 0.  1.
         22    1    1    2    0    0 -0.19742224681E+00 -0.23287544419E+00  0.32964712022E+01  0.33105783336E+01  0.00000000000E+00 0.  1.
</event>
<event>
 5    1  0.3005426E+001  0.1599670E+01  0.7818608E-02  0.3353722E+00
         11   -1    0    0    0    0  0.00000000000E+00  0.00000000000E+00  0.39999999674E+01  0.40000000000E+01  0.51100000000E-03 0.  1.
    9000002   -1    0    0    0    0 -0.00000000000E+00 -0.00000000000E+00  0.00000000000E+00  0.93800000000E+00  0.93800000000E+00 0. -1.
         11    1    1    2    0    0  0.11041955557E+00 -0.20909993088E-01  0.11196505907E+01  0.11252765937E+01  0.51100000000E-03 0.  1.
    9000002    1    1    2    0    0 -0.39275593331E+00  0.67665826102E-01  0.10712397229E+00  0.10247709171E+01  0.93800000000E+00 0. -1.
         22    1    1    2    0    0  0.28233637774E+00 -0.46755833013E-01  0.27732254044E+01  0.27879524892E+01  0.00000000000E+00 0.  1.
</event>
<event>
 5    1  0.3005426E+001  0.1599667E+01  0.7818608E-02  0.3353725E+00
         11   -1    0    0    0    0  0.00000000000E+00  0.00000000000E+00  0.39999999674E+01  0.40000000000E+01  0.51100000000E-03 0. -1.
    9000002   -1    0    0    0    0 -0.00000000000E+00 -0.00000000000E+00  0.00000000000E+00  0.93800000000E+00  0.93800000000E+00 0.  1.
         11    1    1    2    0    0 -0.31975141525E-01 -0.61409910388E-01  0.74590187964E+00  0.74910844472E+00  0.51100000000E-03 0. -1.
    9000002    1    1    2    0    0  0.18199179505E+00  0.31600747911E+00  0.89321456456E-01  0.10103484859E+01  0.93800000000E+00 0.  1.
         22    1    1    2    0    0 -0.15001665352E+00 -0.25459756872E+00  0.31647766313E+01  0.31785430694E+01  0.00000000000E+00 0. -1.
</event>
<event>
 5    1  0.3005426E+001  0.1599541E+01  0.7818608E-02  0.3353862E+00
         11   -1    0    0    0    0  0.00000000000E+00  0.00000000000E+00  0.39999999674E+01  0.40000000000E+01  0.51100000000E-03 0. -1.
    9000002   -1    0    0    0    0 -0.00000000000E+00 -0.00000000000E+00  0.00000000000E+00  0.93800000000E+00  0.93800000000E+00 0.  1.
         11    1    1    2    0    0 -0.99512097461E-01 -0.58090372127E-01  0.12101063260E+01  0.12155799975E+01  0.51100000000E-03 0. -1.
    9000002    1    1    2    0    0  0.30257384663E+00  0.22505614362E+00  0.95756922298E-01  0.10154873651E+01  0.93800000000E+00 0.  1.
         22    1    1    2    0    0 -0.20306174916E+00 -0.16696577149E+00  0.26941367191E+01  0.27069326375E+01  0.00000000000E+00 0. -1.
</event>
<event>
 5    1  0.3628917E+001  0.1597714E+01  0.7818608E-02  0.3355848E+00
         11   -1    0    0    0    0  0.00000000000E+00  0.00000000000E+00  0.39999999674E+01  0.40000000000E+01  0.51100000000E-03 0.  1.
    9000002   -1    0    0    0    0 -0.00000000000E+00 -0.00000000000E+00  0.00000000000E+00  0.93800000000E+00  0.93800000000E+00 0. -1.
         11    1    1    2    0    0  0.45966103909E-01  0.15044950246E-01  0.13421622557E+01  0.13430335123E+01  0.51100000000E-03 0.  1.
    9000002    1    1    2    0    0 -0.25763791815E+00 -0.12839377401E+00  0.56745669553E-01  0.98281551121E+00  0.93800000000E+00 0. -1.
         22    1    1    2    0    0  0.21167181424E+00  0.11334882376E+00  0.26010920421E+01  0.26121509765E+01  0.00000000000E+00 0.  1.
</event>
<event>
 5    1  0.3005426E+001  0.1578776E+01  0.7818608E-02  0.3376726E+00
         11   -1    0    0    0    0  0.00000000000E+00  0.00000000000E+00  0.39999999674E+01  0.40000000000E+01  0.51100000000E-03 0.  1.
    9000002   -1    0    0    0    0 -0.00000000000E+00 -0.00000000000E+00  0.00000000000E+00  0.93800000000E+00  0.93800000000E+00 0.  1.
         11    1    1    2    0    0 -0.19657794623E+00 -0.10234663129E+00  0.89045333723E+00  0.91761927224E+00  0.51100000000E-03 0.  1.
    9000002    1    1    2    0    0  0.21251463446E+00  0.39376469137E+00  0.15417317983E+00  0.10506314632E+01  0.93800000000E+00 0.  1.
         22    1    1    2    0    0 -0.15936688233E-01 -0.29141806009E+00  0.29553734503E+01  0.29697492646E+01  0.00000000000E+00 0.  1.
</event>
<event>
 5    1  0.3005426E+001  0.1599677E+01  0.7818608E-02  0.3353714E+00
         11   -1    0    0    0    0  0.00000000000E+00  0.00000000000E+00  0.39999999674E+01  0.40000000000E+01  0.51100000000E-03 0. -1.
    9000002   -1    0    0    0    0 -0.00000000000E+00 -0.00000000000E+00  0.00000000000E+00  0.93800000000E+00  0.93800000000E+00 0. -1.
         11    1    1    2    0    0  0.90511205090E-01 -0.26417239394E-01  0.10431290506E+01  0.10473817958E+01  0.51100000000E-03 0.  1.
    9000002    1    1    2    0    0 -0.34023117672E+00  0.98368782388E-01  0.84143566340E-01  0.10061599330E+01  0.93800000000E+00 0. -1.
         22    1    1    2    0    0  0.24971997163E+00 -0.71951542993E-01  0.28727273504E+01  0.28844582712E+01  0.00000000000E+00 0. -1.
</event>
<event>
 5    1  0.3005426E+001  0.1599662E+01  0.7818608E-02  0.3353730E+00
         11   -1    0    0    0    0  0.00000000000E+00  0.00000000000E+00  0.39999999674E+01  0.40000000000E+01  0.51100000000E-03 0. -1.
    9000002   -1    0    0    0    0 -0.00000000000E+00 -0.00000000000E+00  0.00000000000E+00  0.93800000000E+00  0.93800000000E+00 0.  1.
         11    1    1    2    0    0 -0.77770612416E-01  0.69481806074E-01  0.96718522616E+00  0.97279160788E+00  0.51100000000E-03 0. -1.
    9000002    1    1    2    0    0  0.32009635071E+00 -0.29178998385E+00  0.12712015618E+00  0.10409642657E+01  0.93800000000E+00 0.  1.
         22    1    1    2    0    0 -0.24232573830E+00  0.22230817777E+00  0.29056945850E+01  0.29242441264E+01  0.00000000000E+00 0. -1.
</event>
<event>
 5    1  0.3005426E+001  0.1589609E+01  0.7818608E-02  0.3364719E+00
         11   -1    0    0    0    0  0.00000000000E+00  0.00000000000E+00  0.39999999674E+01  0.40000000000E+01  0.51100000000E-03 0. -1.
    9000002   -1    0    0    0    0 -0.00000000000E+00 -0.00000000000E+00  0.00000000000E+00  0.93800000000E+00  0.93800000000E+00 0. -1.
         11    1    1    2    0    0 -0.73776429120E-01 -0.72540797716E-01  0.31607248319E+00  0.33257661459E+00  0.51100000000E-03 0. -1.
    9000002    1    1    2    0    0  0.19109292965E+00  0.45310923985E+00  0.17437414624E+00  0.10733474898E+01  0.93800000000E+00 0. -1.
         22    1    1    2    0    0 -0.11731650053E+00 -0.38056844213E+00  0.35095533379E+01  0.35320758956E+01  0.00000000000E+00 0. -1.
</event>
<event>
 5    1  0.3005426E+001  0.1599676E+01  0.7818608E-02  0.3353715E+00
         11   -1    0    0    0    0  0.00000000000E+00  0.00000000000E+00  0.39999999674E+01  0.40000000000E+01  0.51100000000E-03 0.  1.
    9000002   -1    0    0    0    0 -0.00000000000E+00 -0.00000000000E+00  0.00000000000E+00  0.93800000000E+00  0.93800000000E+00 0.  1.
         11    1    1    2    0    0  0.19043407853E+00  0.54516447817E-01  0.12736723697E+01  0.12889836104E+01  0.51100000000E-03 0.  1.
    9000002    1    1    2    0    0 -0.55945368767E+00 -0.16198715164E+00  0.23581119613E+00  0.11290169114E+01  0.93800000000E+00 0.  1.
         22    1    1    2    0    0  0.36901960914E+00  0.10747070382E+00  0.24905164015E+01  0.25199994782E+01  0.00000000000E+00 0.  1.
</event>
<event>
 5    1  0.3005426E+001  0.1597716E+01  0.7818608E-02  0.3355846E+00
         11   -1    0    0    0    0  0.00000000000E+00  0.00000000000E+00  0.39999999674E+01  0.40000000000E+01  0.51100000000E-03 0. -1.
    9000002   -1    0    0    0    0 -0.00000000000E+00 -0.00000000000E+00  0.00000000000E+00  0.93800000000E+00  0.93800000000E+00 0.  1.
         11    1    1    2    0    0  0.92373793781E-01  0.61146148963E-01  0.80753605060E+00  0.81509907585E+00  0.51100000000E-03 0. -1.
    9000002    1    1    2    0    0 -0.41723723697E+00 -0.87065068065E-01  0.12463184815E+00  0.10378074656E+01  0.93800000000E+00 0.  1.
         22    1    1    2    0    0  0.32486344319E+00  0.25918919103E-01  0.30678320686E+01  0.30850934586E+01  0.00000000000E+00 0. -1.
</event>
<event>
 5    1  0.3005426E+001  0.1599079E+01  0.7818608E-02  0.3354364E+00
         11   -1    0    0    0    0  0.00000000000E+00  0.00000000000E+00  0.39999999674E+01  0.40000000000E+01  0.51100000000E-03 0. -1.
    9000002   -1    0    0    0    0 -0.00000000000E+00 -0.00000000000E+00  0.00000000000E+00  0.93800000000E+00  0.93800000000E+00 0. -1.
         11    1    1    2    0    0 -0.23551466477E-01 -0.87050352588E-01  0.55847161117E+00  0.56570596343E+00  0.51100000000E-03 0. -1.
    9000002    1    1    2    0    0  0.12773029060E+00  0.45931767465E+00  0.15553048871E+00  0.10636359745E+01  0.93800000000E+00 0. -1.
         22    1    1    2    0    0 -0.10417882412E+00 -0.37226732206E+00  0.32859978675E+01  0.33086580620E+01  0.00000000000E+00 0. -1.
</event>
<event>
 5    1  0.3005426E+001  0.1542946E+01  0.7818608E-02  0.3417715E+00
         11   -1    0    0    0    0  0.00000000000E+00  0.00000000000E+00  0.39999999674E+01  0.40000000000E+01  0.51100000000E-03 0.  1.
    9000002   -1    0    0    0    0 -0.00000000000E+00 -0.00000000000E+00  0.00000000000E+00  0.93800000000E+00  0.93800000000E+00 0. -1.
         11    1    1    2    0    0  0.10860650144E+00 -0.46903009980E-01  0.22321029909E+00  0.25262296657E+00  0.51100000000E-03 0.  1.
    9000002    1    1    2    0    0  0.45324171743E+00  0.34684146408E+00  0.28280769296E+00  0.11338215234E+01  0.93800000000E+00 0. -1.
         22    1    1    2    0    0 -0.56184821887E+00 -0.29993845410E+00  0.34939819753E+01  0.35515555101E+01  0.00000000000E+00 0.  1.
</event>
<event>
 5    1  0.3005426E+001  0.1597847E+01  0.7818608E-02  0.3355703E+00
         11   -1    0    0    0    0  0.00000000000E+00  0.00000000000E+00  0.39999999674E+01  0.40000000000E+01  0.51100000000E-03 0. -1.
    9000002   -1    0    0    0    0 -0.00000000000E+00 -0.00000000000E+00  0.00000000000E+00  0.93800000000E+00  0.93800000000E+00 0.  1.
         11    1    1    2    0    0  0.76512767323E-01 -0.11984890376E-01  0.18658635897E+00  0.20202121581E+00  0.51100000000E-03 0. -1.
    9000002    1    1    2    0    0 -0.91903970700E+00  0.16022886244E+00  0.67917093099E+00  0.14870858835E+01  0.93800000000E+00 0.  1.
         22    1    1    2    0    0  0.84252693968E+00 -0.14824397207E+00  0.31342426774E+01  0.32488929007E+01  0.00000000000E+00 0. -1.
</event>
<event>
 5    1  0.3005426E+001  0.1599588E+01  0.7818608E-02  0.3353811E+00
         11   -1    0    0    0    0  0.00000000000E+00  0.00000000000E+00  0.39999999674E+01  0.40000000000E+01  0.51100000000E-03 0. -1.
    9000002   -1    0    0    0    0 -0.00000000000E+00 -0.00000000000E+00  0.00000000000E+00  0.93800000000E+00  0.93800000000E+00 0.  1.
         11    1    1    2    0    0  0.18311345282E-01 -0.12397464358E+00  0.76999627531E+00  0.78012790152E+00  0.51100000000E-03 0. -1.
    9000002    1    1    2    0    0 -0.13326127164E+00  0.59691052825E+00  0.26172860312E+00  0.11499593936E+01  0.93800000000E+00 0.  1.
         22    1    1    2    0    0  0.11494992635E+00 -0.47293588467E+00  0.29682750889E+01  0.30079127049E+01  0.00000000000E+00 0. -1.
</event>
<event>
 5    1  0.3005426E+001  0.1599668E+01  0.7818608E-02  0.3353724E+00
         11   -1    0    0    0    0  0.00000000000E+00  0.00000000000E+00  0.39999999674E+01  0.40000000000E+01  0.51100000000E-03 0. -1.
    9000002   -1    0    0    0    0 -0.00000000000E+00 -0.00000000000E+00  0.00000000000E+00  0.93800000000E+00  0.93800000000E+00 0.  1.
         11    1    1    2    0    0 -0.80316128581E-01 -0.13465746024E+00  0.12674662504E+01  0.12771273504E+01  0.51100000000E-03 0. -1.
    9000002    1    1    2    0    0  0.23362416592E+00  0.40962466789E+00  0.15153493829E+00  0.10607447652E+01  0.93800000000E+00 0.  1.
         22    1    1    2    0    0 -0.15330803734E+00 -0.27496720766E+00  0.25809987787E+01  0.26001278844E+01  0.00000000000E+00 0. -1.
</event>
<event>
 5    1  0.3005426E+001  0.1599339E+01  0.7818608E-02  0.3354081E+00
         11   -1    0    0    0    0  0.00000000000E+00  0.00000000000E+00  0.39999999674E+01  0.40000000000E+01  0.51100000000E-03 0. -1.
    9000002   -1    0    0    0    0 -0.00000000000E+00 -0.00000000000E+00  0.00000000000E+00  0.93800000000E+00  0.93800000000E+00 0.  1.
         11    1    1    2    0    0 -0.80696691067E-01  0.11463225799E+00  0.13229305654E+01  0.13303375709E+01  0.51100000000E-03 0. -1.
    9000002    1    1    2    0    0  0.17952408964E+00 -0.35842561661E+00  0.10868715910E+00  0.10258434188E+01  0.93800000000E+00 0.  1.
         22    1    1    2    0    0 -0.98827398576E-01  0.24379335862E+00  0.25683822429E+01  0.25818190103E+01  0.00000000000E+00 0. -1.
</event>
<event>
 5    1  0.3005426E+001  0.1596327E+01  0.7818608E-02  0.3357360E+00
         11   -1    0    0    0    0  0.00000000000E+00  0.00000000000E+00  0.39999999674E+01  0.40000000000E+01  0.51100000000E-03 0.  1.
    9000002   -1    0    0    0    0 -0.00000000000E+00 -0.00000000000E+00  0.00000000000E+00  0.93800000000E+00  0.93800000000E+00 0.  1.
         11    1    1    2    0    0  0.63314846008E-02 -0.17550258956E-01  0.24254454319E+00  0.24326162015E+00  0.51100000000E-03 0.  1.
    9000002    1    1    2    0    0  0.43377661711E+00  0.31110943825E+00  0.19934290326E+00  0.10975121089E+01  0.93800000000E+00 0.  1.
         22    1    1    2    0    0 -0.44010810171E+00 -0.29355917929E+00  0.35581125209E+01  0.35972262709E+01  0.00000000000E+00 0.  1.
</event>
<event>
 5    1  0.3005426E+001  0.1569495E+01  0.7818608E-02  0.3387153E+00
         11   -1    0    0    0    0  0.00000000000E+00  0.00000000000E+00  0.39999999674E+01  0.40000000000E+01  0.51100000000E-03 0. -1.
    9000002   -1    0    0    0    0 -0.00000000000E+00 -0.00000000000E+00  0.00000000000E+00  0.93800000000E+00  0.93800000000E+00 0. -1.
         11    1    1    2    0    0 -0.28802691213E-01 -0.15066081382E+00  0.13493020073E+01  0.13579927997E+01  0.51100000000E-03 0. -1.
    9000002    1    1    2    0    0  0.48061427760E+00  0.24925607111E-01  0.18532083142E+00  0.10704200952E+01  0.93800000000E+00 0. -1.
         22    1    1    2    0    0 -0.45181158638E+00  0.12573520671E+00  0.24653771286E+01  0.25095871051E+01  0.00000000000E+00 0. -1.
</event>
<event>
 5    1  0.4861268E+001  0.1592943E+01  0.7818608E-02  0.3361058E+00
         11   -1    0    0    0    0  0.00000000000E+00  0.00000000000E+00  0.39999999674E+01  0.40000000000E+01  0.51100000000E-03 0. -1.
    9000002   -1    0    0    0    0 -0.00000000000E+00 -0.00000000000E+00  0.00000000000E+00  0.93800000000E+00  0.93800000000E+00 0.  1.
         11    1    1    2    0    0 -0.44057889890E-01 -0.23034293923E-01  0.14396702198E+01  0.14405284722E+01  0.51100000000E-03 0. -1.
    9000002    1    1    2    0    0  0.10127699382E+00 -0.19737803209E+00  0.37730911176E-01  0.96461533198E+00  0.93800000000E+00 0.  1.
         22    1    1    2    0    0 -0.57219103930E-01  0.22041232602E+00  0.25225988364E+01  0.25328561958E+01  0.00000000000E+00 0. -1.
</event>
<event>
 5    1  0.3005426E+001  0.1527842E+01  0.7818608E-02  0.3435608E+00
         11   -1    0    0    0    0  0.00000000000E+00  0.00000000000E+00  0.39999999674E+01  0.40000000000E+01  0.51100000000E-03 0. -1.
    9000002   -1    0    0    0    0 -0.00000000000E+00 -0.00000000000E+00  0.00000000000E+00  0.93800000000E+00  0.93800000000E+00 0. -1.
         11    1    1    2    0    0  0.56520972040E-01  0.26701092210E+00  0.14215109665E+01  0.14474747465E+01  0.51100000000E-03 0. -1.
    9000002    1    1    2    0    0 -0.42560450207E-01  0.11107271839E+00  0.63938401128E-01  0.94767117706E+00  0.93800000000E+00 0. -1.
         22    1    1    2    0    0 -0.13960521834E-01 -0.37808364049E+00  0.25145505997E+01  0.25428540764E+01  0.00000000000E+00 0. -1.
</event>
<event>
 5    1  0.3005426E+001  0.1593534E+01  0.7818608E-02  0.3360411E+00
         11   -1    0    0    0    0  0.00000000000E+00  0.00000000000E+00  0.39999999674E+01  0.40000000000E+01  0.51100000000E-03 0.  1.
    9000002   -1    0    0    0    0 -0.00000000000E+00 -0.00000000000E+00  0.00000000000E+00  0.93800000000E+00  0.93800000000E+00 0.  1.
         11    1    1    2    0    0 -0.44997242757E-02 -0.39545781184E-01  0.76986526315E+00  0.77089357297E+00  0.51100000000E-03 0.  1.
    9000002    1    1    2    0    0  0.29339516681E+00 -0.68488393959E-01  0.65388407262E-01  0.98736570115E+00  0.93800000000E+00 0.  1.
         22    1    1    2    0    0 -0.28889544253E+00  0.10803417514E+00  0.31647462970E+01  0.31797407259E+01  0.00000000000E+00 0.  1.
</event>
<event>
 5    1  0.3005426E+001  0.1599676E+01  0.7818608E-02  0.3353715E+00
         11   -1    0    0    0    0  0.00000000000E+00  0.00000000000E+00  0.39999999674E+01  0.40000000000E+01  0.51100000000E-03 0. -1.
    9000002   -1    0    0    0    0 -0.00000000000E+00 -0.00000000000E+00  0.00000000000E+00  0.93800000000E+00  0.93800000000E+00 0.  1.
         11    1    1    2    0    0 -0.10314756720E+00 -0.13615702531E-01  0.85736949313E+00  0.86365937547E+00  0.51100000000E-03 0.  1.
    9000002    1    1    2    0    0  0.46348250298E+00  0.64659777676E-01  0.14914416395E+00  0.10588129670E+01  0.93800000000E+00 0.  1.
         22    1    1    2    0    0 -0.36033493578E+00 -0.51044075145E-01  0.29934863103E+01  0.30155276575E+01  0.00000000000E+00 0. -1.
</event>
<event>
 5    1  0.3005426E+001  0.1599664E+01  0.7818608E-02  0.3353728E+00
         11   -1    0    0    0    0  0.00000000000E+00  0.00000000000E+00  0.39999999674E+01  0.40000000000E+01  0.51100000000E-03 0.  1.
    9000002   -1    0    0    0    0 -0.00000000000E+00 -0.00000000000E+00  0.00000000000E+00  0.93800000000E+00  0.93800000000E+00 0.  1.
         11    1    1    2    0    0  0.42316026141E-01 -0.10832072749E+00  0.13263993358E+01  0.13314876962E+01  0.51100000000E-03 0.  1.
    9000002    1    1    2    0    0 -0.11959990347E+00  0.33076287846E+00  0.82973889614E-01  0.10052048970E+01  0.93800000000E+00 0.  1.
         22    1    1    2    0    0  0.77283877333E-01 -0.22244215098E+00  0.25906267419E+01  0.26013074067E+01  0.00000000000E+00 0. -1.
</event>
<event>
 5    1  0.3005426E+001  0.1599677E+01  0.7818608E-02  0.3353714E+00
         11   -1    0    0    0    0  0.00000000000E+00  0.00000000000E+00  0.39999999674E+01  0.40000000000E+01  0.51100000000E-03 0. -1.
    9000002   -1    0    0    0    0 -0.00000000000E+00 -0.00000000000E+00  0.00000000000E+00  0.93800000000E+00  0.93800000000E+00 0.  1.
         11    1    1    2    0    0  0.16175504655E+00  0.97864597412E-01  0.85141151769E+00  0.87214907447E+00  0.51100000000E-03 0.  1.
    9000002    1    1    2    0    0 -0.67227453578E+00 -0.40756771090E+00  0.45318453918E+00  0.13050995046E+01  0.93800000000E+00 0.  1.
         22    1    1    2    0    0  0.51051948923E+00  0.30970311349E+00  0.26954039105E+01  0.27607514209E+01  0.00000000000E+00 0. -1.
</event>
<event>
 5    1  0.3005426E+001  0.1598912E+01  0.7818608E-02  0.3354545E+00
         11   -1    0    0    0    0  0.00000000000E+00  0.00000000000E+00  0.39999999674E+01  0.40000000000E+01  0.51100000000E-03 0. -1.
    9000002   -1    0    0    0    0 -0.00000000000E+00 -0.00000000000E+00  0.00000000000E+00  0.93800000000E+00  0.93800000000E+00 0. -1.
         11    1    1    2    0    0  0.11438858229E-02 -0.77906551010E-01  0.50048719819E+00  0.50651597787E+00  0.51100000000E-03 0. -1.
    9000002    1    1    2    0    0 -0.17418459687E-01  0.42906138483E+00  0.12552097694E+00  0.10392288441E+01  0.93800000000E+00 0. -1.
         22    1    1    2    0    0  0.16274573864E-01 -0.35115483381E+00  0.33739917922E+01  0.33922551781E+01  0.00000000000E+00 0. -1.
</event>
<event>
 5    1  0.4369481E+001  0.1587050E+01  0.7818608E-02  0.3367540E+00
         11   -1    0    0    0    0  0.00000000000E+00  0.00000000000E+00  0.39999999674E+01  0.40000000000E+01  0.51100000000E-03 0.  1.
    9000002   -1    0    0    0    0 -0.00000000000E+00 -0.00000000000E+00  0.00000000000E+00  0.93800000000E+00  0.93800000000E+00 0.  1.
         11    1    1    2    0    0 -0.29241078956E-01  0.65569379784E-01  0.13661446614E+01  0.13680299270E+01  0.51100000000E-03 0.  1.
    9000002    1    1    2    0    0 -0.27744072486E-01  0.16547432909E+00  0.28028521189E-01  0.95330010235E+00  0.93800000000E+00 0.  1.
         22    1    1    2    0    0  0.56985151443E-01 -0.23104370887E+00  0.26058267848E+01  0.26166699706E+01  0.00000000000E+00 0.  1.
</event>
<event>
 5    1  0.3005426E+001  0.1573895E+01  0.7818608E-02  0.3382193E+00
         11   -1    0    0    0    0  0.00000000000E+00  0.00000000000E+00  0.39999999674E+01  0.40000000000E+01  0.51100000000E-03 0. -1.
    9000002   -1    0    0    0    0 -0.00000000000E+00 -0.00000000000E+00  0.00000000000E+00  0.93800000000E+00  0.93800000000E+00 0.  1.
         11    1    1    2    0    0  0.18182236870E-01 -0.12256667938E+00  0.10157023791E+01  0.10232325096E+01  0.51100000000E-03 0. -1.
    9000002    1    1    2    0    0  0.63764912617E-01 -0.16611434808E+00  0.40365173405E-01  0.95558007929E+00  0.93800000000E+00 0.  1.
         22    1    1    2    0    0 -0.81947149488E-01  0.28868102746E+00  0.29439324148E+01  0.29591874111E+01  0.00000000000E+00 0.  1.
</event>
<event>
 5    1  0.3005426E+001  0.1591977E+01  0.7818608E-02  0.3362118E+00
         11   -1    0    0    0    0  0.00000000000E+00  0.00000000000E+00  0.39999999674E+01  0.40000000000E+01  0.51100000000E-03 0.  1.
    9000002   -1    0    0    0    0 -0.00000000000E+00 -0.00000000000E+00  0.00000000000E+00  0.93800000000E+00  0.93800000000E+00 0. -1.
         11    1    1    2    0    0  0.91696328221E-01  0.16746647925E+00  0.11764624715E+01  0.11918546246E+01  0.51100000000E-03 0.  1.
    9000002    1    1    2    0    0 -0.24291598709E-01 -0.68354576731E+00  0.34143167526E+00  0.12100597038E+01  0.93800000000E+00 0. -1.
         22    1    1    2    0    0 -0.67404729512E-01  0.51607928806E+00  0.24821058206E+01  0.25360856717E+01  0.00000000000E+00 0.  1.
</event>
<event>
 5    1  0.3005426E+001  0.1599581E+01  0.7818608E-02  0.3353818E+00
         11   -1    0    0    0    0  0.00000000000E+00  0.00000000000E+00  0.39999999674E+01  0.40000000000E+01  0.51100000000E-03 0.  1.
    9000002   -1    0    0    0    0 -0.00000000000E+00 -0.00000000000E+00  0.00000000000E+00  0.93800000000E+00  0.93800000000E+00 0.  1.
         11    1    1    2    0    0  0.16860656943E+00  0.35362445727E+00  0.11765880566E+01  0.12400960237E+01  0.51100000000E-03 0.  1.
    9000002    1    1    2    0    0 -0.47422029740E+00 -0.93115776392E+00  0.90327824958E+00  0.16696392628E+01  0.93800000000E+00 0.  1.
         22    1    1    2    0    0  0.30561372797E+00  0.57753330665E+00  0.19201336612E+01  0.20282647135E+01  0.00000000000E+00 0.  1.
</event>
<event>
 5    1  0.3005426E+001  0.1542663E+01  0.7818608E-02  0.3418047E+00
         11   -1    0    0    0    0  0.00000000000E+00  0.00000000000E+00  0.39999999674E+01  0.40000000000E+01  0.51100000000E-03 0. -1.
    9000002   -1    0    0    0    0 -0.00000000000E+00 -0.00000000000E+00  0.00000000000E+00  0.93800000000E+00  0.93800000000E+00 0.  1.
         11    1    1    2    0    0  0.59474436288E-01 -0.32333876642E+00  0.30456950151E+00  0.44816069530E+00  0.51100000000E-03 0. -1.
    9000002    1    1    2    0    0 -0.35924612586E-01 -0.29146704014E+00  0.28362265161E+00  0.10230002062E+01  0.93800000000E+00 0.  1.
         22    1    1    2    0    0 -0.23549823702E-01  0.61480580655E+00  0.34118078142E+01  0.34668390985E+01  0.00000000000E+00 0. -1.
</event>
<event>
 5    1  0.3005426E+001  0.1599606E+01  0.7818608E-02  0.3353791E+00
         11   -1    0    0    0    0  0.00000000000E+00  0.00000000000E+00  0.39999999674E+01  0.40000000000E+01  0.51100000000E-03 0. -1.
    9000002   -1    0    0    0    0 -0.00000000000E+00 -0.00000000000E+00  0.00000000000E+00  0.93800000000E+00  0.93800000000E+00 0. -1.
         11    1    1    2    0    0  0.41931738558E-02 -0.23000437701E-02  0.47587435528E-01  0.47829886571E-01  0.51100000000E-03 0. -1.
    9000002    1    1    2    0    0 -0.45679202479E+00  0.53164715931E-01  0.14391171128E+00  0.10545330823E+01  0.93800000000E+00 0. -1.
         22    1    1    2    0    0  0.45259885093E+00 -0.50864672161E-01  0.38085008206E+01  0.38356370312E+01  0.00000000000E+00 0. -1.
</event>
<event>
 5    1  0.3005426E+001  0.1596460E+01  0.7818608E-02  0.3357214E+00
         11   -1    0    0    0    0  0.00000000000E+00  0.00000000000E+00  0.39999999674E+01  0.40000000000E+01  0.51100000000E-03 0. -1.
    9000002   -1    0    0    0    0 -0.00000000000E+00 -0.00000000000E+00  0.00000000000E+00  0.93800000000E+00  0.93800000000E+00 0. -1.
         11    1    1    2    0    0  0.27044814173E-02 -0.34522782865E-01  0.10884048568E+00  0.11421755207E+00  0.51100000000E-03 0. -1.
    9000002    1    1    2    0    0 -0.23789424118E+00  0.41632715087E+00  0.15971901382E+00  0.10654933739E+01  0.93800000000E+00 0. -1.
         22    1    1    2    0    0  0.23518975976E+00 -0.38180436800E+00  0.37314404679E+01  0.37582890740E+01  0.00000000000E+00 0. -1.
</event>
<event>
 5    1  0.3005426E+001  0.1599247E+01  0.7818608E-02  0.3354181E+00
         11   -1    0    0    0    0  0.00000000000E+00  0.00000000000E+00  0.39999999674E+01  0.40000000000E+01  0.51100000000E-03 0. -1.
    9000002   -1    0    0    0    0 -0.00000000000E+00 -0.00000000000E+00  0.00000000000E+00  0.93800000000E+00  0.93800000000E+00 0.  1.
         11    1    1    2    0    0  0.64518580671E-01 -0.50820974864E-01  0.51848868264E+00  0.52495351593E+00  0.51100000000E-03 0. -1.
    9000002    1    1    2    0    0 -0.41187877621E+00  0.26682104664E+00  0.16499785014E+00  0.10714036997E+01  0.93800000000E+00 0.  1.
         22    1    1    2    0    0  0.34736019554E+00 -0.21600007178E+00  0.33165134346E+01  0.33416427843E+01  0.00000000000E+00 0. -1.
</event>
<event>
 5    1  0.3005426E+001  0.1599331E+01  0.7818608E-02  0.3354089E+00
         11   -1    0    0    0    0  0.00000000000E+00  0.00000000000E+00  0.39999999674E+01  0.40000000000E+01  0.51100000000E-03 0.  1.
    9000002   -1    0    0    0    0 -0.00000000000E+00 -0.00000000000E+00  0.00000000000E+00  0.93800000000E+00  0.93800000000E+00 0. -1.
         11    1    1    2    0    0  0.47665115890E-01  0.13401428027E+00  0.77755496449E+00  0.79045795240E+00  0.51100000000E-03 0.  1.
    9000002    1    1    2    0    0 -0.17411043027E+00 -0.69694214172E+00  0.37106478666E+00  0.12383763026E+01  0.93800000000E+00 0. -1.
         22    1    1    2    0    0  0.12644531438E+00  0.56292786145E+00  0.28513802162E+01  0.29091657450E+01  0.00000000000E+00 0.  1.
</event>
<event>
 5    1  0.3005426E+001  0.1596833E+01  0.7818608E-02  0.3356808E+00
         11   -1    0    0    0    0  0.00000000000E+00  0.00000000000E+00  0.39999999674E+01  0.40000000000E+01  0.51100000000E-03 0.  1.
    9000002   -1    0    0    0    0 -0.00000000000E+00 -0.00000000000E+00  0.00000000000E+00  0.93800000000E+00  0.93800000000E+00 0.  1.
         11    1    1    2    0    0  0.86863385380E-01 -0.63748089839E-01  0.89547052677E+00  0.90192948289E+00  0.51100000000E-03 0.  1.
    9000002    1    1    2    0    0 -0.17019173935E+00  0.38763948085E+00  0.12367991808E+00  0.10365183633E+01  0.93800000000E+00 0.  1.
         22    1    1    2    0    0  0.83328353967E-01 -0.32389139102E+00  0.29808495225E+01  0.29995521538E+01  0.00000000000E+00 0.  1.
</event>
<event>
 5    1  0.3005426E+001  0.1534857E+01  0.7818608E-02  0.3427251E+00
         11   -1    0    0    0    0  0.00000000000E+00  0.00000000000E+00  0.39999999674E+01  0.40000000000E+01  0.51100000000E-03 0. -1.
    9000002   -1    0    0    0    0 -0.00000000000E+00 -0.00000000000E+00  0.00000000000E+00  0.93800000000E+00  0.93800000000E+00 0. -1.
         11    1    1    2    0    0  0.34299286263E-01  0.22183579941E+00  0.13805227665E+01  0.13986532568E+01  0.51100000000E-03 0. -1.
    9000002    1    1    2    0    0 -0.25148560021E+00  0.18627148585E+00  0.11839003571E+00  0.99589270211E+00  0.93800000000E+00 0. -1.
         22    1    1    2    0    0  0.21718631394E+00 -0.40810728527E+00  0.25010871652E+01  0.25434540411E+01  0.00000000000E+00 0. -1.
</event>
<event>
 5    1  0.3005426E+001  0.1483038E+01  0.7818608E-02  0.3490991E+00
         11   -1    0    0    0    0  0.00000000000E+00  0.00000000000E+00  0.39999999674E+01  0.40000000000E+01  0.51100000000E-03 0. -1.
    9000002   -1    0    0    0    0 -0.00000000000E+00 -0.00000000000E+00  0.00000000000E+00  0.93800000000E+00  0.93800000000E+00 0.  1.
         11    1    1    2    0    0  0.16368056946E+00  0.26847999977E+00  0.54599814220E+00  0.63006910057E+00  0.51100000000E-03 0. -1.
    9000002    1    1    2    0    0 -0.34835301477E+00  0.32993243116E-01  0.18281554123E+00  0.10176953862E+01  0.93800000000E+00 0.  1.
         22    1    1    2    0    0  0.18467244532E+00 -0.30147324288E+00  0.32711862839E+01  0.32902355132E+01  0.00000000000E+00 0. -1.
</event>
<event>
 5    1  0.3005426E+001  0.1599669E+01  0.7818608E-02  0.3353723E+00
         11   -1    0    0    0    0  0.00000000000E+00  0.00000000000E+00  0.39999999674E+01  0.40000000000E+01  0.51100000000E-03 0. -1.
    9000002   -1    0    0    0    0 -0.00000000000E+00 -0.00000000000E+00  0.00000000000E+00  0.93800000000E+00  0.93800000000E+00 0. -1.
         11    1    1    2    0    0  0.38123865888E-01 -0.10487099320E+00  0.11646891396E+01  0.11700223961E+01  0.51100000000E-03 0. -1.
    9000002    1    1    2    0    0 -0.13809435955E+00  0.35303352301E+00  0.96684818512E-01  0.10163142598E+01  0.93800000000E+00 0. -1.
         22    1    1    2    0    0  0.99970493664E-01 -0.24816252981E+00  0.27386260093E+01  0.27516633441E+01  0.00000000000E+00 0. -1.
</event>
<event>
 5    1  0.3005426E+001  0.1599677E+01  0.7818608E-02  0.3353714E+00
         11   -1    0    0    0    0  0.00000000000E+00  0.00000000000E+00  0.39999999674E+01  0.40000000000E+01  0.51100000000E-03 0. -1.
    9000002   -1    0    0    0    0 -0.00000000000E+00 -0.00000000000E+00  0.00000000000E+00  0.93800000000E+00  0.93800000000E+00 0. -1.
         11    1    1    2    0    0 -0.10199407894E+00  0.30538120097E-01  0.11282063572E+01  0.11332189614E+01  0.51100000000E-03 0. -1.
    9000002    1    1    2    0    0  0.35318978393E+00 -0.10364037072E+00  0.91030574288E-01  0.10117385608E+01  0.93800000000E+00 0. -1.
         22    1    1    2    0    0 -0.25119570499E+00  0.73102250624E-01  0.27807630359E+01  0.27930424778E+01  0.00000000000E+00 0. -1.
</event>
<event>
 5    1  0.3005426E+001  0.1448969E+01  0.7818608E-02  0.3535587E+00
         11   -1    0    0    0    0  0.00000000000E+00  0.00000000000E+00  0.39999999674E+01  0.40000000000E+01  0.51100000000E-03 0. -1.
    9000002   -1    0    0    0    0 -0.00000000000E+00 -0.00000000000E+00  0.00000000000E+00  0.93800000000E+00  0.93800000000E+00 0.  1.
         11    1    1    2    0    0  0.24723099375E+00 -0.34122940899E+00  0.10582666716E+01  0.11390738708E+01  0.51100000000E-03 0. -1.
    9000002    1    1    2    0    0 -0.20851317312E+00 -0.13648686619E+00  0.16908727580E+00  0.98516034981E+00  0.93800000000E+00 0.  1.
         22    1    1    2    0    0 -0.38717820625E-01  0.47771627517E+00  0.27726460200E+01  0.28137657794E+01  0.00000000000E+00 0. -1.
</event>
<event>
 5    1  0.3005426E+001  0.1599675E+01  0.7818608E-02  0.3353716E+00
         11   -1    0    0    0    0  0.00000000000E+00  0.00000000000E+00  0.39999999674E+01  0.40000000000E+01  0.51100000000E-03 0. -1.
    9000002   -1    0    0    0    0 -0.00000000000E+00 -0.00000000000E+00  0.00000000000E+00  0.93800000000E+00  0.93800000000E+00 0.  1.
         11    1    1    2    0    0  0.13222205537E+00  0.49056013509E-01  0.11470161917E+01  0.11556537412E+01  0.51100000000E-03 0. -1.
    9000002    1    1    2    0    0 -0.44304374847E+00 -0.16916960068E+00  0.15331919094E+00  0.10621943754E+01  0.93800000000E+00 0.  1.
         22    1    1    2    0    0  0.31082169310E+00  0.12011358717E+00  0.26996645847E+01  0.27201518834E+01  0.00000000000E+00 0. -1.
</event>
<event>
 5    1  0.3005426E+001  0.1599657E+01  0.7818608E-02  0.3353736E+00
         11   -1    0    0    0    0  0.00000000000E+00  0.00000000000E+00  0.39999999674E+01  0.40000000000E+01  0.51100000000E-03 0. -1.
    9000002   -1    0    0    0    0 -0.00000000000E+00 -0.00000000000E+00  0.00000000000E+00  0.93800000000E+00  0.93800000000E+00 0. -1.
         11    1    1    2    0    0  0.55964018278E-01  0.11838363225E+00  0.14459717774E+01  0.14518888725E+01  0.51100000000E-03 0. -1.
    9000002    1    1    2    0    0 -0.16425089563E+00 -0.32618208331E+00  0.89598408984E-01  0.10105666643E+01  0.93800000000E+00 0. -1.
         22    1    1    2    0    0  0.10828687735E+00  0.20779845105E+00  0.24644297809E+01  0.24755444632E+01  0.00000000000E+00 0. -1.
</event>
<event>
 5    1  0.3005426E+001  0.1599530E+01  0.7818608E-02  0.3353874E+00
         11   -1    0    0    0    0  0.00000000000E+00  0.00000000000E+00  0.39999999674E+01  0.40000000000E+01  0.51100000000E-03 0.  1.
    9000002   -1    0    0    0    0 -0.00000000000E+00 -0.00000000000E+00  0.00000000000E+00  0.93800000000E+00  0.93800000000E+00 0.  1.
         11    1    1    2    0    0 -0.71461596375E-01 -0.32320478232E-03  0.35094472189E+00  0.35814706918E+00  0.51100000000E-03 0.  1.
    9000002    1    1    2    0    0  0.68127326021E+00 -0.58936689364E-01  0.33292287766E+00  0.12075961373E+01  0.93800000000E+00 0.  1.
         22    1    1    2    0    0 -0.60981166384E+00  0.59259894146E-01  0.33161323678E+01  0.33722567935E+01  0.00000000000E+00 0.  1.
</event>
<event>
 5    1  0.3005426E+001  0.1599677E+01  0.7818608E-02  0.3353714E+00
         11   -1    0    0    0    0  0.00000000000E+00  0.00000000000E+00  0.39999999674E+01  0.40000000000E+01  0.51100000000E-03 0.  1.
    9000002   -1    0    0    0    0 -0.00000000000E+00 -0.00000000000E+00  0.00000000000E+00  0.93800000000E+00  0.93800000000E+00 0. -1.
         11    1    1    2    0    0  0.89543885292E-01  0.92912244017E-01  0.99414420807E+00  0.10024837954E+01  0.51100000000E-03 0.  1.
    9000002    1    1    2    0    0 -0.34335486169E+00 -0.35733479377E+00  0.16798949309E+00  0.10740787614E+01  0.93800000000E+00 0. -1.
         22    1    1    2    0    0  0.25381097640E+00  0.26442254975E+00  0.28378662662E+01  0.28614374432E+01  0.00000000000E+00 0.  1.
</event>
<event>
 5    1  0.3005426E+001  0.1599615E+01  0.7818608E-02  0.3353781E+00
         11   -1    0    0    0    0  0.00000000000E+00  0.00000000000E+00  0.39999999674E+01  0.40000000000E+01  0.51100000000E-03 0.  1.
    9000002   -1    0    0    0    0 -0.00000000000E+00 -0.00000000000E+00  0.00000000000E+00  0.93800000000E+00  0.93800000000E+00 0.  1.
         11    1    1    2    0    0  0.10596133585E+00 -0.61147583920E-01  0.12870983306E+01  0.12928995341E+01  0.51100000000E-03 0.  1.
    9000002    1    1    2    0    0 -0.34352559257E+00  0.17010965073E+00  0.98963174959E-01  0.10181281039E+01  0.93800000000E+00 0.  1.
         22    1    1    2    0    0  0.23756425671E+00 -0.10896206681E+00  0.26139384618E+01  0.26269723619E+01  0.00000000000E+00 0.  1.
</event>
<event>
 5    1  0.3005426E+001  0.1599586E+01  0.7818608E-02  0.3353813E+00
         11   -1    0    0    0    0  0.00000000000E+00  0.00000000000E+00  0.39999999674E+01  0.40000000000E+01  0.51100000000E-03 0. -1.
    9000002   -1    0    0    0    0 -0.00000000000E+00 -0.00000000000E+00  0.00000000000E+00  0.93800000000E+00  0.93800000000E+00 0. -1.
         11    1    1    2    0    0 -0.12542647686E+00  0.57377864474E-01  0.89236016688E+00  0.90295678135E+00  0.51100000000E-03 0. -1.
    9000002    1    1    2    0    0  0.49711421671E+00 -0.22329149197E+00  0.20501579945E+00  0.11040186198E+01  0.93800000000E+00 0. -1.
         22    1    1    2    0    0 -0.37168773985E+00  0.16591362750E+00  0.29026240010E+01  0.29310245989E+01  0.00000000000E+00 0. -1.
</event>
<event>
 5    1  0.3005426E+001  0.1585480E+01  0.7818608E-02  0.3369275E+00
         11   -1    0    0    0    0  0.00000000000E+00  0.00000000000E+00  0.39999999674E+01  0.40000000000E+01  0.51100000000E-03 0.  1.
    9000002   -1    0    0    0    0 -0.00000000000E+00 -0.00000000000E+00  0.00000000000E+00  0.93800000000E+00  0.93800000000E+00 0.  1.
         11    1    1    2    0    0 -0.18190117543E+00  0.20069704617E-01  0.49658025524E+00  0.52922872341E+00  0.51100000000E-03 0.  1.
    9000002    1    1    2    0    0  0.60885151228E+00 -0.12588514930E+00  0.28558637815E+00  0.11610128398E+01  0.93800000000E+00 0.  1.
         22    1    1    2    0    0 -0.42695033685E+00  0.10581544469E+00  0.32178333340E+01  0.32477584368E+01  0.00000000000E+00 0.  1.
</event>
<event>
 5    1  0.3005426E+001  0.1599675E+01  0.7818608E-02  0.3353716E+00
         11   -1    0    0    0    0  0.00000000000E+00  0.00000000000E+00  0.39999999674E+01  0.40000000000E+01  0.51100000000E-03 0. -1.
    9000002   -1    0    0    0    0 -0.00000000000E+00 -0.00000000000E+00  0.00000000000E+00  0.93800000000E+00  0.93800000000E+00 0. -1.
         11    1    1    2    0    0  0.15095054218E+00  0.41099287169E-01  0.13980245288E+01  0.14067508883E+01  0.51100000000E-03 0. -1.
    9000002    1    1    2    0    0 -0.41432610969E+00 -0.11188285447E+00  0.12472333702E+00  0.10390302253E+01  0.93800000000E+00 0. -1.
         22    1    1    2    0    0  0.26337556750E+00  0.70783567301E-01  0.24772521016E+01  0.24922188864E+01  0.00000000000E+00 0.  1.
</event>
<event>
 5    1  0.3005426E+001  0.1599601E+01  0.7818608E-02  0.3353797E+00
         11   -1    0    0    0    0  0.00000000000E+00  0.00000000000E+00  0.39999999674E+01  0.40000000000E+01  0.51100000000E-03 0.  1.
    9000002   -1    0    0    0    0 -0.00000000000E+00 -0.00000000000E+00  0.00000000000E+00  0.93800000000E+00  0.93800000000E+00 0. -1.
         11    1    1    2    0    0 -0.25226798104E-01 -0.10353698292E+00  0.12718467787E+01  0.12763035641E+01  0.51100000000E-03 0.  1.
    9000002    1    1    2    0    0  0.96947803934E-01  0.34224002963E+00  0.84953403795E-01  0.10067711733E+01  0.93800000000E+00 0. -1.
         22    1    1    2    0    0 -0.71721005830E-01 -0.23870304671E+00  0.26431997849E+01  0.26549252626E+01  0.00000000000E+00 0.  1.
</event>
<event>
 5    1  0.3005426E+001  0.1599426E+01  0.7818608E-02  0.3353987E+00
         11   -1    0    0    0    0  0.00000000000E+00  0.00000000000E+00  0.39999999674E+01  0.40000000000E+01  0.51100000000E-03 0.  1.
    9000002   -1    0    0    0    0 -0.00000000000E+00 -0.00000000000E+00  0.00000000000E+00  0.93800000000E+00  0.93800000000E+00 0. -1.
         11    1    1    2    0    0  0.82824772660E-01 -0.19836217423E-02  0.88165013261E+00  0.88553435573E+00  0.51100000000E-03 0.  1.
    9000002    1    1    2    0    0 -0.41600538116E+00  0.56961874358E-01  0.11944589472E+00  0.10346093244E+01  0.93800000000E+00 0. -1.
         22    1    1    2    0    0  0.33318060850E+00 -0.54978252616E-01  0.29989039400E+01  0.30178563199E+01  0.00000000000E+00 0.  1.
</event>
<event>
 5    1  0.3005426E+001  0.1598321E+01  0.7818608E-02  0.3355188E+00
         11   -1    0    0    0    0  0.00000000000E+00  0.00000000000E+00  0.39999999674E+01  0.40000000000E+01  0.51100000000E-03 0. -1.
    9000002   -1    0    0    0    0 -0.00000000000E+00 -0.00000000000E+00  0.00000000000E+00  0.93800000000E+00  0.93800000000E+00 0.  1.
         11    1    1    2    0    0  0.69609608666E-01  0.22210154174E+00  0.10832268706E+01  0.11079509497E+01  0.51100000000E-03 0. -1.
    9000002    1    1    2    0    0 -0.16844362390E+00 -0.63548490564E+00  0.30698197065E+00  0.11858736231E+01  0.93800000000E+00 0.  1.
         22    1    1    2    0    0  0.98834015238E-01  0.41338336390E+00  0.26097911261E+01  0.26441754272E+01  0.00000000000E+00 0.  1.
</event>
<event>
 5    1  0.3005426E+001  0.1594739E+01  0.7818608E-02  0.3359093E+00
         11   -1    0    0    0    0  0.00000000000E+00  0.00000000000E+00  0.39999999674E+01  0.40000000000E+01  0.51100000000E-03 0.  1.
    9000002   -1    0    0    0    0 -0.00000000000E+00 -0.00000000000E+00  0.00000000000E+00  0.93800000000E+00  0.93800000000E+00 0. -1.
         11    1    1    2    0    0 -0.11447735314E-01  0.29307734118E-01  0.49049471594E+00  0.49150312452E+00  0.51100000000E-03 0.  1.
    9000002    1    1    2    0    0 -0.30775566350E+00 -0.32305147694E-01  0.67832195287E-01  0.99005170456E+00  0.93800000000E+00 0. -1.
         22    1    1    2    0    0  0.31920339881E+00  0.29974135760E-02  0.34416730561E+01  0.34564451709E+01  0.00000000000E+00 0.  1.
</event>
<event>
 5    1  0.3005426E+001  0.1599677E+01  0.7818608E-02  0.3353714E+00
         11   -1    0    0    0    0  0.00000000000E+00  0.00000000000E+00  0.39999999674E+01  0.40000000000E+01  0.51100000000E-03 0. -1.
    9000002   -1    0    0    0    0 -0.00000000000E+00 -0.00000000000E+00  0.00000000000E+00  0.93800000000E+00  0.93800000000E+00 0. -1.
         11    1    1    2    0    0  0.77474523951E-01  0.90220919997E-01  0.99984642396E+00  0.10068938618E+01  0.51100000000E-03 0.  1.
    9000002    1    1    2    0    0 -0.29823309680E+00 -0.34722242621E+00  0.14245729391E+00  0.10533966365E+01  0.93800000000E+00 0. -1.
         22    1    1    2    0    0  0.22075857285E+00  0.25700150622E+00  0.28576962495E+01  0.28777095017E+01  0.00000000000E+00 0. -1.
</event>
<event>
 5    1  0.3005426E+001  0.1599499E+01  0.7818608E-02  0.3353907E+00
         11   -1    0    0    0    0  0.00000000000E+00  0.00000000000E+00  0.39999999674E+01  0.40000000000E+01  0.51100000000E-03 0. -1.
    9000002   -1    0    0    0    0 -0.00000000000E+00 -0.00000000000E+00  0.00000000000E+00  0.93800000000E+00  0.93800000000E+00 0. -1.
         11    1    1    2    0    0  0.79368016873E-01  0.10957999148E+00  0.79354907796E+00  0.80500152602E+00  0.51100000000E-03 0. -1.
    9000002    1    1    2    0    0 -0.35501516864E+00 -0.46080436657E+00  0.23535633831E+00  0.11285446558E+01  0.93800000000E+00 0. -1.
         22    1    1    2    0    0  0.27564715177E+00  0.35122437509E+00  0.29710945511E+01  0.30044538182E+01  0.00000000000E+00 0. -1.
</event>
<event>
 5    1  0.3005426E+001  0.1597187E+01  0.7818608E-02  0.3356423E+00
         11   -1    0    0    0    0  0.00000000000E+00  0.00000000000E+00  0.39999999674E+01  0.40000000000E+01  0.51100000000E-03 0.  1.
    9000002   -1    0    0    0    0 -0.00000000000E+00 -0.00000000000E+00  0.00000000000E+00  0.93800000000E+00  0.93800000000E+00 0.  1.
         11    1    1    2    0    0  0.63607953743E-01  0.88249160918E-01  0.12552036231E+01  0.12599088391E+01  0.51100000000E-03 0.  1.
    9000002    1    1    2    0    0 -0.54634927544E-01 -0.37414193659E+00  0.98216296011E-01  0.10160992101E+01  0.93800000000E+00 0.  1.
         22    1    1    2    0    0 -0.89730261994E-02  0.28589277567E+00  0.26465800482E+01  0.26619919508E+01  0.00000000000E+00 0.  1.
</event>
<event>
 5    1  0.3005426E+001  0.1598173E+01  0.7818608E-02  0.3355349E+00
         11   -1    0    0    0    0  0.00000000000E+00  0.00000000000E+00  0.39999999674E+01  0.40000000000E+01  0.51100000000E-03 0.  1.
    9000002   -1    0    0    0    0 -0.00000000000E+00 -0.00000000000E+00  0.00000000000E+00  0.93800000000E+00  0.93800000000E+00 0.  1.
         11    1    1    2    0    0 -0.12598689484E-01  0.21092256837E-01  0.26580664476E+00  0.26694015021E+00  0.51100000000E-03 0.  1.
    9000002    1    1    2    0    0  0.49453204026E+00 -0.16811040380E+00  0.18886774463E+00  0.10901092017E+01  0.93800000000E+00 0.  1.
         22    1    1    2    0    0 -0.48193335077E+00  0.14701814697E+00  0.35453255780E+01  0.35809506481E+01  0.00000000000E+00 0.  1.
</event>
<event>
 5    1  0.3005426E+001  0.1575841E+01  0.7818608E-02  0.3380009E+00
         11   -1    0    0    0    0  0.00000000000E+00  0.00000000000E+00  0.39999999674E+01  0.40000000000E+01  0.51100000000E-03 0.  1.
    9000002   -1    0    0    0    0 -0.00000000000E+00 -0.00000000000E+00  0.00000000000E+00  0.93800000000E+00  0.93800000000E+00 0.  1.
         11    1    1    2    0    0 -0.21761274006E-01  0.33686253310E-01  0.15434752027E-01  0.42974520353E-01  0.51100000000E-03 0.  1.
    9000002    1    1    2    0    0 -0.32196299438E+00 -0.95139923610E+00  0.86190067609E+00  0.16222014214E+01  0.93800000000E+00 0.  1.
         22    1    1    2    0    0  0.34372426838E+00  0.91771298279E+00  0.31226645392E+01  0.32728240582E+01  0.00000000000E+00 0.  1.
</event>
<event>
 5    1  0.3005426E+001  0.1449399E+01  0.7818608E-02  0.3535011E+00
         11   -1    0    0    0    0  0.00000000000E+00  0.00000000000E+00  0.39999999674E+01  0.40000000000E+01  0.51100000000E-03 0. -1.
    9000002   -1    0    0    0    0 -0.00000000000E+00 -0.00000000000E+00  0.00000000000E+00  0.93800000000E+00  0.93800000000E+00 0.  1.
         11    1    1    2    0    0 -0.26850895582E+00  0.95743186460E-01  0.32395218863E+00  0.43151952302E+00  0.51100000000E-03 0. -1.
    9000002    1    1    2    0    0 -0.23642211988E-01 -0.35443308402E+00  0.21792389331E+00  0.10264095618E+01  0.93800000000E+00 0.  1.
         22    1    1    2    0    0  0.29215116781E+00  0.25868989756E+00  0.34581238854E+01  0.34800709152E+01  0.00000000000E+00 0. -1.
</event>
<event>
 5    1  0.3005426E+001  0.1599134E+01  0.7818608E-02  0.3354304E+00
         11   -1    0    0    0    0  0.00000000000E+00  0.00000000000E+00  0.39999999674E+01  0.40000000000E+01  0.51100000000E-03 0.  1.
    9000002   -1    0    0    0    0 -0.00000000000E+00 -0.00000000000E+00  0.00000000000E+00  0.93800000000E+00  0.93800000000E+00 0.  1.
         11    1    1    2    0    0 -0.45764483326E-02  0.12733446080E-01  0.64235184566E-01  0.65646817026E-01  0.51100000000E-03 0.  1.
    9000002    1    1    2    0    0  0.11357958234E+00 -0.36781860761E+00  0.10021614086E+00  0.10188611900E+01  0.93800000000E+00 0.  1.
         22    1    1    2    0    0 -0.10900313401E+00  0.35508516153E+00  0.38355486419E+01  0.38534919930E+01  0.00000000000E+00 0.  1.
</event>
<event>
 5    1  0.3005426E+001  0.1586791E+01  0.7818608E-02  0.3367826E+00
         11   -1    0    0    0    0  0.00000000000E+00  0.00000000000E+00  0.39999999674E+01  0.40000000000E+01  0.51100000000E-03 0. -1.
    9000002   -1    0    0    0    0 -0.00000000000E+00 -0.00000000000E+00  0.00000000000E+00  0.93800000000E+00  0.93800000000E+00 0.  1.
         11    1    1    2    0    0  0.27415728960E-01  0.15477494289E+00  0.77965289391E+00  0.79534005384E+00  0.51100000000E-03 0. -1.
    9000002    1    1    2    0    0  0.24662123325E+00 -0.37750037878E+00  0.14933932001E+00  0.10514156177E+01  0.93800000000E+00 0.  1.
         22    1    1    2    0    0 -0.27403696221E+00  0.22272543589E+00  0.30710077534E+01  0.30912443285E+01  0.00000000000E+00 0. -1.
</event>
<event>
 5    1  0.3005426E+001  0.1599676E+01  0.7818608E-02  0.3353715E+00
         11   -1    0    0    0    0  0.00000000000E+00  0.00000000000E+00  0.39999999674E+01  0.40000000000E+01  0.51100000000E-03 0. -1.
    9000002   -1    0    0    0    0 -0.00000000000E+00 -0.00000000000E+00  0.00000000000E+00  0.93800000000E+00  0.93800000000E+00 0. -1.
         11    1    1    2    0    0 -0.11602978081E+00 -0.14768367174E+00  0.12059155236E+01  0.12204531486E+01  0.51100000000E-03 0. -1.
    9000002    1    1    2    0    0  0.35953683764E+00  0.46141189612E+00  0.23797721700E+00  0.11307717857E+01  0.93800000000E+00 0. -1.
         22    1    1    2    0    0 -0.24350705683E+00 -0.31372822438E+00  0.25561072268E+01  0.25867750657E+01  0.00000000000E+00 0. -1.
</event>
<event>
 5    1  0.3005426E+001  0.1599676E+01  0.7818608E-02  0.3353715E+00
         11   -1    0    0    0    0  0.00000000000E+00  0.00000000000E+00  0.39999999674E+01  0.40000000000E+01  0.51100000000E-03 0. -1.
    9000002   -1    0    0    0    0 -0.00000000000E+00 -0.00000000000E+00  0.00000000000E+00  0.93800000000E+00  0.93800000000E+00 0. -1.
         11    1    1    2    0    0  0.27146655922E-01  0.17581524914E+00  0.12472174561E+01  0.12598410958E+01  0.51100000000E-03 0. -1.
    9000002    1    1    2    0    0 -0.79424927950E-01 -0.53456938381E+00  0.20137409517E+00  0.11011213700E+01  0.93800000000E+00 0. -1.
         22    1    1    2    0    0  0.52278272028E-01  0.35875413468E+00  0.25514084161E+01  0.25770375342E+01  0.00000000000E+00 0. -1.
</event>
<event>
 5    1  0.3005426E+001  0.1599645E+01  0.7818608E-02  0.3353749E+00
         11   -1    0    0    0    0  0.00000000000E+00  0.00000000000E+00  0.39999999674E+01  0.40000000000E+01  0.51100000000E-03 0.  1.
    9000002   -1    0    0    0    0 -0.00000000000E+00 -0.00000000000E+00  0.00000000000E+00  0.93800000000E+00  0.93800000000E+00 0. -1.
         11    1    1    2    0    0  0.11168999899E+00  0.17679065099E+00  0.13245186607E+01  0.13409248800E+01  0.51100000000E-03 0.  1.
    9000002    1    1    2    0    0 -0.30332683600E+00 -0.49111270131E+00  0.23140474297E+00  0.11254292558E+01  0.93800000000E+00 0. -1.
         22    1    1    2    0    0  0.19163683701E+00  0.31432205032E+00  0.24440765637E+01  0.24716458642E+01  0.00000000000E+00 0.  1.
</event>
<event>
 5    1  0.3005426E+001  0.1598670E+01  0.7818608E-02  0.3354808E+00
         11   -1    0    0    0    0  0.00000000000E+00  0.00000000000E+00  0.39999999674E+01  0.40000000000E+01  0.51100000000E-03 0.  1.
    9000002   -1    0    0    0    0 -0.00000000000E+00 -0.00000000000E+00  0.00000000000E+00  0.93800000000E+00  0.93800000000E+00 0. -1.
         11    1    1    2    0    0 -0.16855607456E-01  0.88090375812E-01  0.82909034554E+00  0.83392750764E+00  0.51100000000E-03 0.  1.
    9000002    1    1    2    0    0 -0.57702716621E-01 -0.36174799203E+00  0.90962605731E-01  0.10110931752E+01  0.93800000000E+00 0. -1.
         22    1    1    2    0    0  0.74558324077E-01  0.27365761622E+00  0.30799470161E+01  0.30929793172E+01  0.00000000000E+00 0.  1.
</event>
<event>
 5    1  0.3005426E+001  0.1587912E+01  0.7818608E-02  0.3366589E+00
         11   -1    0    0    0    0  0.00000000000E+00  0.00000000000E+00  0.39999999674E+01  0.40000000000E+01  0.51100000000E-03 0. -1.
    9000002   -1    0    0    0    0 -0.00000000000E+00 -0.00000000000E+00  0.00000000000E+00  0.93800000000E+00  0.93800000000E+00 0. -1.
         11    1    1    2    0    0 -0.24160218267E-02  0.43803502245E-01  0.63408427317E+00  0.63560027578E+00  0.51100000000E-03 0. -1.
    9000002    1    1    2    0    0  0.35288837470E+00  0.21639119252E+00  0.12574805196E+00  0.10329626933E+01  0.93800000000E+00 0. -1.
         22    1    1    2    0    0 -0.35047235287E+00 -0.26019469477E+00  0.32401676422E+01  0.32694370309E+01  0.00000000000E+00 0. -1.
</event>
<event>
 5    1  0.3005426E+001  0.1599675E+01  0.7818608E-02  0.3353716E+00
         11   -1    0    0    0    0  0.00000000000E+00  0.00000000000E+00  0.39999999674E+01  0.40000000000E+01  0.51100000000E-03 0. -1.
    9000002   -1    0    0    0    0 -0.00000000000E+00 -0.00000000000E+00  0.00000000000E+00  0.93800000000E+00  0.93800000000E+00 0.  1.
         11    1    1    2    0    0 -0.10075966435E+00 -0.46284522063E-02  0.10419180566E+01  0.10467891050E+01  0.51100000000E-03 0. -1.
    9000002    1    1    2    0    0  0.37762983001E+00  0.22731607469E-01  0.96279508215E-01  0.10159895463E+01  0.93800000000E+00 0.  1.
         22    1    1    2    0    0 -0.27687016566E+00 -0.18103155263E-01  0.28618024025E+01  0.28752213487E+01  0.00000000000E+00 0. -1.
</event>
<event>
 5    1  0.3005426E+001  0.1599675E+01  0.7818608E-02  0.3353716E+00
         11   -1    0    0    0    0  0.00000000000E+00  0.00000000000E+00  0.39999999674E+01  0.40000000000E+01  0.51100000000E-03 0. -1.
    9000002   -1    0    0    0    0 -0.00000000000E+00 -0.00000000000E+00  0.00000000000E+00  0.93800000000E+00  0.93800000000E+00 0.  1.
         11    1    1    2    0    0  0.19649051105E-01  0.55753094524E-01  0.49245133616E+00  0.49598696793E+00  0.51100000000E-03 0. -1.
    9000002    1    1    2    0    0 -0.16039779930E+00 -0.43849505020E+00  0.14844529149E+00  0.10582463643E+01  0.93800000000E+00 0.  1.
         22    1    1    2    0    0  0.14074874820E+00  0.38274195568E+00  0.33591033397E+01  0.33837666677E+01  0.00000000000E+00 0. -1.
</event>
<event>
 5    1  0.3005426E+001  0.1599671E+01  0.7818608E-02  0.3353721E+00
         11   -1    0    0    0    0  0.00000000000E+00  0.00000000000E+00  0.39999999674E+01  0.40000000000E+01  0.51100000000E-03 0. -1.
    9000002   -1    0    0    0    0 -0.00000000000E+00 -0.00000000000E+00  0.00000000000E+00  0.93800000000E+00  0.93800000000E+00 0. -1.
         11    1    1    2    0    0  0.10339725310E+00 -0.86322193616E-01  0.13422480218E+01  0.13489894463E+01  0.51100000000E-03 0. -1.
    9000002    1    1    2    0    0 -0.30377889600E+00  0.25779496029E+00  0.10705684985E+00  0.10247170479E+01  0.93800000000E+00 0. -1.
         22    1    1    2    0    0  0.20038164291E+00 -0.17147276667E+00  0.25506950957E+01  0.25642935058E+01  0.00000000000E+00 0. -1.
</event>
<event>
 5    1  0.3005426E+001  0.1599640E+01  0.7818608E-02  0.3353755E+00
         11   -1    0    0    0    0  0.00000000000E+00  0.00000000000E+00  0.39999999674E+01  0.40000000000E+01  0.51100000000E-03 0. -1.
    9000002   -1    0    0    0    0 -0.00000000000E+00 -0.00000000000E+00  0.00000000000E+00  0.93800000000E+00  0.93800000000E+00 0.  1.
         11    1    1    2    0    0 -0.36263408984E+00  0.18173379096E+00  0.13828684807E+01  0.14411301641E+01  0.51100000000E-03 0. -1.
    9000002    1    1    2    0    0  0.84638275519E+00 -0.42941400719E+00  0.70535627417E+00  0.15093480816E+01  0.93800000000E+00 0.  1.
         22    1    1    2    0    0 -0.48374866535E+00  0.24768021623E+00  0.19117752125E+01  0.19875217543E+01  0.00000000000E+00 0. -1.
</event>
<event>
 5    1  0.3005426E+001  0.1586396E+01  0.7818608E-02  0.3368262E+00
         11   -1    0    0    0    0  0.00000000000E+00  0.00000000000E+00  0.39999999674E+01  0.40000000000E+01  0.51100000000E-03 0.  1.
    9000002   -1    0    0    0    0 -0.00000000000E+00 -0.00000000000E+00  0.00000000000E+00  0.93800000000E+00  0.93800000000E+00 0.  1.
         11    1    1    2    0    0  0.32869581622E-01  0.12374614471E+00  0.74984134412E+00  0.76069430141E+00  0.51100000000E-03 0.  1.
    9000002    1    1    2    0    0  0.32162433514E+00 -0.80116620544E+00  0.58130541955E+00  0.14010958185E+01  0.93800000000E+00 0.  1.
         22    1    1    2    0    0 -0.35449391676E+00  0.67742006073E+00  0.26688532037E+01  0.27762098801E+01  0.00000000000E+00 0.  1.
</event>
<event>
 5    1  0.3005426E+001  0.1599677E+01  0.7818608E-02  0.3353714E+00
         11   -1    0    0    0    0  0.00000000000E+00  0.00000000000E+00  0.39999999674E+01  0.40000000000E+01  0.51100000000E-03 0.  1.
    9000002   -1    0    0    0    0 -0.00000000000E+00 -0.00000000000E+00  0.00000000000E+00  0.93800000000E+00  0.93800000000E+00 0.  1.
         11    1    1    2    0    0  0.34292414113E-01  0.11605836143E+00  0.10988244374E+01  0.11054686419E+01  0.51100000000E-03 0.  1.
    9000002    1    1    2    0    0 -0.12111129012E+00 -0.41035706079E+00  0.12393863162E+00  0.10383957080E+01  0.93800000000E+00 0.  1.
         22    1    1    2    0    0  0.86818876004E-01  0.29429869936E+00  0.27772368983E+01  0.27941356501E+01  0.00000000000E+00 0.  1.
</event>
<event>
 5    1  0.3005426E+001  0.1599676E+01  0.7818608E-02  0.3353715E+00
         11   -1    0    0    0    0  0.00000000000E+00  0.00000000000E+00  0.39999999674E+01  0.40000000000E+01  0.51100000000E-03 0. -1.
    9000002   -1    0    0    0    0 -0.00000000000E+00 -0.00000000000E+00  0.00000000000E+00  0.93800000000E+00  0.93800000000E+00 0. -1.
         11    1    1    2    0    0  0.48642919140E-01  0.14125207476E-01  0.50280150683E+00  0.50534668443E+00  0.51100000000E-03 0. -1.
    9000002    1    1    2    0    0 -0.38084413958E+00 -0.11284280481E+00  0.10638575919E+00  0.10241765898E+01  0.93800000000E+00 0. -1.
         22    1    1    2    0    0  0.33220122044E+00  0.98717597338E-01  0.33908127013E+01  0.34084767258E+01  0.00000000000E+00 0. -1.
</event>
<event>
 5    1  0.3005426E+001  0.1598828E+01  0.7818608E-02  0.3354636E+00
         11   -1    0    0    0    0  0.00000000000E+00  0.00000000000E+00  0.39999999674E+01  0.40000000000E+01  0.51100000000E-03 0.  1.
    9000002   -1    0    0    0    0 -0.00000000000E+00 -0.00000000000E+00  0.00000000000E+00  0.93800000000E+00  0.93800000000E+00 0.  1.
         11    1    1    2    0    0  0.84168193471E-01  0.13800882832E+00  0.97973035600E+00  0.99297661256E+00  0.51100000000E-03 0.  1.
    9000002    1    1    2    0    0 -0.20586210056E+00 -0.52724151629E+00  0.22277558723E+00  0.11179605464E+01  0.93800000000E+00 0.  1.
         22    1    1    2    0    0  0.12169390709E+00  0.38923268797E+00  0.27974940241E+01  0.28270628411E+01  0.00000000000E+00 0.  1.
</event>
<event>
 5    1  0.3005426E+001  0.1539113E+01  0.7818608E-02  0.3422220E+00
         11   -1    0    0    0    0  0.00000000000E+00  0.00000000000E+00  0.39999999674E+01  0.40000000000E+01  0.51100000000E-03 0. -1.
    9000002   -1    0    0    0    0 -0.00000000000E+00 -0.00000000000E+00  0.00000000000E+00  0.93800000000E+00  0.93800000000E+00 0.  1.
         11    1    1    2    0    0 -0.22460949353E+00  0.12062584935E+00  0.94324240647E+00  0.97709084460E+00  0.51100000000E-03 0. -1.
    9000002    1    1    2    0    0 -0.95188293227E-01 -0.25753844048E+00  0.98547203789E-01  0.98231482268E+00  0.93800000000E+00 0.  1.
         22    1    1    2    0    0  0.31979778676E+00  0.13691259113E+00  0.29582103571E+01  0.29785943327E+01  0.00000000000E+00 0. -1.
</event>
<event>
 5    1  0.3005426E+001  0.1599667E+01  0.7818608E-02  0.3353725E+00
         11   -1    0    0    0    0  0.00000000000E+00  0.00000000000E+00  0.39999999674E+01  0.40000000000E+01  0.51100000000E-03 0. -1.
    9000002   -1    0    0    0    0 -0.00000000000E+00 -0.00000000000E+00  0.00000000000E+00  0.93800000000E+00  0.93800000000E+00 0. -1.
         11    1    1    2    0    0  0.32319615840E-02 -0.19455946775E-01  0.82099236659E-01  0.84436515925E-01  0.51100000000E-03 0. -1.
    9000002    1    1    2    0    0 -0.12329953180E+00  0.79154872159E+00  0.47291734567E+00  0.13210779572E+01  0.93800000000E+00 0. -1.
         22    1    1    2    0    0  0.12006757022E+00 -0.77209277482E+00  0.34449833850E+01  0.35324855269E+01  0.00000000000E+00 0. -1.
</event>
<event>
 5    1  0.3005426E+001  0.1599677E+01  0.7818608E-02  0.3353714E+00
         11   -1    0    0    0    0  0.00000000000E+00  0.00000000000E+00  0.39999999674E+01  0.40000000000E+01  0.51100000000E-03 0.  1.
    9000002   -1    0    0    0    0 -0.00000000000E+00 -0.00000000000E+00  0.00000000000E+00  0.93800000000E+00  0.93800000000E+00 0. -1.
         11    1    1    2    0    0 -0.70752218112E-01  0.18195970493E+00  0.11795952032E+01  0.11956422187E+01  0.51100000000E-03 0.  1.
    9000002    1    1    2    0    0  0.22478624699E+00 -0.57528628201E+00  0.26718691990E+00  0.11544332000E+01  0.93800000000E+00 0. -1.
         22    1    1    2    0    0 -0.15403402887E+00  0.39332657707E+00  0.25532178443E+01  0.25879245813E+01  0.00000000000E+00 0.  1.
</event>
<event>
 5    1  0.3005426E+001  0.1599259E+01  0.7818608E-02  0.3354168E+00
         11   -1    0    0    0    0  0.00000000000E+00  0.00000000000E+00  0.39999999674E+01  0.40000000000E+01  0.51100000000E-03 0.  1.
    9000002   -1    0    0    0    0 -0.00000000000E+00 -0.00000000000E+00  0.00000000000E+00  0.93800000000E+00  0.93800000000E+00 0. -1.
         11    1    1    2    0    0  0.75323134664E-01  0.48404141219E-01  0.11374730434E+01  0.11409915518E+01  0.51100000000E-03 0.  1.
    9000002    1    1    2    0    0 -0.24436203359E+00 -0.24232827619E+00  0.79697121120E-01  0.10023130389E+01  0.93800000000E+00 0. -1.
         22    1    1    2    0    0  0.16903889893E+00  0.19392413497E+00  0.27828298028E+01  0.27946954093E+01  0.00000000000E+00 0.  1.
</event>
<event>
 5    1  0.3005426E+001  0.1596351E+01  0.7818608E-02  0.3357334E+00
         11   -1    0    0    0    0  0.00000000000E+00  0.00000000000E+00  0.39999999674E+01  0.40000000000E+01  0.51100000000E-03 0. -1.
    9000002   -1    0    0    0    0 -0.00000000000E+00 -0.00000000000E+00  0.00000000000E+00  0.93800000000E+00  0.93800000000E+00 0.  1.
         11    1    1    2    0    0 -0.18674183262E-01  0.70279505105E-02  0.48198413105E-01  0.52167665807E-01  0.51100000000E-03 0. -1.
    9000002    1    1    2    0    0  0.37506628428E+00  0.11193111177E-01  0.97408085878E-01  0.10149543529E+01  0.93800000000E+00 0.  1.
         22    1    1    2    0    0 -0.35639210102E+00 -0.18221061688E-01  0.38543934684E+01  0.38708779813E+01  0.00000000000E+00 0. -1.
</event>
<event>
 5    1  0.3005426E+001  0.1598333E+01  0.7818608E-02  0.3355175E+00
         11   -1    0    0    0    0  0.00000000000E+00  0.00000000000E+00  0.39999999674E+01  0.40000000000E+01  0.51100000000E-03 0.  1.
    9000002   -1    0    0    0    0 -0.00000000000E+00 -0.00000000000E+00  0.00000000000E+00  0.93800000000E+00  0.93800000000E+00 0.  1.
         11    1    1    2    0    0 -0.10139325773E-01  0.61541546924E-02  0.59186278152E-01  0.60365190214E-01  0.51100000000E-03 0.  1.
    9000002    1    1    2    0    0  0.37310804148E+00  0.24518940713E+00  0.13646842911E+00  0.10477571704E+01  0.93800000000E+00 0.  1.
         22    1    1    2    0    0 -0.36296871571E+00 -0.25134356182E+00  0.38043452601E+01  0.38298776394E+01  0.00000000000E+00 0.  1.
</event>
<event>
 5    1  0.3005426E+001  0.1599235E+01  0.7818608E-02  0.3354194E+00
         11   -1    0    0    0    0  0.00000000000E+00  0.00000000000E+00  0.39999999674E+01  0.40000000000E+01  0.51100000000E-03 0.  1.
    9000002   -1    0    0    0    0 -0.00000000000E+00 -0.00000000000E+00  0.00000000000E+00  0.93800000000E+00  0.93800000000E+00 0.  1.
         11    1    1    2    0    0 -0.21606875705E+00 -0.11089651972E+00  0.12025821793E+01  0.12268609966E+01  0.51100000000E-03 0.  1.
    9000002    1    1    2    0    0  0.59755642251E+00  0.30237502389E+00  0.31849740501E+00  0.11957378183E+01  0.93800000000E+00 0.  1.
         22    1    1    2    0    0 -0.38148766545E+00 -0.19147850417E+00  0.24789203830E+01  0.25154011851E+01  0.00000000000E+00 0.  1.
</event>
<event>
 5    1  0.3005426E+001  0.1599675E+01  0.7818608E-02  0.3353716E+00
         11   -1    0    0    0    0  0.00000000000E+00  0.00000000000E+00  0.39999999674E+01  0.40000000000E+01  0.51100000000E-03 0.  1.
    9000002   -1    0    0    0    0 -0.00000000000E+00 -0.00000000000E+00  0.00000000000E+00  0.93800000000E+00  0.93800000000E+00 0. -1.
         11    1    1    2    0    0 -0.20722471418E-01  0.16734818961E-01  0.21600702868E+00  0.21764368253E+00  0.51100000000E-03 0.  1.
    9000002    1    1    2    0    0  0.36653517671E+00 -0.30713356415E+00  0.15598880015E+00  0.10643568799E+01  0.93800000000E+00 0. -1.
         22    1    1    2    0    0 -0.34581270529E+00  0.29039874519E+00  0.36280041385E+01  0.36559994376E+01  0.00000000000E+00 0.  1.
</event>
<event>
 5    1  0.3005426E+001  0.1598400E+01  0.7818608E-02  0.3355102E+00
         11   -1    0    0    0    0  0.00000000000E+00  0.00000000000E+00  0.39999999674E+01  0.40000000000E+01  0.51100000000E-03 0. -1.
    9000002   -1    0    0    0    0 -0.00000000000E+00 -0.00000000000E+00  0.00000000000E+00  0.93800000000E+00  0.93800000000E+00 0. -1.
         11    1    1    2    0    0 -0.90797074074E-01 -0.64007707328E-01  0.11391642096E+01  0.11445682386E+01  0.51100000000E-03 0. -1.
    9000002    1    1    2    0    0  0.41823607965E+00  0.14207265474E+00  0.13344921899E+00  0.10453510184E+01  0.93800000000E+00 0. -1.
         22    1    1    2    0    0 -0.32743900557E+00 -0.78064947408E-01  0.27273865388E+01  0.27480807430E+01  0.00000000000E+00 0. -1.
</event>
<event>
 5    1  0.3005426E+001  0.1598931E+01  0.7818608E-02  0.3354524E+00
         11   -1    0    0    0    0  0.00000000000E+00  0.00000000000E+00  0.39999999674E+01  0.40000000000E+01  0.51100000000E-03 0. -1.
    9000002   -1    0    0    0    0 -0.00000000000E+00 -0.00000000000E+00  0.00000000000E+00  0.93800000000E+00  0.93800000000E+00 0.  1.
         11    1    1    2    0    0 -0.40116107445E-01 -0.32566380774E-01  0.31890604758E+00  0.32306531775E+00  0.51100000000E-03 0. -1.
    9000002    1    1    2    0    0  0.29840757967E+00  0.28326241876E+00  0.11498254915E+00  0.10307034821E+01  0.93800000000E+00 0.  1.
         22    1    1    2    0    0 -0.25829147222E+00 -0.25069603798E+00  0.35661113706E+01  0.35842312001E+01  0.00000000000E+00 0. -1.
</event>
<event>
 5    1  0.3005426E+001  0.1599676E+01  0.7818608E-02  0.3353716E+00
         11   -1    0    0    0    0  0.00000000000E+00  0.00000000000E+00  0.39999999674E+01  0.40000000000E+01  0.51100000000E-03 0. -1.
    9000002   -1    0    0    0    0 -0.00000000000E+00 -0.00000000000E+00  0.00000000000E+00  0.93800000000E+00  0.93800000000E+00 0. -1.
         11    1    1    2    0    0  0.13230950633E+00 -0.55377685913E-01  0.93622901464E+00  0.94715232278E+00  0.51100000000E-03 0. -1.
    9000002    1    1    2    0    0 -0.52912605549E+00  0.22014734339E+00  0.22787968785E+00  0.11225918170E+01  0.93800000000E+00 0. -1.
         22    1    1    2    0    0  0.39681654916E+00 -0.16476965748E+00  0.28358912649E+01  0.28682558602E+01  0.00000000000E+00 0. -1.
</event>
<event>
 5    1  0.3005426E+001  0.1598239E+01  0.7818608E-02  0.3355277E+00
         11   -1    0    0    0    0  0.00000000000E+00  0.00000000000E+00  0.39999999674E+01  0.40000000000E+01  0.51100000000E-03 0.  1.
    9000002   -1    0    0    0    0 -0.00000000000E+00 -0.00000000000E+00  0.00000000000E+00  0.93800000000E+00  0.93800000000E+00 0. -1.
         11    1    1    2    0    0 -0.36708655618E-01  0.54219069493E-01  0.98456326298E+00  0.98673821900E+00  0.51100000000E-03 0.  1.
    9000002    1    1    2    0    0  0.29421253844E+00 -0.16117489618E+00  0.76488472949E-01  0.99911603502E+00  0.93800000000E+00 0. -1.
         22    1    1    2    0    0 -0.25750388282E+00  0.10695582669E+00  0.29389482314E+01  0.29521457460E+01  0.00000000000E+00 0.  1.
</event>
<event>
 5    1  0.3005426E+001  0.1595351E+01  0.7818608E-02  0.3358424E+00
         11   -1    0    0    0    0  0.00000000000E+00  0.00000000000E+00  0.39999999674E+01  0.40000000000E+01  0.51100000000E-03 0.  1.
    9000002   -1    0    0    0    0 -0.00000000000E+00 -0.00000000000E+00  0.00000000000E+00  0.93800000000E+00  0.93800000000E+00 0.  1.
         11    1    1    2    0    0 -0.44117675615E-01  0.99363007160E-01  0.13530557406E+01  0.13574164707E+01  0.51100000000E-03 0.  1.
    9000002    1    1    2    0    0  0.30136396196E+00 -0.15586191580E+00  0.80563579128E-01  0.10007235705E+01  0.93800000000E+00 0.  1.
         22    1    1    2    0    0 -0.25724628634E+00  0.56498908636E-01  0.25663806476E+01  0.25798599588E+01  0.00000000000E+00 0.  1.
</event>
<event>
 5    1  0.3005426E+001  0.1599676E+01  0.7818608E-02  0.3353715E+00
         11   -1    0    0    0    0  0.00000000000E+00  0.00000000000E+00  0.39999999674E+01  0.40000000000E+01  0.51100000000E-03 0.  1.
    9000002   -1    0    0    0    0 -0.00000000000E+00 -0.00000000000E+00  0.00000000000E+00  0.93800000000E+00  0.93800000000E+00 0.  1.
         11    1    1    2    0    0 -0.64723143992E-01 -0.65466440908E-01  0.78786377429E+00  0.79322413491E+00  0.51100000000E-03 0.  1.
    9000002    1    1    2    0    0  0.31500254846E+00  0.32476078470E+00  0.13907734055E+00  0.10506582125E+01  0.93800000000E+00 0.  1.
         22    1    1    2    0    0 -0.25027940447E+00 -0.25929434379E+00  0.30730588525E+01  0.30941176526E+01  0.00000000000E+00 0.  1.
</event>
<event>
 5    1  0.3005426E+001  0.1584693E+01  0.7818608E-02  0.3370146E+00
         11   -1    0    0    0    0  0.00000000000E+00  0.00000000000E+00  0.39999999674E+01  0.40000000000E+01  0.51100000000E-03 0.  1.
    9000002   -1    0    0    0    0 -0.00000000000E+00 -0.00000000000E+00  0.00000000000E+00  0.93800000000E+00  0.93800000000E+00 0.  1.
         11    1    1    2    0    0 -0.12507256913E+00  0.42547919238E-02  0.47141094384E+00  0.48773946928E+00  0.51100000000E-03 0.  1.
    9000002    1    1    2    0    0  0.29847440939E+00  0.28937963338E+00  0.12953428116E+00  0.10341424831E+01  0.93800000000E+00 0.  1.
         22    1    1    2    0    0 -0.17340184027E+00 -0.29363442531E+00  0.33990547424E+01  0.34161180477E+01  0.00000000000E+00 0.  1.
</event>
<event>
 5    1  0.3005426E+001  0.1599676E+01  0.7818608E-02  0.3353715E+00
         11   -1    0    0    0    0  0.00000000000E+00  0.00000000000E+00  0.39999999674E+01  0.40000000000E+01  0.51100000000E-03 0.  1.
    9000002   -1    0    0    0    0 -0.00000000000E+00 -0.00000000000E+00  0.00000000000E+00  0.93800000000E+00  0.93800000000E+00 0.  1.
         11    1    1    2    0    0  0.86729631806E-01  0.20665232005E+00  0.14441192472E+01  0.14614061282E+01  0.51100000000E-03 0.  1.
    9000002    1    1    2    0    0 -0.22507744146E+00 -0.53615755281E+00  0.23499824893E+00  0.11283585215E+01  0.93800000000E+00 0.  1.
         22    1    1    2    0    0  0.13834780965E+00  0.32950523275E+00  0.23208824712E+01  0.23482353502E+01  0.00000000000E+00 0.  1.
</event>
<event>
 5    1  0.3005426E+001  0.1595281E+01  0.7818608E-02  0.3358501E+00
         11   -1    0    0    0    0  0.00000000000E+00  0.00000000000E+00  0.39999999674E+01  0.40000000000E+01  0.51100000000E-03 0. -1.
    9000002   -1    0    0    0    0 -0.00000000000E+00 -0.00000000000E+00  0.00000000000E+00  0.93800000000E+00  0.93800000000E+00 0. -1.
         11    1    1    2    0    0 -0.17984794040E-01  0.48962711561E-02  0.31943466754E-01  0.36987463784E-01  0.51100000000E-03 0. -1.
    9000002    1    1    2    0    0  0.32711291219E+00 -0.41939826512E+00  0.19882936325E+00  0.10964829583E+01  0.93800000000E+00 0. -1.
         22    1    1    2    0    0 -0.30912811815E+00  0.41450199396E+00  0.37692271374E+01  0.38045295779E+01  0.00000000000E+00 0. -1.
</event>
<event>
 5    1  0.3005426E+001  0.1599674E+01  0.7818608E-02  0.3353718E+00
         11   -1    0    0    0    0  0.00000000000E+00  0.00000000000E+00  0.39999999674E+01  0.40000000000E+01  0.51100000000E-03 0. -1.
    9000002   -1    0    0    0    0 -0.00000000000E+00 -0.00000000000E+00  0.00000000000E+00  0.93800000000E+00  0.93800000000E+00 0.  1.
         11    1    1    2    0    0  0.11318633836E+00 -0.93304531033E-01  0.10378584334E+01  0.10481733023E+01  0.51100000000E-03 0. -1.
    9000002    1    1    2    0    0 -0.41445563164E+00  0.33480593158E+00  0.19544501564E+00  0.10963171241E+01  0.93800000000E+00 0.  1.
         22    1    1    2    0    0  0.30126929328E+00 -0.24150140054E+00  0.27666965183E+01  0.27935095736E+01  0.00000000000E+00 0. -1.
</event>
<event>
 5    1  0.3005426E+001  0.1599634E+01  0.7818608E-02  0.3353761E+00
         11   -1    0    0    0    0  0.00000000000E+00  0.00000000000E+00  0.39999999674E+01  0.40000000000E+01  0.51100000000E-03 0.  1.
    9000002   -1    0    0    0    0 -0.00000000000E+00 -0.00000000000E+00  0.00000000000E+00  0.93800000000E+00  0.93800000000E+00 0. -1.
         11    1    1    2    0    0  0.91282666626E-01  0.24202604640E-02  0.59878676064E+00  0.60570969014E+00  0.51100000000E-03 0.  1.
    9000002    1    1    2    0    0 -0.54348411976E+00 -0.26108403818E-01  0.20430009816E+00  0.11034668855E+01  0.93800000000E+00 0. -1.
         22    1    1    2    0    0  0.45220145313E+00  0.23688143354E-01  0.31969131086E+01  0.32288234244E+01  0.00000000000E+00 0.  1.
</event>
<event>
 5    1  0.3005426E+001  0.1599676E+01  0.7818608E-02  0.3353716E+00
         11   -1    0    0    0    0  0.00000000000E+00  0.00000000000E+00  0.39999999674E+01  0.40000000000E+01  0.51100000000E-03 0. -1.
    9000002   -1    0    0    0    0 -0.00000000000E+00 -0.00000000000E+00  0.00000000000E+00  0.93800000000E+00  0.93800000000E+00 0. -1.
         11    1    1    2    0    0  0.37204389856E-01  0.15804534769E+00  0.11152069449E+01  0.11269646354E+01  0.51100000000E-03 0. -1.
    9000002    1    1    2    0    0 -0.12572974503E+00 -0.53317754504E+00  0.20718489140E+00  0.11058281252E+01  0.93800000000E+00 0. -1.
         22    1    1    2    0    0  0.88525355174E-01  0.37513219734E+00  0.26776081311E+01  0.27052072393E+01  0.00000000000E+00 0. -1.
</event>
<event>
 5    1  0.3005426E+001  0.1599674E+01  0.7818608E-02  0.3353717E+00
         11   -1    0    0    0    0  0.00000000000E+00  0.00000000000E+00  0.39999999674E+01  0.40000000000E+01  0.51100000000E-03 0. -1.
    9000002   -1    0    0    0    0 -0.00000000000E+00 -0.00000000000E+00  0.00000000000E+00  0.93800000000E+00  0.93800000000E+00 0. -1.
         11    1    1    2    0    0  0.10612235879E-01 -0.84134974006E-01  0.80173049267E+00  0.80620304974E+00  0.51100000000E-03 0. -1.
    9000002    1    1    2    0    0 -0.53533957737E-01  0.41462749703E+00  0.11817704286E+00  0.10337270720E+01  0.93800000000E+00 0. -1.
         22    1    1    2    0    0  0.42921721858E-01 -0.33049252303E+00  0.30800924318E+01  0.30980698783E+01  0.00000000000E+00 0. -1.
</event>
<event>
 5    1  0.3005426E+001  0.1599667E+01  0.7818608E-02  0.3353725E+00
         11   -1    0    0    0    0  0.00000000000E+00  0.00000000000E+00  0.39999999674E+01  0.40000000000E+01  0.51100000000E-03 0. -1.
    9000002   -1    0    0    0    0 -0.00000000000E+00 -0.00000000000E+00  0.00000000000E+00  0.93800000000E+00  0.93800000000E+00 0. -1.
         11    1    1    2    0    0  0.39491633878E-01  0.28074317521E-01  0.51587352728E+00  0.51814429816E+00  0.51100000000E-03 0. -1.
    9000002    1    1    2    0    0 -0.31054417522E+00 -0.22726583241E+00  0.99705856894E-01  0.10187603748E+01  0.93800000000E+00 0. -1.
         22    1    1    2    0    0  0.27105254134E+00  0.19919151489E+00  0.33844205832E+01  0.34010953270E+01  0.00000000000E+00 0. -1.
</event>
<event>
 5    1  0.3005426E+001  0.1542855E+01  0.7818608E-02  0.3417822E+00
         11   -1    0    0    0    0  0.00000000000E+00  0.00000000000E+00  0.39999999674E+01  0.40000000000E+01  0.51100000000E-03 0. -1.
    9000002   -1    0    0    0    0 -0.00000000000E+00 -0.00000000000E+00  0.00000000000E+00  0.93800000000E+00  0.93800000000E+00 0. -1.
         11    1    1    2    0    0 -0.19261896927E+00  0.17626520517E+00  0.62478933247E+00  0.67715098831E+00  0.51100000000E-03 0. -1.
    9000002    1    1    2    0    0 -0.82000468538E-01 -0.61546527014E+00  0.33055823158E+00  0.11724480031E+01  0.93800000000E+00 0. -1.
         22    1    1    2    0    0  0.27461943781E+00  0.43920006497E+00  0.30446524033E+01  0.30884010086E+01  0.00000000000E+00 0. -1.
</event>
<event>
 5    1  0.3005426E+001  0.1599451E+01  0.7818608E-02  0.3353960E+00
         11   -1    0    0    0    0  0.00000000000E+00  0.00000000000E+00  0.39999999674E+01  0.40000000000E+01  0.51100000000E-03 0.  1.
    9000002   -1    0    0    0    0 -0.00000000000E+00 -0.00000000000E+00  0.00000000000E+00  0.93800000000E+00  0.93800000000E+00 0.  1.
         11    1    1    2    0    0  0.58916098496E-01  0.50074316005E-01  0.61047752734E+00  0.61535487022E+00  0.51100000000E-03 0.  1.
    9000002    1    1    2    0    0 -0.44053403488E+00 -0.34551630772E+00  0.21712807482E+00  0.11137505805E+01  0.93800000000E+00 0.  1.
         22    1    1    2    0    0  0.38161793638E+00  0.29544199171E+00  0.31723943652E+01  0.32088945492E+01  0.00000000000E+00 0.  1.
</event>
<event>
 5    1  0.3005426E+001  0.1583023E+01  0.7818608E-02  0.3371999E+00
         11   -1    0    0    0    0  0.00000000000E+00  0.00000000000E+00  0.39999999674E+01  0.40000000000E+01  0.51100000000E-03 0.  1.
    9000002   -1    0    0    0    0 -0.00000000000E+00 -0.00000000000E+00  0.00000000000E+00  0.93800000000E+00  0.93800000000E+00 0. -1.
         11    1    1    2    0    0 -0.27491406176E+00 -0.22822776327E+00  0.89217633684E+00  0.96106426966E+00  0.51100000000E-03 0.  1.
    9000002    1    1    2    0    0  0.76528830550E+00  0.41193801021E+00  0.59548729999E+00  0.14106056285E+01  0.93800000000E+00 0. -1.
         22    1    1    2    0    0 -0.49037424375E+00 -0.18371024694E+00  0.25123363305E+01  0.25663301018E+01  0.00000000000E+00 0.  1.
</event>
<event>
 5    1  0.3005426E+001  0.1599670E+01  0.7818608E-02  0.3353721E+00
         11   -1    0    0    0    0  0.00000000000E+00  0.00000000000E+00  0.39999999674E+01  0.40000000000E+01  0.51100000000E-03 0.  1.
    9000002   -1    0    0    0    0 -0.00000000000E+00 -0.00000000000E+00  0.00000000000E+00  0.93800000000E+00  0.93800000000E+00 0.  1.
         11    1    1    2    0    0 -0.77838536479E-01 -0.10497567364E-01  0.88798009506E+00  0.89144710837E+00  0.51100000000E-03 0.  1.
    9000002    1    1    2    0    0  0.35442994064E+00  0.48071831736E-01  0.85858325883E-01  0.10075451037E+01  0.93800000000E+00 0.  1.
         22    1    1    2    0    0 -0.27659140416E+00 -0.37574264371E-01  0.30261615464E+01  0.30390077879E+01  0.00000000000E+00 0.  1.
</event>
<event>
 5    1  0.3005426E+001  0.1599549E+01  0.7818608E-02  0.3353853E+00
         11   -1    0    0    0    0  0.00000000000E+00  0.00000000000E+00  0.39999999674E+01  0.40000000000E+01  0.51100000000E-03 0. -1.
    9000002   -1    0    0    0    0 -0.00000000000E+00 -0.00000000000E+00  0.00000000000E+00  0.93800000000E+00  0.93800000000E+00 0.  1.
         11    1    1    2    0    0 -0.20798992204E-01 -0.12273525624E-01  0.15807045071E+00  0.15990549089E+00  0.51100000000E-03 0. -1.
    9000002    1    1    2    0    0  0.42788536356E+00  0.40308594519E+00  0.24060904887E+00  0.11328287064E+01  0.93800000000E+00 0.  1.
         22    1    1    2    0    0 -0.40708637136E+00 -0.39081241956E+00  0.36013204678E+01  0.36452658027E+01  0.00000000000E+00 0. -1.
</event>
<event>
 5    1  0.3005426E+001  0.1599676E+01  0.7818608E-02  0.3353716E+00
         11   -1    0    0    0    0  0.00000000000E+00  0.00000000000E+00  0.39999999674E+01  0.40000000000E+01  0.51100000000E-03 0.  1.
    9000002   -1    0    0    0    0 -0.00000000000E+00 -0.00000000000E+00  0.00000000000E+00  0.93800000000E+00  0.93800000000E+00 0.  1.
         11    1    1    2    0    0 -0.81503242657E-01 -0.15907613886E+00  0.13713082277E+01  0.13829079915E+01  0.51100000000E-03 0.  1.
    9000002    1    1    2    0    0  0.22795451496E+00  0.44064275904E+00  0.16838123665E+00  0.10743954313E+01  0.93800000000E+00 0.  1.
         22    1    1    2    0    0 -0.14645127230E+00 -0.28156662017E+00  0.24603105030E+01  0.24806965772E+01  0.00000000000E+00 0.  1.
</event>
<event>
 5    1  0.3005426E+001  0.1597052E+01  0.7818608E-02  0.3356569E+00
         11   -1    0    0    0    0  0.00000000000E+00  0.00000000000E+00  0.39999999674E+01  0.40000000000E+01  0.51100000000E-03 0. -1.
    9000002   -1    0    0    0    0 -0.00000000000E+00 -0.00000000000E+00  0.00000000000E+00  0.93800000000E+00  0.93800000000E+00 0.  1.
         11    1    1    2    0    0  0.73865095463E-01  0.91092406089E-01  0.11143504400E+01  0.11205048162E+01  0.51100000000E-03 0. -1.
    9000002    1    1    2    0    0 -0.97005775498E-01 -0.42659236213E+00  0.13200259699E+00  0.10433886378E+01  0.93800000000E+00 0.  1.
         22    1    1    2    0    0  0.23140680036E-01  0.33549995604E+00  0.27536469303E+01  0.27741065460E+01  0.00000000000E+00 0. -1.
</event>
<event>
 5    1  0.3005426E+001  0.1594356E+01  0.7818608E-02  0.3359512E+00
         11   -1    0    0    0    0  0.00000000000E+00  0.00000000000E+00  0.39999999674E+01  0.40000000000E+01  0.51100000000E-03 0. -1.
    9000002   -1    0    0    0    0 -0.00000000000E+00 -0.00000000000E+00  0.00000000000E+00  0.93800000000E+00  0.93800000000E+00 0.  1.
         11    1    1    2    0    0 -0.96454187439E-01 -0.98845438967E-01  0.14597315348E+01  0.14662504035E+01  0.51100000000E-03 0. -1.
    9000002    1    1    2    0    0  0.46553833686E+00  0.18876355986E+00  0.17763967310E+00  0.10787759165E+01  0.93800000000E+00 0.  1.
         22    1    1    2    0    0 -0.36908414942E+00 -0.89918120889E-01  0.23626287595E+01  0.23929736800E+01  0.00000000000E+00 0. -1.
</event>
<event>
 5    1  0.3005426E+001  0.1599594E+01  0.7818608E-02  0.3353805E+00
         11   -1    0    0    0    0  0.00000000000E+00  0.00000000000E+00  0.39999999674E+01  0.40000000000E+01  0.51100000000E-03 0.  1.
    9000002   -1    0    0    0    0 -0.00000000000E+00 -0.00000000000E+00  0.00000000000E+00  0.93800000000E+00  0.93800000000E+00 0. -1.
         11    1    1    2    0    0 -0.66249268275E-02  0.14642179985E+00  0.13539690102E+01  0.13618794274E+01  0.51100000000E-03 0.  1.
    9000002    1    1    2    0    0 -0.85129971927E-02 -0.40827345043E+00  0.11267477909E+00  0.10292226617E+01  0.93800000000E+00 0. -1.
         22    1    1    2    0    0  0.15137924020E-01  0.26185165058E+00  0.25333561781E+01  0.25468979109E+01  0.00000000000E+00 0. -1.
</event>
<event>
 5    1  0.3005426E+001  0.1599676E+01  0.7818608E-02  0.3353715E+00
         11   -1    0    0    0    0  0.00000000000E+00  0.00000000000E+00  0.39999999674E+01  0.40000000000E+01  0.51100000000E-03 0. -1.
    9000002   -1    0    0    0    0 -0.00000000000E+00 -0.00000000000E+00  0.00000000000E+00  0.93800000000E+00  0.93800000000E+00 0.  1.
         11    1    1    2    0    0 -0.88132933936E-01  0.13168326461E-01  0.98843876062E+00  0.99244761246E+00  0.51100000000E-03 0. -1.
    9000002    1    1    2    0    0  0.35207734676E+00 -0.52133458390E-01  0.84994238431E-01  0.10068487355E+01  0.93800000000E+00 0.  1.
         22    1    1    2    0    0 -0.26394441283E+00  0.38965131929E-01  0.29265669683E+01  0.29387036521E+01  0.00000000000E+00 0. -1.
</event>
<event>
 5    1  0.3005426E+001  0.1546796E+01  0.7818608E-02  0.3413214E+00
         11   -1    0    0    0    0  0.00000000000E+00  0.00000000000E+00  0.39999999674E+01  0.40000000000E+01  0.51100000000E-03 0.  1.
    9000002   -1    0    0    0    0 -0.00000000000E+00 -0.00000000000E+00  0.00000000000E+00  0.93800000000E+00  0.93800000000E+00 0. -1.
         11    1    1    2    0    0 -0.27425260559E+00  0.42629538457E-01  0.11849984109E+01  0.12170674854E+01  0.51100000000E-03 0.  1.
    9000002    1    1    2    0    0  0.12915864453E+00  0.18207525203E+00  0.74133004428E-01  0.96704346087E+00  0.93800000000E+00 0. -1.
         22    1    1    2    0    0  0.14509396106E+00 -0.22470479048E+00  0.27408685521E+01  0.27538890537E+01  0.00000000000E+00 0.  1.
</event>
<event>
 5    1  0.3005426E+001  0.1594573E+01  0.7818608E-02  0.3359275E+00
         11   -1    0    0    0    0  0.00000000000E+00  0.00000000000E+00  0.39999999674E+01  0.40000000000E+01  0.51100000000E-03 0.  1.
    9000002   -1    0    0    0    0 -0.00000000000E+00 -0.00000000000E+00  0.00000000000E+00  0.93800000000E+00  0.93800000000E+00 0.  1.
         11    1    1    2    0    0 -0.11421526536E+00  0.21270704510E-01  0.46446084602E+00  0.47877103956E+00  0.51100000000E-03 0.  1.
    9000002    1    1    2    0    0  0.64503547466E+00  0.20615337072E+00  0.33134845034E+00  0.12034142144E+01  0.93800000000E+00 0.  1.
         22    1    1    2    0    0 -0.53082020930E+00 -0.22742407523E+00  0.32041906710E+01  0.32558147461E+01  0.00000000000E+00 0.  1.
</event>
<event>
 5    1  0.3005426E+001  0.1599677E+01  0.7818608E-02  0.3353714E+00
         11   -1    0    0    0    0  0.00000000000E+00  0.00000000000E+00  0.39999999674E+01  0.40000000000E+01  0.51100000000E-03 0. -1.
    9000002   -1    0    0    0    0 -0.00000000000E+00 -0.00000000000E+00  0.00000000000E+00  0.93800000000E+00  0.93800000000E+00 0. -1.
         11    1    1    2    0    0 -0.11411644735E-01 -0.84264505765E-01  0.82262856062E+00  0.82701193609E+00  0.51100000000E-03 0.  1.
    9000002    1    1    2    0    0  0.55433705555E-01  0.39935733339E+00  0.10969466438E+00  0.10268573878E+01  0.93800000000E+00 0. -1.
         22    1    1    2    0    0 -0.44022060820E-01 -0.31509282762E+00  0.30676767424E+01  0.30841306761E+01  0.00000000000E+00 0. -1.
</event>
<event>
 5    1  0.3005426E+001  0.1599610E+01  0.7818608E-02  0.3353787E+00
         11   -1    0    0    0    0  0.00000000000E+00  0.00000000000E+00  0.39999999674E+01  0.40000000000E+01  0.51100000000E-03 0.  1.
    9000002   -1    0    0    0    0 -0.00000000000E+00 -0.00000000000E+00  0.00000000000E+00  0.93800000000E+00  0.93800000000E+00 0.  1.
         11    1    1    2    0    0  0.84855133780E-01 -0.31383219615E-01  0.81453642166E+00  0.81954569338E+00  0.51100000000E-03 0.  1.
    9000002    1    1    2    0    0 -0.37370299832E+00  0.12874241927E+00  0.10537112931E+00  0.10233159905E+01  0.93800000000E+00 0.  1.
         22    1    1    2    0    0  0.28884786454E+00 -0.97359199650E-01  0.30800924164E+01  0.30951383161E+01  0.00000000000E+00 0.  1.
</event>
<event>
 5    1  0.3005426E+001  0.1540399E+01  0.7818608E-02  0.3420707E+00
         11   -1    0    0    0    0  0.00000000000E+00  0.00000000000E+00  0.39999999674E+01  0.40000000000E+01  0.51100000000E-03 0. -1.
    9000002   -1    0    0    0    0 -0.00000000000E+00 -0.00000000000E+00  0.00000000000E+00  0.93800000000E+00  0.93800000000E+00 0. -1.
         11    1    1    2    0    0 -0.18086578619E-01  0.17826021093E+00  0.33023869877E+00  0.37571490044E+00  0.51100000000E-03 0. -1.
    9000002    1    1    2    0    0  0.35980411989E+00 -0.11559807035E+00  0.14637003090E+00  0.10218072737E+01  0.93800000000E+00 0. -1.
         22    1    1    2    0    0 -0.34171754127E+00 -0.62662140580E-01  0.35233912377E+01  0.35404778259E+01  0.00000000000E+00 0. -1.
</event>
<event>
 5    1  0.3005426E+001  0.1593487E+01  0.7818608E-02  0.3360463E+00
         11   -1    0    0    0    0  0.00000000000E+00  0.00000000000E+00  0.39999999674E+01  0.40000000000E+01  0.51100000000E-03 0. -1.
    9000002   -1    0    0    0    0 -0.00000000000E+00 -0.00000000000E+00  0.00000000000E+00  0.93800000000E+00  0.93800000000E+00 0.  1.
         11    1    1    2    0    0 -0.51803105863E-01  0.43775474464E-01  0.11629917536E+01  0.11649677824E+01  0.51100000000E-03 0. -1.
    9000002    1    1    2    0    0  0.12859105529E+00 -0.43111509283E+00  0.14282655088E+00  0.10500663343E+01  0.93800000000E+00 0.  1.
         22    1    1    2    0    0 -0.76787949428E-01  0.38733961837E+00  0.26941816629E+01  0.27229658833E+01  0.00000000000E+00 0. -1.
</event>
<event>
 5    1  0.3005426E+001  0.1599479E+01  0.7818608E-02  0.3353929E+00
         11   -1    0    0    0    0  0.00000000000E+00  0.00000000000E+00  0.39999999674E+01  0.40000000000E+01  0.51100000000E-03 0. -1.
    9000002   -1    0    0    0    0 -0.00000000000E+00 -0.00000000000E+00  0.00000000000E+00  0.93800000000E+00  0.93800000000E+00 0.  1.
         11    1    1    2    0    0 -0.83165216444E-01 -0.17132854321E+00  0.14756440242E+01  0.14878828819E+01  0.51100000000E-03 0. -1.
    9000002    1    1    2    0    0  0.19684859478E+00  0.48159425953E+00  0.18612696762E+00  0.10886549720E+01  0.93800000000E+00 0.  1.
         22    1    1    2    0    0 -0.11368337834E+00 -0.31026571632E+00  0.23382289756E+01  0.23614621461E+01  0.00000000000E+00 0. -1.
</event>
<event>
 5    1  0.3005426E+001  0.1599676E+01  0.7818608E-02  0.3353715E+00
         11   -1    0    0    0    0  0.00000000000E+00  0.00000000000E+00  0.39999999674E+01  0.40000000000E+01  0.51100000000E-03 0. -1.
    9000002   -1    0    0    0    0 -0.00000000000E+00 -0.00000000000E+00  0.00000000000E+00  0.93800000000E+00  0.93800000000E+00 0. -1.
         11    1    1    2    0    0 -0.11943395801E+00 -0.13125587758E+00  0.90884246801E+00  0.92600619247E+00  0.51100000000E-03 0. -1.
    9000002    1    1    2    0    0  0.48087375473E+00  0.52521653908E+00  0.36360492870E+00  0.12325358109E+01  0.93800000000E+00 0. -1.
         22    1    1    2    0    0 -0.36143979671E+00 -0.39396066150E+00  0.27275525707E+01  0.27794579967E+01  0.00000000000E+00 0. -1.
</event>
<event>
 5    1  0.3005426E+001  0.1486351E+01  0.7818608E-02  0.3486773E+00
         11   -1    0    0    0    0  0.00000000000E+00  0.00000000000E+00  0.39999999674E+01  0.40000000000E+01  0.51100000000E-03 0. -1.
    9000002   -1    0    0    0    0 -0.00000000000E+00 -0.00000000000E+00  0.00000000000E+00  0.93800000000E+00  0.93800000000E+00 0. -1.
         11    1    1    2    0    0  0.20431880088E+00  0.29667855386E+00  0.97180051999E+00  0.10364173139E+01  0.51100000000E-03 0. -1.
    9000002    1    1    2    0    0 -0.39249192164E+00  0.17147886426E+00  0.22771470274E+00  0.10560079996E+01  0.93800000000E+00 0. -1.
         22    1    1    2    0    0  0.18817312076E+00 -0.46815741812E+00  0.28004847446E+01  0.28455746865E+01  0.00000000000E+00 0. -1.
</event>
<event>
 5    1  0.3005426E+001  0.1599618E+01  0.7818608E-02  0.3353778E+00
         11   -1    0    0    0    0  0.00000000000E+00  0.00000000000E+00  0.39999999674E+01  0.40000000000E+01  0.51100000000E-03 0.  1.
    9000002   -1    0    0    0    0 -0.00000000000E+00 -0.00000000000E+00  0.00000000000E+00  0.93800000000E+00  0.93800000000E+00 0.  1.
         11    1    1    2    0    0 -0.16194016274E-01 -0.92807816230E-01  0.55203863553E+00  0.56002004710E+00  0.51100000000E-03 0.  1.
    9000002    1    1    2    0    0  0.15257498113E+00  0.61840134740E+00  0.28546000872E+00  0.11692009100E+01  0.93800000000E+00 0.  1.
         22    1    1    2    0    0 -0.13638096486E+00 -0.52559353117E+00  0.31625013231E+01  0.32087790429E+01  0.00000000000E+00 0.  1.
</event>
<event>
 5    1  0.3005426E+001  0.1599677E+01  0.7818608E-02  0.3353714E+00
         11   -1    0    0    0    0  0.00000000000E+00  0.00000000000E+00  0.39999999674E+01  0.40000000000E+01  0.51100000000E-03 0. -1.
    9000002   -1    0    0    0    0 -0.00000000000E+00 -0.00000000000E+00  0.00000000000E+00  0.93800000000E+00  0.93800000000E+00 0. -1.
         11    1    1    2    0    0 -0.11808243280E+00 -0.12665540453E+00  0.13309597809E+01  0.13421770569E+01  0.51100000000E-03 0.  1.
    9000002    1    1    2    0    0  0.33859996783E+00  0.36386949471E+00  0.16903676723E+00  0.10749271492E+01  0.93800000000E+00 0. -1.
         22    1    1    2    0    0 -0.22051753503E+00 -0.23721409018E+00  0.25000034192E+01  0.25208957939E+01  0.00000000000E+00 0. -1.
</event>
<event>
 5    1  0.3005426E+001  0.1530445E+01  0.7818608E-02  0.3432497E+00
         11   -1    0    0    0    0  0.00000000000E+00  0.00000000000E+00  0.39999999674E+01  0.40000000000E+01  0.51100000000E-03 0.  1.
    9000002   -1    0    0    0    0 -0.00000000000E+00 -0.00000000000E+00  0.00000000000E+00  0.93800000000E+00  0.93800000000E+00 0.  1.
         11    1    1    2    0    0 -0.12592091633E+00  0.39697594009E+00  0.13098706196E+01  0.13744843671E+01  0.51100000000E-03 0.  1.
    9000002    1    1    2    0    0  0.40604321607E+00 -0.27023975471E+00  0.22707442296E+00  0.10813451863E+01  0.93800000000E+00 0.  1.
         22    1    1    2    0    0 -0.28012229974E+00 -0.12673618538E+00  0.24630549248E+01  0.24821704466E+01  0.00000000000E+00 0.  1.
</event>
<event>
 5    1  0.3005426E+001  0.1560105E+01  0.7818608E-02  0.3397836E+00
         11   -1    0    0    0    0  0.00000000000E+00  0.00000000000E+00  0.39999999674E+01  0.40000000000E+01  0.51100000000E-03 0.  1.
    9000002   -1    0    0    0    0 -0.00000000000E+00 -0.00000000000E+00  0.00000000000E+00  0.93800000000E+00  0.93800000000E+00 0. -1.
         11    1    1    2    0    0 -0.26058549415E+00  0.79033465043E-01  0.10194248851E+01  0.10551674966E+01  0.51100000000E-03 0.  1.
    9000002    1    1    2    0    0  0.18460433472E+00 -0.32527759953E+00  0.12714447235E+00  0.10177887767E+01  0.93800000000E+00 0. -1.
         22    1    1    2    0    0  0.75981159432E-01  0.24624413449E+00  0.28534306099E+01  0.28650437267E+01  0.00000000000E+00 0.  1.
</event>
<event>
 5    1  0.3005426E+001  0.1598874E+01  0.7818608E-02  0.3354587E+00
         11   -1    0    0    0    0  0.00000000000E+00  0.00000000000E+00  0.39999999674E+01  0.40000000000E+01  0.51100000000E-03 0. -1.
    9000002   -1    0    0    0    0 -0.00000000000E+00 -0.00000000000E+00  0.00000000000E+00  0.93800000000E+00  0.93800000000E+00 0.  1.
         11    1    1    2    0    0 -0.21868375887E-01 -0.32906308791E-01  0.57239984264E+00  0.57376205172E+00  0.51100000000E-03 0. -1.
    9000002    1    1    2    0    0  0.31359140609E+00  0.22793573984E+00  0.10188199389E+00  0.10200579455E+01  0.93800000000E+00 0.  1.
         22    1    1    2    0    0 -0.29172303021E+00 -0.19502943105E+00  0.33257181308E+01  0.33441800028E+01  0.00000000000E+00 0. -1.
</event>
<event>
 5    1  0.3005426E+001  0.1598572E+01  0.7818608E-02  0.3354915E+00
         11   -1    0    0    0    0  0.00000000000E+00  0.00000000000E+00  0.39999999674E+01  0.40000000000E+01  0.51100000000E-03 0.  1.
    9000002   -1    0    0    0    0 -0.00000000000E+00 -0.00000000000E+00  0.00000000000E+00  0.93800000000E+00  0.93800000000E+00 0. -1.
         11    1    1    2    0    0 -0.12891675830E+00 -0.17118140993E+00  0.12517937513E+01  0.12700041191E+01  0.51100000000E-03 0.  1.
    9000002    1    1    2    0    0  0.27664710266E+00  0.54245435752E+00  0.26030876662E+00  0.11482138317E+01  0.93800000000E+00 0. -1.
         22    1    1    2    0    0 -0.14773034437E+00 -0.37127294760E+00  0.24878974494E+01  0.25197820491E+01  0.00000000000E+00 0.  1.
</event>
<event>
 5    1  0.8811446E+001  0.1581536E+01  0.7818608E-02  0.3373650E+00
         11   -1    0    0    0    0  0.00000000000E+00  0.00000000000E+00  0.39999999674E+01  0.40000000000E+01  0.51100000000E-03 0. -1.
    9000002   -1    0    0    0    0 -0.00000000000E+00 -0.00000000000E+00  0.00000000000E+00  0.93800000000E+00  0.93800000000E+00 0. -1.
         11    1    1    2    0    0  0.99530694951E-01 -0.53820403034E-01  0.14451780882E+01  0.14496009667E+01  0.51100000000E-03 0. -1.
    9000002    1    1    2    0    0  0.10195121416E+00 -0.58744026471E-01  0.22538263688E-01  0.94561984119E+00  0.93800000000E+00 0. -1.
         22    1    1    2    0    0 -0.20148190911E+00  0.11256442950E+00  0.25322836155E+01  0.25427791921E+01  0.00000000000E+00 0. -1.
</event>
<event>
 5    1  0.3005426E+001  0.1597851E+01  0.7818608E-02  0.3355699E+00
         11   -1    0    0    0    0  0.00000000000E+00  0.00000000000E+00  0.39999999674E+01  0.40000000000E+01  0.51100000000E-03 0. -1.
    9000002   -1    0    0    0    0 -0.00000000000E+00 -0.00000000000E+00  0.00000000000E+00  0.93800000000E+00  0.93800000000E+00 0.  1.
         11    1    1    2    0    0  0.88743379120E-01 -0.23451757264E+00  0.13295088481E+01  0.13529478620E+01  0.51100000000E-03 0. -1.
    9000002    1    1    2    0    0 -0.11844366062E+00  0.61013359143E+00  0.27265059180E+00  0.11577885149E+01  0.93800000000E+00 0.  1.
         22    1    1    2    0    0  0.29700281503E-01 -0.37561601879E+00  0.23978405275E+01  0.24272636230E+01  0.00000000000E+00 0. -1.
</event>
<event>
 5    1  0.3005426E+001  0.1598058E+01  0.7818608E-02  0.3355474E+00
         11   -1    0    0    0    0  0.00000000000E+00  0.00000000000E+00  0.39999999674E+01  0.40000000000E+01  0.51100000000E-03 0.  1.
    9000002   -1    0    0    0    0 -0.00000000000E+00 -0.00000000000E+00  0.00000000000E+00  0.93800000000E+00  0.93800000000E+00 0. -1.
         11    1    1    2    0    0  0.18055866194E-01 -0.16195672033E-01  0.36592399491E+00  0.36672734459E+00  0.51100000000E-03 0.  1.
    9000002    1    1    2    0    0 -0.55771815356E-01  0.43900310096E+00  0.13425414812E+00  0.10458022731E+01  0.93800000000E+00 0. -1.
         22    1    1    2    0    0  0.37715949162E-01 -0.42280742893E+00  0.34998218243E+01  0.35254703824E+01  0.00000000000E+00 0.  1.
</event>
<event>
 5    1  0.3005426E+001  0.1598824E+01  0.7818608E-02  0.3354640E+00
         11   -1    0    0    0    0  0.00000000000E+00  0.00000000000E+00  0.39999999674E+01  0.40000000000E+01  0.51100000000E-03 0. -1.
    9000002   -1    0    0    0    0 -0.00000000000E+00 -0.00000000000E+00  0.00000000000E+00  0.93800000000E+00  0.93800000000E+00 0. -1.
         11    1    1    2    0    0  0.67896158062E-01  0.10076231770E+00  0.10639131333E+01  0.10708288142E+01  0.51100000000E-03 0. -1.
    9000002    1    1    2    0    0 -0.14203570135E+00 -0.41134629338E+00  0.12907670084E+00  0.10420579198E+01  0.93800000000E+00 0. -1.
         22    1    1    2    0    0  0.74139543285E-01  0.31058397567E+00  0.28070101332E+01  0.28251132660E+01  0.00000000000E+00 0. -1.
</event>
<event>
 5    1  0.3005426E+001  0.1561020E+01  0.7818608E-02  0.3396789E+00
         11   -1    0    0    0    0  0.00000000000E+00  0.00000000000E+00  0.39999999674E+01  0.40000000000E+01  0.51100000000E-03 0. -1.
    9000002   -1    0    0    0    0 -0.00000000000E+00 -0.00000000000E+00  0.00000000000E+00  0.93800000000E+00  0.93800000000E+00 0. -1.
         11    1    1    2    0    0  0.19031228715E+00  0.21823069098E+00  0.13422021108E+01  0.13730805397E+01  0.51100000000E-03 0. -1.
    9000002    1    1    2    0    0  0.49713969628E-01 -0.37412164312E+00  0.12819211468E+00  0.10191740288E+01  0.93800000000E+00 0. -1.
         22    1    1    2    0    0 -0.24002625678E+00  0.15589095214E+00  0.25296057419E+01  0.25457454315E+01  0.00000000000E+00 0. -1.
</event>
<event>
 5    1  0.3005426E+001  0.1599628E+01  0.7818608E-02  0.3353768E+00
         11   -1    0    0    0    0  0.00000000000E+00  0.00000000000E+00  0.39999999674E+01  0.40000000000E+01  0.51100000000E-03 0. -1.
    9000002   -1    0    0    0    0 -0.00000000000E+00 -0.00000000000E+00  0.00000000000E+00  0.93800000000E+00  0.93800000000E+00 0.  1.
         11    1    1    2    0    0  0.10198641092E+00 -0.43647581758E-02  0.75996755992E+00  0.76679282233E+00  0.51100000000E-03 0. -1.
    9000002    1    1    2    0    0 -0.48233211707E+00  0.31158637856E-01  0.15952909411E+00  0.10671966378E+01  0.93800000000E+00 0.  1.
         22    1    1    2    0    0  0.38034570615E+00 -0.26793879680E-01  0.30805033133E+01  0.31040105399E+01  0.00000000000E+00 0. -1.
</event>
<event>
 5    1  0.3005426E+001  0.1599463E+01  0.7818608E-02  0.3353946E+00
         11   -1    0    0    0    0  0.00000000000E+00  0.00000000000E+00  0.39999999674E+01  0.40000000000E+01  0.51100000000E-03 0. -1.
    9000002   -1    0    0    0    0 -0.00000000000E+00 -0.00000000000E+00  0.00000000000E+00  0.93800000000E+00  0.93800000000E+00 0. -1.
         11    1    1    2    0    0 -0.21538129527E-01 -0.51239604982E-01  0.36081613671E+00  0.36507250482E+00  0.51100000000E-03 0. -1.
    9000002    1    1    2    0    0  0.31136244124E+00  0.58220622332E+00  0.30859296622E+00  0.11878485910E+01  0.93800000000E+00 0. -1.
         22    1    1    2    0    0 -0.28982431171E+00 -0.53096661834E+00  0.33305908644E+01  0.33850789042E+01  0.00000000000E+00 0. -1.
</event>
<event>
 5    1  0.3005426E+001  0.1529146E+01  0.7818608E-02  0.3434048E+00
         11   -1    0    0    0    0  0.00000000000E+00  0.00000000000E+00  0.39999999674E+01  0.40000000000E+01  0.51100000000E-03 0. -1.
    9000002   -1    0    0    0    0 -0.00000000000E+00 -0.00000000000E+00  0.00000000000E+00  0.93800000000E+00  0.93800000000E+00 0. -1.
         11    1    1    2    0    0  0.14751955240E+00  0.14730089910E+00  0.29215328510E+00  0.35890580426E+00  0.51100000000E-03 0. -1.
    9000002    1    1    2    0    0 -0.55624458518E-01 -0.47345275536E+00  0.22014370772E+00  0.10749692293E+01  0.93800000000E+00 0. -1.
         22    1    1    2    0    0 -0.91895093884E-01  0.32615185626E+00  0.34877029745E+01  0.35041249664E+01  0.00000000000E+00 0. -1.
</event>
<event>
 5    1  0.3005426E+001  0.1599675E+01  0.7818608E-02  0.3353716E+00
         11   -1    0    0    0    0  0.00000000000E+00  0.00000000000E+00  0.39999999674E+01  0.40000000000E+01  0.51100000000E-03 0.  1.
    9000002   -1    0    0    0    0 -0.00000000000E+00 -0.00000000000E+00  0.00000000000E+00  0.93800000000E+00  0.93800000000E+00 0. -1.
         11    1    1    2    0    0 -0.31934791777E-01 -0.15348870204E-01  0.33335361440E+00  0.33523172895E+00  0.51100000000E-03 0. -1.
    9000002    1    1    2    0    0  0.37315944957E+00  0.16895594422E+00  0.11332406683E+00  0.10297963051E+01  0.93800000000E+00 0. -1.
         22    1    1    2    0    0 -0.34122465780E+00 -0.15360707402E+00  0.35533222861E+01  0.35729719659E+01  0.00000000000E+00 0.  1.
</event>
<event>
 5    1  0.3005426E+001  0.1599331E+01  0.7818608E-02  0.3354089E+00
         11   -1    0    0    0    0  0.00000000000E+00  0.00000000000E+00  0.39999999674E+01  0.40000000000E+01  0.51100000000E-03 0.  1.
    9000002   -1    0    0    0    0 -0.00000000000E+00 -0.00000000000E+00  0.00000000000E+00  0.93800000000E+00  0.93800000000E+00 0. -1.
         11    1    1    2    0    0  0.44517532283E-03 -0.29823362842E-01  0.22455623055E+00  0.22652901128E+00  0.51100000000E-03 0.  1.
    9000002    1    1    2    0    0  0.17074870836E+00  0.51120198857E+00  0.20054494929E+00  0.11002476409E+01  0.93800000000E+00 0. -1.
         22    1    1    2    0    0 -0.17119388369E+00 -0.48137862573E+00  0.35748987875E+01  0.36112233479E+01  0.00000000000E+00 0.  1.
</event>
<event>
 5    1  0.3005426E+001  0.1599652E+01  0.7818608E-02  0.3353742E+00
         11   -1    0    0    0    0  0.00000000000E+00  0.00000000000E+00  0.39999999674E+01  0.40000000000E+01  0.51100000000E-03 0. -1.
    9000002   -1    0    0    0    0 -0.00000000000E+00 -0.00000000000E+00  0.00000000000E+00  0.93800000000E+00  0.93800000000E+00 0.  1.
         11    1    1    2    0    0 -0.56616047889E-01 -0.17594327797E+00  0.10856167536E+01  0.11012381263E+01  0.51100000000E-03 0. -1.
    9000002    1    1    2    0    0  0.18671012882E+00  0.61845632738E+00  0.29424901782E+00  0.11763398257E+01  0.93800000000E+00 0.  1.
         22    1    1    2    0    0 -0.13009408093E+00 -0.44251304942E+00  0.26201341959E+01  0.26604220480E+01  0.00000000000E+00 0. -1.
</event>
<event>
 5    1  0.3005426E+001  0.1599549E+01  0.7818608E-02  0.3353853E+00
         11   -1    0    0    0    0  0.00000000000E+00  0.00000000000E+00  0.39999999674E+01  0.40000000000E+01  0.51100000000E-03 0.  1.
    9000002   -1    0    0    0    0 -0.00000000000E+00 -0.00000000000E+00  0.00000000000E+00  0.93800000000E+00  0.93800000000E+00 0.  1.
         11    1    1    2    0    0 -0.22523968822E+00  0.33992617066E-01  0.13701702241E+01  0.13889762846E+01  0.51100000000E-03 0.  1.
    9000002    1    1    2    0    0  0.60559454229E+00 -0.58253825338E-01  0.25884101517E+00  0.11475978951E+01  0.93800000000E+00 0.  1.
         22    1    1    2    0    0 -0.38035485406E+00  0.24261208272E-01  0.23709887281E+01  0.24014258202E+01  0.00000000000E+00 0.  1.
</event>
<event>
 5    1  0.3005426E+001  0.1599674E+01  0.7818608E-02  0.3353717E+00
         11   -1    0    0    0    0  0.00000000000E+00  0.00000000000E+00  0.39999999674E+01  0.40000000000E+01  0.51100000000E-03 0. -1.
    9000002   -1    0    0    0    0 -0.00000000000E+00 -0.00000000000E+00  0.00000000000E+00  0.93800000000E+00  0.93800000000E+00 0. -1.
         11    1    1    2    0    0 -0.17037893787E-01  0.15494323604E-01  0.24903141083E+00  0.25009451931E+00  0.51100000000E-03 0. -1.
    9000002    1    1    2    0    0  0.25723567212E+00 -0.25175004769E+00  0.86962312219E-01  0.10084417292E+01  0.93800000000E+00 0. -1.
         22    1    1    2    0    0 -0.24019777833E+00  0.23625572409E+00  0.36640062443E+01  0.36794637515E+01  0.00000000000E+00 0. -1.
</event>
<event>
 5    1  0.3005426E+001  0.1485225E+01  0.7818608E-02  0.3488205E+00
         11   -1    0    0    0    0  0.00000000000E+00  0.00000000000E+00  0.39999999674E+01  0.40000000000E+01  0.51100000000E-03 0.  1.
    9000002   -1    0    0    0    0 -0.00000000000E+00 -0.00000000000E+00  0.00000000000E+00  0.93800000000E+00  0.93800000000E+00 0.  1.
         11    1    1    2    0    0 -0.19314422020E+00 -0.40762928427E-01  0.26554115072E+00  0.33087561104E+00  0.51100000000E-03 0.  1.
    9000002    1    1    2    0    0 -0.25552324595E+00  0.28425833111E-01  0.13749733387E+00  0.98226761834E+00  0.93800000000E+00 0.  1.
         22    1    1    2    0    0  0.44866746614E+00  0.12337095316E-01  0.35969614828E+01  0.36248567706E+01  0.00000000000E+00 0.  1.
</event>
<event>
 5    1  0.3005426E+001  0.1599446E+01  0.7818608E-02  0.3353965E+00
         11   -1    0    0    0    0  0.00000000000E+00  0.00000000000E+00  0.39999999674E+01  0.40000000000E+01  0.51100000000E-03 0.  1.
    9000002   -1    0    0    0    0 -0.00000000000E+00 -0.00000000000E+00  0.00000000000E+00  0.93800000000E+00  0.93800000000E+00 0.  1.
         11    1    1    2    0    0 -0.82914160716E-02 -0.19129710797E-01  0.99116085130E-01  0.10128648907E+00  0.51100000000E-03 0.  1.
    9000002    1    1    2    0    0  0.12150978899E+00  0.60533193542E+00  0.26720238263E+00  0.11543103977E+01  0.93800000000E+00 0.  1.
         22    1    1    2    0    0 -0.11321837292E+00 -0.58620222462E+00  0.36336814996E+01  0.36824031133E+01  0.00000000000E+00 0.  1.
</event>
<event>
 5    1  0.3005426E+001  0.1599676E+01  0.7818608E-02  0.3353715E+00
         11   -1    0    0    0    0  0.00000000000E+00  0.00000000000E+00  0.39999999674E+01  0.40000000000E+01  0.51100000000E-03 0. -1.
    9000002   -1    0    0    0    0 -0.00000000000E+00 -0.00000000000E+00  0.00000000000E+00  0.93800000000E+00  0.93800000000E+00 0.  1.
         11    1    1    2    0    0 -0.91201029714E-02 -0.24041315369E-01  0.26140308202E+00  0.26266517381E+00  0.51100000000E-03 0.  1.
    9000002    1    1    2    0    0  0.13542329032E+00  0.35334215751E+00  0.96326320344E-01  0.10160280054E+01  0.93800000000E+00 0.  1.
         22    1    1    2    0    0 -0.12630318735E+00 -0.32930084215E+00  0.36422705650E+01  0.36593068208E+01  0.00000000000E+00 0. -1.
</event>
<event>
 5    1  0.3005426E+001  0.1596320E+01  0.7818608E-02  0.3357367E+00
         11   -1    0    0    0    0  0.00000000000E+00  0.00000000000E+00  0.39999999674E+01  0.40000000000E+01  0.51100000000E-03 0.  1.
    9000002   -1    0    0    0    0 -0.00000000000E+00 -0.00000000000E+00  0.00000000000E+00  0.93800000000E+00  0.93800000000E+00 0. -1.
         11    1    1    2    0    0  0.32248262868E-01 -0.41978605037E-01  0.44476910744E+00  0.44790844354E+00  0.51100000000E-03 0.  1.
    9000002    1    1    2    0    0 -0.37575981211E+00 -0.92198761466E-02  0.97764397492E-01  0.10152252558E+01  0.93800000000E+00 0. -1.
         22    1    1    2    0    0  0.34351154925E+00  0.51198481184E-01  0.34574664624E+01  0.34748663007E+01  0.00000000000E+00 0.  1.
</event>
<event>
 5    1  0.3005426E+001  0.1593519E+01  0.7818608E-02  0.3360428E+00
         11   -1    0    0    0    0  0.00000000000E+00  0.00000000000E+00  0.39999999674E+01  0.40000000000E+01  0.51100000000E-03 0.  1.
    9000002   -1    0    0    0    0 -0.00000000000E+00 -0.00000000000E+00  0.00000000000E+00  0.93800000000E+00  0.93800000000E+00 0. -1.
         11    1    1    2    0    0  0.81484837504E-01 -0.87984134189E-01  0.54732335803E+00  0.56030715325E+00  0.51100000000E-03 0.  1.
    9000002    1    1    2    0    0 -0.12775815562E+00  0.47085280478E+00  0.16812353093E+00  0.10705764950E+01  0.93800000000E+00 0. -1.
         22    1    1    2    0    0  0.46273318119E-01 -0.38286867059E+00  0.32845530784E+01  0.33071163517E+01  0.00000000000E+00 0.  1.
</event>
<event>
 5    1  0.3005426E+001  0.1599676E+01  0.7818608E-02  0.3353715E+00
         11   -1    0    0    0    0  0.00000000000E+00  0.00000000000E+00  0.39999999674E+01  0.40000000000E+01  0.51100000000E-03 0. -1.
    9000002   -1    0    0    0    0 -0.00000000000E+00 -0.00000000000E+00  0.00000000000E+00  0.93800000000E+00  0.93800000000E+00 0. -1.
         11    1    1    2    0    0 -0.21653172784E-01  0.11740080133E+00  0.12730844041E+01  0.12786696090E+01  0.51100000000E-03 0. -1.
    9000002    1    1    2    0    0  0.64280848974E-01 -0.36270984179E+00  0.91172420600E-01  0.10118531846E+01  0.93800000000E+00 0. -1.
         22    1    1    2    0    0 -0.42627676190E-01  0.24530904046E+00  0.26357431427E+01  0.26474772064E+01  0.00000000000E+00 0. -1.
</event>
<event>
 5    1  0.3005426E+001  0.1598997E+01  0.7818608E-02  0.3354453E+00
         11   -1    0    0    0    0  0.00000000000E+00  0.00000000000E+00  0.39999999674E+01  0.40000000000E+01  0.51100000000E-03 0.  1.
    9000002   -1    0    0    0    0 -0.00000000000E+00 -0.00000000000E+00  0.00000000000E+00  0.93800000000E+00  0.93800000000E+00 0.  1.
         11    1    1    2    0    0  0.10569798528E-01 -0.11434363325E-01  0.25824672258E+00  0.25871624639E+00  0.51100000000E-03 0.  1.
    9000002    1    1    2    0    0 -0.37327841631E+00  0.72568557548E-01  0.97856147853E-01  0.10168691151E+01  0.93800000000E+00 0.  1.
         22    1    1    2    0    0  0.36270861778E+00 -0.61134194222E-01  0.36438970969E+01  0.36624146385E+01  0.00000000000E+00 0.  1.
</event>
<event>
 5    1  0.3005426E+001  0.1596320E+01  0.7818608E-02  0.3357368E+00
         11   -1    0    0    0    0  0.00000000000E+00  0.00000000000E+00  0.39999999674E+01  0.40000000000E+01  0.51100000000E-03 0. -1.
    9000002   -1    0    0    0    0 -0.00000000000E+00 -0.00000000000E+00  0.00000000000E+00  0.93800000000E+00  0.93800000000E+00 0. -1.
         11    1    1    2    0    0  0.30002027761E-01 -0.50751747821E-01  0.54183262593E+00  0.54503093235E+00  0.51100000000E-03 0. -1.
    9000002    1    1    2    0    0  0.13115306592E+00  0.36061330720E+00  0.10188338189E+00  0.10185613911E+01  0.93800000000E+00 0. -1.
         22    1    1    2    0    0 -0.16115509368E+00 -0.30986155937E+00  0.33562839595E+01  0.33744076765E+01  0.00000000000E+00 0. -1.
</event>
<event>
 5    1  0.3005426E+001  0.1599564E+01  0.7818608E-02  0.3353837E+00
         11   -1    0    0    0    0  0.00000000000E+00  0.00000000000E+00  0.39999999674E+01  0.40000000000E+01  0.51100000000E-03 0.  1.
    9000002   -1    0    0    0    0 -0.00000000000E+00 -0.00000000000E+00  0.00000000000E+00  0.93800000000E+00  0.93800000000E+00 0.  1.
         11    1    1    2    0    0  0.69946493892E-02  0.18407828610E-01  0.25837365836E+00  0.25912348741E+00  0.51100000000E-03 0.  1.
    9000002    1    1    2    0    0 -0.12302099614E+00 -0.37227022837E+00  0.10367628515E+00  0.10219158774E+01  0.93800000000E+00 0.  1.
         22    1    1    2    0    0  0.11602634675E+00  0.35386239976E+00  0.36379500239E+01  0.36569606352E+01  0.00000000000E+00 0.  1.
</event>
<event>
 5    1  0.3005426E+001  0.1599676E+01  0.7818608E-02  0.3353715E+00
         11   -1    0    0    0    0  0.00000000000E+00  0.00000000000E+00  0.39999999674E+01  0.40000000000E+01  0.51100000000E-03 0.  1.
    9000002   -1    0    0    0    0 -0.00000000000E+00 -0.00000000000E+00  0.00000000000E+00  0.93800000000E+00  0.93800000000E+00 0. -1.
         11    1    1    2    0    0 -0.10317356020E+00 -0.21725169275E+00  0.12854316663E+01  0.13077377074E+01  0.51100000000E-03 0.  1.
    9000002    1    1    2    0    0  0.29588292524E+00  0.61667169313E+00  0.33293630023E+00  0.12076925364E+01  0.93800000000E+00 0. -1.
         22    1    1    2    0    0 -0.19270936503E+00 -0.39942000038E+00  0.23816320008E+01  0.24225697561E+01  0.00000000000E+00 0.  1.
</event>
<event>
 5    1  0.3005426E+001  0.1599551E+01  0.7818608E-02  0.3353851E+00
         11   -1    0    0    0    0  0.00000000000E+00  0.00000000000E+00  0.39999999674E+01  0.40000000000E+01  0.51100000000E-03 0. -1.
    9000002   -1    0    0    0    0 -0.00000000000E+00 -0.00000000000E+00  0.00000000000E+00  0.93800000000E+00  0.93800000000E+00 0. -1.
         11    1    1    2    0    0  0.15897510980E+00 -0.35448034944E-01  0.13223277028E+01  0.13323214565E+01  0.51100000000E-03 0. -1.
    9000002    1    1    2    0    0 -0.48541089163E+00  0.13010449304E+00  0.17307313149E+00  0.10781230086E+01  0.93800000000E+00 0. -1.
         22    1    1    2    0    0  0.32643578182E+00 -0.94656458094E-01  0.25045991331E+01  0.25275555349E+01  0.00000000000E+00 0. -1.
</event>
<event>
 5    1  0.3005426E+001  0.1599660E+01  0.7818608E-02  0.3353733E+00
         11   -1    0    0    0    0  0.00000000000E+00  0.00000000000E+00  0.39999999674E+01  0.40000000000E+01  0.51100000000E-03 0.  1.
    9000002   -1    0    0    0    0 -0.00000000000E+00 -0.00000000000E+00  0.00000000000E+00  0.93800000000E+00  0.93800000000E+00 0.  1.
         11    1    1    2    0    0 -0.85124149510E-01  0.10163261530E+00  0.14073557209E+01  0.14135861118E+01  0.51100000000E-03 0.  1.
    9000002    1    1    2    0    0  0.24539538521E+00 -0.27244191508E+00  0.90330059423E-01  0.10111612195E+01  0.93800000000E+00 0.  1.
         22    1    1    2    0    0 -0.16027123570E+00  0.17080929978E+00  0.25023141871E+01  0.25132526687E+01  0.00000000000E+00 0. -1.
</event>
<event>
 5    1  0.3005426E+001  0.1599616E+01  0.7818608E-02  0.3353780E+00
         11   -1    0    0    0    0  0.00000000000E+00  0.00000000000E+00  0.39999999674E+01  0.40000000000E+01  0.51100000000E-03 0.  1.
    9000002   -1    0    0    0    0 -0.00000000000E+00 -0.00000000000E+00  0.00000000000E+00  0.93800000000E+00  0.93800000000E+00 0. -1.
         11    1    1    2    0    0  0.55340530060E-01  0.72954403572E-02  0.46935448310E+00  0.47266234210E+00  0.51100000000E-03 0.  1.
    9000002    1    1    2    0    0 -0.45130429711E+00 -0.11017798088E+00  0.14695253431E+00  0.10570022722E+01  0.93800000000E+00 0. -1.
         22    1    1    2    0    0  0.39596376705E+00  0.10288254052E+00  0.33836929500E+01  0.34083353857E+01  0.00000000000E+00 0.  1.
</event>
<event>
 5    1  0.3005426E+001  0.1599552E+01  0.7818608E-02  0.3353849E+00
         11   -1    0    0    0    0  0.00000000000E+00  0.00000000000E+00  0.39999999674E+01  0.40000000000E+01  0.51100000000E-03 0. -1.
    9000002   -1    0    0    0    0 -0.00000000000E+00 -0.00000000000E+00  0.00000000000E+00  0.93800000000E+00  0.93800000000E+00 0. -1.
         11    1    1    2    0    0 -0.13414324842E-01  0.13924781560E+00  0.12075113082E+01  0.12155878079E+01  0.51100000000E-03 0. -1.
    9000002    1    1    2    0    0  0.31013499199E-02 -0.44498456244E+00  0.13450126587E+00  0.10468789184E+01  0.93800000000E+00 0. -1.
         22    1    1    2    0    0  0.10312974922E-01  0.30573674684E+00  0.26579873933E+01  0.26755332737E+01  0.00000000000E+00 0. -1.
</event>
<event>
 5    1  0.3005426E+001  0.1599664E+01  0.7818608E-02  0.3353728E+00
         11   -1    0    0    0    0  0.00000000000E+00  0.00000000000E+00  0.39999999674E+01  0.40000000000E+01  0.51100000000E-03 0. -1.
    9000002   -1    0    0    0    0 -0.00000000000E+00 -0.00000000000E+00  0.00000000000E+00  0.93800000000E+00  0.93800000000E+00 0.  1.
         11    1    1    2    0    0  0.86238694773E-01  0.85437092602E-01  0.96874433499E+00  0.97632087807E+00  0.51100000000E-03 0. -1.
    9000002    1    1    2    0    0 -0.34571479804E+00 -0.35220257010E+00  0.16656580797E+00  0.10729182356E+01  0.93800000000E+00 0.  1.
         22    1    1    2    0    0  0.25947610326E+00  0.26676547749E+00  0.28646898244E+01  0.28887608863E+01  0.00000000000E+00 0. -1.
</event>
<event>
 5    1  0.3005426E+001  0.1599673E+01  0.7818608E-02  0.3353719E+00
         11   -1    0    0    0    0  0.00000000000E+00  0.00000000000E+00  0.39999999674E+01  0.40000000000E+01  0.51100000000E-03 0.  1.
    9000002   -1    0    0    0    0 -0.00000000000E+00 -0.00000000000E+00  0.00000000000E+00  0.93800000000E+00  0.93800000000E+00 0.  1.
         11    1    1    2    0    0  0.18229648464E-01 -0.95168128783E-01  0.10472056896E+01  0.10516792811E+01  0.51100000000E-03 0.  1.
    9000002    1    1    2    0    0 -0.74432312399E-01  0.35066062429E+00  0.86247613612E-01  0.10078619416E+01  0.93800000000E+00 0.  1.
         22    1    1    2    0    0  0.56202663935E-01 -0.25549249551E+00  0.28665466641E+01  0.28784587773E+01  0.00000000000E+00 0.  1.
</event>
<event>
 5    1  0.3005426E+001  0.1579980E+01  0.7818608E-02  0.3375384E+00
         11   -1    0    0    0    0  0.00000000000E+00  0.00000000000E+00  0.39999999674E+01  0.40000000000E+01  0.51100000000E-03 0.  1.
    9000002   -1    0    0    0    0 -0.00000000000E+00 -0.00000000000E+00  0.00000000000E+00  0.93800000000E+00  0.93800000000E+00 0. -1.
         11    1    1    2    0    0 -0.53788395284E-01 -0.31254638140E-01  0.19658197883E+00  0.20619112347E+00  0.51100000000E-03 0.  1.
    9000002    1    1    2    0    0 -0.67129191094E-01 -0.32051606097E+00  0.87550144052E-01  0.99736949089E+00  0.93800000000E+00 0. -1.
         22    1    1    2    0    0  0.12091758638E+00  0.35177069911E+00  0.37158678445E+01  0.37344393856E+01  0.00000000000E+00 0.  1.
</event>
<event>
 5    1  0.3005426E+001  0.1547178E+01  0.7818608E-02  0.3412769E+00
         11   -1    0    0    0    0  0.00000000000E+00  0.00000000000E+00  0.39999999674E+01  0.40000000000E+01  0.51100000000E-03 0.  1.
    9000002   -1    0    0    0    0 -0.00000000000E+00 -0.00000000000E+00  0.00000000000E+00  0.93800000000E+00  0.93800000000E+00 0. -1.
         11    1    1    2    0    0 -0.74122419817E-01 -0.38984646626E-01  0.68416920894E-01  0.10814375607E+00  0.51100000000E-03 0.  1.
    9000002    1    1    2    0    0  0.30432136157E+00 -0.43734894774E+00  0.24594762906E+00  0.11064446798E+01  0.93800000000E+00 0. -1.
         22    1    1    2    0    0 -0.23019894175E+00  0.47633359437E+00  0.36856354174E+01  0.37234115641E+01  0.00000000000E+00 0.  1.
</event>
<event>
 5    1  0.3005426E+001  0.1599673E+01  0.7818608E-02  0.3353719E+00
         11   -1    0    0    0    0  0.00000000000E+00  0.00000000000E+00  0.39999999674E+01  0.40000000000E+01  0.51100000000E-03 0.  1.
    9000002   -1    0    0    0    0 -0.00000000000E+00 -0.00000000000E+00  0.00000000000E+00  0.93800000000E+00  0.93800000000E+00 0. -1.
         11    1    1    2    0    0 -0.95834195880E-01  0.51989003431E-01  0.88358716582E+00  0.89028848712E+00  0.51100000000E-03 0.  1.
    9000002    1    1    2    0    0  0.42534672388E+00 -0.22318942308E+00  0.15744615813E+00  0.10655358496E+01  0.93800000000E+00 0. -1.
         22    1    1    2    0    0 -0.32951252800E+00  0.17120041964E+00  0.29589666434E+01  0.29821756633E+01  0.00000000000E+00 0.  1.
</event>
<event>
 5    1  0.3005426E+001  0.1599588E+01  0.7818608E-02  0.3353811E+00
         11   -1    0    0    0    0  0.00000000000E+00  0.00000000000E+00  0.39999999674E+01  0.40000000000E+01  0.51100000000E-03 0.  1.
    9000002   -1    0    0    0    0 -0.00000000000E+00 -0.00000000000E+00  0.00000000000E+00  0.93800000000E+00  0.93800000000E+00 0. -1.
         11    1    1    2    0    0  0.68661582464E-01 -0.43318563671E-01  0.71459133901E+00  0.71918839936E+00  0.51100000000E-03 0.  1.
    9000002    1    1    2    0    0 -0.35408207293E+00  0.27875533673E+00  0.13801823403E+00  0.10497483913E+01  0.93800000000E+00 0. -1.
         22    1    1    2    0    0  0.28542049047E+00 -0.23543677306E+00  0.31473903943E+01  0.31690632093E+01  0.00000000000E+00 0.  1.
</event>
<event>
 5    1  0.3005426E+001  0.1598632E+01  0.7818608E-02  0.3354849E+00
         11   -1    0    0    0    0  0.00000000000E+00  0.00000000000E+00  0.39999999674E+01  0.40000000000E+01  0.51100000000E-03 0.  1.
    9000002   -1    0    0    0    0 -0.00000000000E+00 -0.00000000000E+00  0.00000000000E+00  0.93800000000E+00  0.93800000000E+00 0. -1.
         11    1    1    2    0    0 -0.10460032369E+00  0.37771248467E-01  0.11373674107E+01  0.11427916622E+01  0.51100000000E-03 0.  1.
    9000002    1    1    2    0    0  0.42802530913E+00 -0.22205862293E+00  0.15963251836E+00  0.10666968821E+01  0.93800000000E+00 0. -1.
         22    1    1    2    0    0 -0.32342498544E+00  0.18428737446E+00  0.27030000383E+01  0.27285114558E+01  0.00000000000E+00 0.  1.
</event>
<event>
 5    1  0.3005426E+001  0.1592811E+01  0.7818608E-02  0.3361203E+00
         11   -1    0    0    0    0  0.00000000000E+00  0.00000000000E+00  0.39999999674E+01  0.40000000000E+01  0.51100000000E-03 0. -1.
    9000002   -1    0    0    0    0 -0.00000000000E+00 -0.00000000000E+00  0.00000000000E+00  0.93800000000E+00  0.93800000000E+00 0. -1.
         11    1    1    2    0    0 -0.12852129873E+00  0.36926566453E+00  0.12738396309E+01  0.13324948486E+01  0.51100000000E-03 0. -1.
    9000002    1    1    2    0    0  0.24695683646E+00 -0.76772295237E+00  0.48918913768E+00  0.13302391601E+01  0.93800000000E+00 0. -1.
         22    1    1    2    0    0 -0.11843553773E+00  0.39845728784E+00  0.22369711988E+01  0.22752659913E+01  0.00000000000E+00 0. -1.
</event>
<event>
 5    1  0.3005426E+001  0.1599450E+01  0.7818608E-02  0.3353961E+00
         11   -1    0    0    0    0  0.00000000000E+00  0.00000000000E+00  0.39999999674E+01  0.40000000000E+01  0.51100000000E-03 0. -1.
    9000002   -1    0    0    0    0 -0.00000000000E+00 -0.00000000000E+00  0.00000000000E+00  0.93800000000E+00  0.93800000000E+00 0.  1.
         11    1    1    2    0    0 -0.10104877861E+00 -0.33616144036E-01  0.10267901239E+01  0.10322979805E+01  0.51100000000E-03 0. -1.
    9000002    1    1    2    0    0  0.38676333772E+00  0.66980890824E-01  0.10401444442E+00  0.10221229494E+01  0.93800000000E+00 0.  1.
         22    1    1    2    0    0 -0.28571455911E+00 -0.33364746789E-01  0.28691953990E+01  0.28835790700E+01  0.00000000000E+00 0. -1.
</event>
<event>
 5    1  0.3005426E+001  0.1594313E+01  0.7818608E-02  0.3359559E+00
         11   -1    0    0    0    0  0.00000000000E+00  0.00000000000E+00  0.39999999674E+01  0.40000000000E+01  0.51100000000E-03 0. -1.
    9000002   -1    0    0    0    0 -0.00000000000E+00 -0.00000000000E+00  0.00000000000E+00  0.93800000000E+00  0.93800000000E+00 0. -1.
         11    1    1    2    0    0  0.86494278286E-02 -0.11288505719E-01  0.35914149041E-01  0.38630689684E-01  0.51100000000E-03 0. -1.
    9000002    1    1    2    0    0  0.41090416644E+00 -0.38823832723E-01  0.11961319707E+00  0.10317465003E+01  0.93800000000E+00 0. -1.
         22    1    1    2    0    0 -0.41955359427E+00  0.50112338442E-01  0.38444726213E+01  0.38676228100E+01  0.00000000000E+00 0. -1.
</event>
<event>
 5    1  0.3005426E+001  0.1599623E+01  0.7818608E-02  0.3353773E+00
         11   -1    0    0    0    0  0.00000000000E+00  0.00000000000E+00  0.39999999674E+01  0.40000000000E+01  0.51100000000E-03 0. -1.
    9000002   -1    0    0    0    0 -0.00000000000E+00 -0.00000000000E+00  0.00000000000E+00  0.93800000000E+00  0.93800000000E+00 0. -1.
         11    1    1    2    0    0  0.30608485157E-01  0.96393641866E-01  0.81781416564E+00  0.82404422467E+00  0.51100000000E-03 0. -1.
    9000002    1    1    2    0    0 -0.13433768497E+00 -0.42293614704E+00  0.13367049515E+00  0.10462472936E+01  0.93800000000E+00 0. -1.
         22    1    1    2    0    0  0.10372919982E+00  0.32654250518E+00  0.30485153066E+01  0.30677084817E+01  0.00000000000E+00 0. -1.
</event>
<event>
 5    1  0.3005426E+001  0.1599675E+01  0.7818608E-02  0.3353716E+00
         11   -1    0    0    0    0  0.00000000000E+00  0.00000000000E+00  0.39999999674E+01  0.40000000000E+01  0.51100000000E-03 0.  1.
    9000002   -1    0    0    0    0 -0.00000000000E+00 -0.00000000000E+00  0.00000000000E+00  0.93800000000E+00  0.93800000000E+00 0.  1.
         11    1    1    2    0    0 -0.23280596267E-01  0.12974660106E+00  0.12501302527E+01  0.12570608881E+01  0.51100000000E-03 0.  1.
    9000002    1    1    2    0    0  0.75077744642E-01 -0.39928632366E+00  0.11143288299E+00  0.10282643257E+01  0.93800000000E+00 0.  1.
         22    1    1    2    0    0 -0.51797148375E-01  0.26953972260E+00  0.26384368317E+01  0.26526747862E+01  0.00000000000E+00 0.  1.
</event>
<event>
 5    1  0.3005426E+001  0.1599677E+01  0.7818608E-02  0.3353714E+00
         11   -1    0    0    0    0  0.00000000000E+00  0.00000000000E+00  0.39999999674E+01  0.40000000000E+01  0.51100000000E-03 0.  1.
    9000002   -1    0    0    0    0 -0.00000000000E+00 -0.00000000000E+00  0.00000000000E+00  0.93800000000E+00  0.93800000000E+00 0.  1.
         11    1    1    2    0    0  0.13003679110E-01 -0.13800743711E+00  0.14318651267E+01  0.14385594012E+01  0.51100000000E-03 0.  1.
    9000002    1    1    2    0    0 -0.35074219091E-01  0.37688530379E+00  0.96382406268E-01  0.10160739645E+01  0.93800000000E+00 0.  1.
         22    1    1    2    0    0  0.22070539981E-01 -0.23887786668E+00  0.24717524344E+01  0.24833666344E+01  0.00000000000E+00 0.  1.
</event>
<event>
 5    1  0.3005426E+001  0.1599673E+01  0.7818608E-02  0.3353718E+00
         11   -1    0    0    0    0  0.00000000000E+00  0.00000000000E+00  0.39999999674E+01  0.40000000000E+01  0.51100000000E-03 0. -1.
    9000002   -1    0    0    0    0 -0.00000000000E+00 -0.00000000000E+00  0.00000000000E+00  0.93800000000E+00  0.93800000000E+00 0. -1.
         11    1    1    2    0    0  0.89281052374E-02  0.34563151416E-01  0.39487240985E+00  0.39648304337E+00  0.51100000000E-03 0. -1.
    9000002    1    1    2    0    0 -0.90100286086E-01 -0.35518701827E+00  0.90203980263E-01  0.10110670787E+01  0.93800000000E+00 0. -1.
         22    1    1    2    0    0  0.81172180849E-01  0.32062386686E+00  0.35149235772E+01  0.35304498780E+01  0.00000000000E+00 0. -1.
</event>
<event>
 5    1  0.3005426E+001  0.1599632E+01  0.7818608E-02  0.3353762E+00
         11   -1    0    0    0    0  0.00000000000E+00  0.00000000000E+00  0.39999999674E+01  0.40000000000E+01  0.51100000000E-03 0.  1.
    9000002   -1    0    0    0    0 -0.00000000000E+00 -0.00000000000E+00  0.00000000000E+00  0.93800000000E+00  0.93800000000E+00 0.  1.
         11    1    1    2    0    0 -0.49750699440E-01  0.45682485052E-01  0.47220620322E+00  0.47701255855E+00  0.51100000000E-03 0.  1.
    9000002    1    1    2    0    0  0.37201044022E+00 -0.34025440569E+00  0.17415221704E+00  0.10790448660E+01  0.93800000000E+00 0.  1.
         22    1    1    2    0    0 -0.32225974078E+00  0.29457192064E+00  0.33536415471E+01  0.33819425754E+01  0.00000000000E+00 0.  1.
</event>
<event>
 5    1  0.3005426E+001  0.1599668E+01  0.7818608E-02  0.3353724E+00
         11   -1    0    0    0    0  0.00000000000E+00  0.00000000000E+00  0.39999999674E+01  0.40000000000E+01  0.51100000000E-03 0.  1.
    9000002   -1    0    0    0    0 -0.00000000000E+00 -0.00000000000E+00  0.00000000000E+00  0.93800000000E+00  0.93800000000E+00 0.  1.
         11    1    1    2    0    0 -0.60051394837E-01  0.75738562507E-01  0.10197163121E+01  0.10242871268E+01  0.51100000000E-03 0.  1.
    9000002    1    1    2    0    0  0.23890020784E+00 -0.28155913609E+00  0.91631306842E-01  0.10122199133E+01  0.93800000000E+00 0.  1.
         22    1    1    2    0    0 -0.17884881301E+00  0.20582057359E+00  0.28886523485E+01  0.29014929600E+01  0.00000000000E+00 0.  1.
</event>
<event>
 5    1  0.3005426E+001  0.1594973E+01  0.7818608E-02  0.3358837E+00
         11   -1    0    0    0    0  0.00000000000E+00  0.00000000000E+00  0.39999999674E+01  0.40000000000E+01  0.51100000000E-03 0.  1.
    9000002   -1    0    0    0    0 -0.00000000000E+00 -0.00000000000E+00  0.00000000000E+00  0.93800000000E+00  0.93800000000E+00 0.  1.
         11    1    1    2    0    0  0.42751442882E-02 -0.30578177515E-01  0.11463306543E+01  0.11467464986E+01  0.51100000000E-03 0.  1.
    9000002    1    1    2    0    0  0.23490298866E+00  0.17029488315E+00  0.59778643954E-01  0.98366521113E+00  0.93800000000E+00 0.  1.
         22    1    1    2    0    0 -0.23917813294E+00 -0.13971670564E+00  0.27938906691E+01  0.28075882903E+01  0.00000000000E+00 0.  1.
</event>
<event>
 5    1  0.3005426E+001  0.1463168E+01  0.7818608E-02  0.3516727E+00
         11   -1    0    0    0    0  0.00000000000E+00  0.00000000000E+00  0.39999999674E+01  0.40000000000E+01  0.51100000000E-03 0. -1.
    9000002   -1    0    0    0    0 -0.00000000000E+00 -0.00000000000E+00  0.00000000000E+00  0.93800000000E+00  0.93800000000E+00 0. -1.
         11    1    1    2    0    0  0.48442347831E+00  0.80636720640E-01  0.12116887982E+01  0.13074243350E+01  0.51100000000E-03 0. -1.
    9000002    1    1    2    0    0 -0.28761128909E+00  0.20052432744E+00  0.20195472240E+00  0.10215478302E+01  0.93800000000E+00 0. -1.
         22    1    1    2    0    0 -0.19681218922E+00 -0.28116104808E+00  0.25863564468E+01  0.26090278348E+01  0.00000000000E+00 0. -1.
</event>
<event>
 5    1  0.3055959E+001  0.1599644E+01  0.7818608E-02  0.3353750E+00
         11   -1    0    0    0    0  0.00000000000E+00  0.00000000000E+00  0.39999999674E+01  0.40000000000E+01  0.51100000000E-03 0.  1.
    9000002   -1    0    0    0    0 -0.00000000000E+00 -0.00000000000E+00  0.00000000000E+00  0.93800000000E+00  0.93800000000E+00 0.  1.
         11    1    1    2    0    0 -0.79174552182E-01 -0.93803365943E-01  0.14206061458E+01  0.14258996332E+01  0.51100000000E-03 0.  1.
    9000002    1    1    2    0    0  0.22754443010E+00  0.27426646680E+00  0.85240833545E-01  0.10070295736E+01  0.93800000000E+00 0.  1.
         22    1    1    2    0    0 -0.14836987792E+00 -0.18046310085E+00  0.24941529880E+01  0.25050707932E+01  0.00000000000E+00 0.  1.
</event>
<event>
 5    1  0.3005426E+001  0.1594914E+01  0.7818608E-02  0.3358902E+00
         11   -1    0    0    0    0  0.00000000000E+00  0.00000000000E+00  0.39999999674E+01  0.40000000000E+01  0.51100000000E-03 0. -1.
    9000002   -1    0    0    0    0 -0.00000000000E+00 -0.00000000000E+00  0.00000000000E+00  0.93800000000E+00  0.93800000000E+00 0.  1.
         11    1    1    2    0    0 -0.17488825574E+00  0.10450746469E+00  0.10189393992E+01  0.10391080177E+01  0.51100000000E-03 0. -1.
    9000002    1    1    2    0    0  0.41925376656E+00 -0.24853710329E+00  0.16652891370E+00  0.10701029350E+01  0.93800000000E+00 0.  1.
         22    1    1    2    0    0 -0.24436551082E+00  0.14402963860E+00  0.28145316545E+01  0.28287890473E+01  0.00000000000E+00 0. -1.
</event>
<event>
 5    1  0.3005426E+001  0.1457500E+01  0.7818608E-02  0.3524207E+00
         11   -1    0    0    0    0  0.00000000000E+00  0.00000000000E+00  0.39999999674E+01  0.40000000000E+01  0.51100000000E-03 0. -1.
    9000002   -1    0    0    0    0 -0.00000000000E+00 -0.00000000000E+00  0.00000000000E+00  0.93800000000E+00  0.93800000000E+00 0. -1.
         11    1    1    2    0    0  0.72680771608E-01  0.66037519754E-01 -0.25998405682E-01  0.10158556391E+00  0.51100000000E-03 0. -1.
    9000002    1    1    2    0    0  0.33070621945E+00 -0.47441805930E+00  0.41095399357E+00  0.11760809000E+01  0.93800000000E+00 0. -1.
         22    1    1    2    0    0 -0.40338699106E+00  0.40838053954E+00  0.36150443795E+01  0.36603335361E+01  0.00000000000E+00 0. -1.
</event>
<event>
 5    1  0.3005426E+001  0.1599677E+01  0.7818608E-02  0.3353714E+00
         11   -1    0    0    0    0  0.00000000000E+00  0.00000000000E+00  0.39999999674E+01  0.40000000000E+01  0.51100000000E-03 0.  1.
    9000002   -1    0    0    0    0 -0.00000000000E+00 -0.00000000000E+00  0.00000000000E+00  0.93800000000E+00  0.93800000000E+00 0. -1.
         11    1    1    2    0    0  0.15497267766E+00 -0.69302937109E-01  0.13262134199E+01  0.13370346758E+01  0.51100000000E-03 0.  1.
    9000002    1    1    2    0    0 -0.44868045392E+00  0.20071374864E+00  0.16515634261E+00  0.10717839223E+01  0.93800000000E+00 0. -1.
         22    1    1    2    0    0  0.29370777627E+00 -0.13141081153E+00  0.25086302048E+01  0.25291814019E+01  0.00000000000E+00 0.  1.
</event>
<event>
 5    1  0.3005426E+001  0.1597372E+01  0.7818608E-02  0.3356221E+00
         11   -1    0    0    0    0  0.00000000000E+00  0.00000000000E+00  0.39999999674E+01  0.40000000000E+01  0.51100000000E-03 0.  1.
    9000002   -1    0    0    0    0 -0.00000000000E+00 -0.00000000000E+00  0.00000000000E+00  0.93800000000E+00  0.93800000000E+00 0. -1.
         11    1    1    2    0    0  0.61065977935E-02 -0.21333130593E+00  0.12329001462E+01  0.12512356166E+01  0.51100000000E-03 0.  1.
    9000002    1    1    2    0    0  0.12547778806E+00  0.56902086838E+00  0.23828490968E+00  0.11296694747E+01  0.93800000000E+00 0. -1.
         22    1    1    2    0    0 -0.13158438585E+00 -0.35568956245E+00  0.25288149114E+01  0.25570949086E+01  0.00000000000E+00 0.  1.
</event>
<event>
 5    1  0.3005426E+001  0.1599675E+01  0.7818608E-02  0.3353717E+00
         11   -1    0    0    0    0  0.00000000000E+00  0.00000000000E+00  0.39999999674E+01  0.40000000000E+01  0.51100000000E-03 0. -1.
    9000002   -1    0    0    0    0 -0.00000000000E+00 -0.00000000000E+00  0.00000000000E+00  0.93800000000E+00  0.93800000000E+00 0.  1.
         11    1    1    2    0    0 -0.11583357960E+00 -0.74078429469E-01  0.14257338396E+01  0.14323485171E+01  0.51100000000E-03 0. -1.
    9000002    1    1    2    0    0  0.32141858178E+00  0.20488328436E+00  0.97770714432E-01  0.10171972166E+01  0.93800000000E+00 0.  1.
         22    1    1    2    0    0 -0.20558500218E+00 -0.13080485489E+00  0.24764954133E+01  0.24884542662E+01  0.00000000000E+00 0. -1.
</event>
<event>
 5    1  0.3005426E+001  0.1599208E+01  0.7818608E-02  0.3354224E+00
         11   -1    0    0    0    0  0.00000000000E+00  0.00000000000E+00  0.39999999674E+01  0.40000000000E+01  0.51100000000E-03 0. -1.
    9000002   -1    0    0    0    0 -0.00000000000E+00 -0.00000000000E+00  0.00000000000E+00  0.93800000000E+00  0.93800000000E+00 0.  1.
         11    1    1    2    0    0 -0.19126732824E+00  0.17876494742E+00  0.14518776445E+01  0.14752928702E+01  0.51100000000E-03 0. -1.
    9000002    1    1    2    0    0  0.46076181596E+00 -0.40209352393E+00  0.26205141653E+00  0.11499980861E+01  0.93800000000E+00 0.  1.
         22    1    1    2    0    0 -0.26949448772E+00  0.22332857651E+00  0.22860709064E+01  0.23127090437E+01  0.00000000000E+00 0. -1.
</event>
<event>
 5    1  0.3005426E+001  0.1599602E+01  0.7818608E-02  0.3353795E+00
         11   -1    0    0    0    0  0.00000000000E+00  0.00000000000E+00  0.39999999674E+01  0.40000000000E+01  0.51100000000E-03 0. -1.
    9000002   -1    0    0    0    0 -0.00000000000E+00 -0.00000000000E+00  0.00000000000E+00  0.93800000000E+00  0.93800000000E+00 0. -1.
         11    1    1    2    0    0  0.13390906414E+00 -0.86096446017E-01  0.12569227387E+01  0.12669645881E+01  0.51100000000E-03 0. -1.
    9000002    1    1    2    0    0 -0.43600702660E+00  0.26894418224E+00  0.18009486971E+00  0.10838409766E+01  0.93800000000E+00 0. -1.
         22    1    1    2    0    0  0.30209796246E+00 -0.18284773622E+00  0.25629823590E+01  0.25871944353E+01  0.00000000000E+00 0. -1.
</event>
<event>
 5    1  0.3005426E+001  0.1599676E+01  0.7818608E-02  0.3353715E+00
         11   -1    0    0    0    0  0.00000000000E+00  0.00000000000E+00  0.39999999674E+01  0.40000000000E+01  0.51100000000E-03 0.  1.
    9000002   -1    0    0    0    0 -0.00000000000E+00 -0.00000000000E+00  0.00000000000E+00  0.93800000000E+00  0.93800000000E+00 0. -1.
         11    1    1    2    0    0  0.25693124375E-01 -0.13209681164E+00  0.90916043910E+00  0.91906619426E+00  0.51100000000E-03 0.  1.
    9000002    1    1    2    0    0 -0.10371146524E+00  0.55013407353E+00  0.21687767199E+00  0.11136801567E+01  0.93800000000E+00 0. -1.
         22    1    1    2    0    0  0.78018340863E-01 -0.41803726188E+00  0.28739618563E+01  0.29052536490E+01  0.00000000000E+00 0.  1.
</event>
<event>
 5    1  0.3005426E+001  0.1598375E+01  0.7818608E-02  0.3355129E+00
         11   -1    0    0    0    0  0.00000000000E+00  0.00000000000E+00  0.39999999674E+01  0.40000000000E+01  0.51100000000E-03 0. -1.
    9000002   -1    0    0    0    0 -0.00000000000E+00 -0.00000000000E+00  0.00000000000E+00  0.93800000000E+00  0.93800000000E+00 0.  1.
         11    1    1    2    0    0  0.20171867893E+00 -0.10821426721E+00  0.12628571385E+01  0.12834364677E+01  0.51100000000E-03 0. -1.
    9000002    1    1    2    0    0 -0.47823459268E+00  0.32801671533E+00  0.23492480228E+00  0.11275357883E+01  0.93800000000E+00 0.  1.
         22    1    1    2    0    0  0.27651591375E+00 -0.21980244813E+00  0.25022180265E+01  0.25270277440E+01  0.00000000000E+00 0. -1.
</event>
<event>
 5    1  0.3005426E+001  0.1575967E+01  0.7818608E-02  0.3379868E+00
         11   -1    0    0    0    0  0.00000000000E+00  0.00000000000E+00  0.39999999674E+01  0.40000000000E+01  0.51100000000E-03 0.  1.
    9000002   -1    0    0    0    0 -0.00000000000E+00 -0.00000000000E+00  0.00000000000E+00  0.93800000000E+00  0.93800000000E+00 0.  1.
         11    1    1    2    0    0 -0.18643463949E-01  0.15564318073E+00  0.11591602550E+01  0.11697115612E+01  0.51100000000E-03 0.  1.
    9000002    1    1    2    0    0 -0.20905768532E+00 -0.24041242660E-01  0.47386652467E-01  0.96248251515E+00  0.93800000000E+00 0. -1.
         22    1    1    2    0    0  0.22770114927E+00 -0.13160193807E+00  0.27934530599E+01  0.28058059237E+01  0.00000000000E+00 0.  1.
</event>
<event>
 5    1  0.3005426E+001  0.1599656E+01  0.7818608E-02  0.3353737E+00
         11   -1    0    0    0    0  0.00000000000E+00  0.00000000000E+00  0.39999999674E+01  0.40000000000E+01  0.51100000000E-03 0. -1.
    9000002   -1    0    0    0    0 -0.00000000000E+00 -0.00000000000E+00  0.00000000000E+00  0.93800000000E+00  0.93800000000E+00 0.  1.
         11    1    1    2    0    0 -0.18672498860E+00  0.33635803414E-01  0.12316481719E+01  0.12461761790E+01  0.51100000000E-03 0. -1.
    9000002    1    1    2    0    0  0.55725307581E+00 -0.10737589527E+00  0.22322369819E+00  0.11188089170E+01  0.93800000000E+00 0.  1.
         22    1    1    2    0    0 -0.37052808721E+00  0.73740091857E-01  0.25451280972E+01  0.25730149039E+01  0.00000000000E+00 0. -1.
</event>
<event>
 5    1  0.3005426E+001  0.1599266E+01  0.7818608E-02  0.3354161E+00
         11   -1    0    0    0    0  0.00000000000E+00  0.00000000000E+00  0.39999999674E+01  0.40000000000E+01  0.51100000000E-03 0.  1.
    9000002   -1    0    0    0    0 -0.00000000000E+00 -0.00000000000E+00  0.00000000000E+00  0.93800000000E+00  0.93800000000E+00 0. -1.
         11    1    1    2    0    0  0.71310453384E-02 -0.11702269035E+00  0.78267624309E+00  0.79140856988E+00  0.51100000000E-03 0.  1.
    9000002    1    1    2    0    0  0.45901220520E-01  0.61045651396E+00  0.26257810626E+00  0.11504587517E+01  0.93800000000E+00 0. -1.
         22    1    1    2    0    0 -0.53032265858E-01 -0.49343382362E+00  0.29547456180E+01  0.29961326784E+01  0.00000000000E+00 0.  1.
</event>
<event>
 5    1  0.3005426E+001  0.1599274E+01  0.7818608E-02  0.3354152E+00
         11   -1    0    0    0    0  0.00000000000E+00  0.00000000000E+00  0.39999999674E+01  0.40000000000E+01  0.51100000000E-03 0. -1.
    9000002   -1    0    0    0    0 -0.00000000000E+00 -0.00000000000E+00  0.00000000000E+00  0.93800000000E+00  0.93800000000E+00 0. -1.
         11    1    1    2    0    0  0.96859502489E-01 -0.10736397222E+00  0.75185082785E+00  0.76562961947E+00  0.51100000000E-03 0. -1.
    9000002    1    1    2    0    0 -0.39206953236E+00  0.48939306221E+00  0.27640884270E+00  0.11616668782E+01  0.93800000000E+00 0. -1.
         22    1    1    2    0    0  0.29521002987E+00 -0.38202909000E+00  0.29717402968E+01  0.30107035023E+01  0.00000000000E+00 0. -1.
</event>
<event>
 5    1  0.3005426E+001  0.1599674E+01  0.7818608E-02  0.3353718E+00
         11   -1    0    0    0    0  0.00000000000E+00  0.00000000000E+00  0.39999999674E+01  0.40000000000E+01  0.51100000000E-03 0.  1.
    9000002   -1    0    0    0    0 -0.00000000000E+00 -0.00000000000E+00  0.00000000000E+00  0.93800000000E+00  0.93800000000E+00 0.  1.
         11    1    1    2    0    0 -0.38602105068E-01 -0.77784768871E-01  0.48224326342E+00  0.48999940716E+00  0.51100000000E-03 0. -1.
    9000002    1    1    2    0    0  0.30094873911E+00  0.58583285342E+00  0.30673257798E+00  0.11864649806E+01  0.93800000000E+00 0.  1.
         22    1    1    2    0    0 -0.26234663405E+00 -0.50804808455E+00  0.32110241260E+01  0.32615356123E+01  0.00000000000E+00 0.  1.
</event>
<event>
 5    1  0.3005426E+001  0.1599669E+01  0.7818608E-02  0.3353722E+00
         11   -1    0    0    0    0  0.00000000000E+00  0.00000000000E+00  0.39999999674E+01  0.40000000000E+01  0.51100000000E-03 0. -1.
    9000002   -1    0    0    0    0 -0.00000000000E+00 -0.00000000000E+00  0.00000000000E+00  0.93800000000E+00  0.93800000000E+00 0.  1.
         11    1    1    2    0    0  0.62508942027E-01  0.14578521815E-01  0.64070959033E+00  0.64391687459E+00  0.51100000000E-03 0. -1.
    9000002    1    1    2    0    0 -0.37772771486E+00 -0.10335879637E+00  0.10334165719E+00  0.10217067904E+01  0.93800000000E+00 0.  1.
         22    1    1    2    0    0  0.31521877283E+00  0.88780274556E-01  0.32559487198E+01  0.32723763350E+01  0.00000000000E+00 0. -1.
</event>
<event>
 5    1  0.4976222E+001  0.1553194E+01  0.7818608E-02  0.3405786E+00
         11   -1    0    0    0    0  0.00000000000E+00  0.00000000000E+00  0.39999999674E+01  0.40000000000E+01  0.51100000000E-03 0. -1.
    9000002   -1    0    0    0    0 -0.00000000000E+00 -0.00000000000E+00  0.00000000000E+00  0.93800000000E+00  0.93800000000E+00 0. -1.
         11    1    1    2    0    0 -0.16782082119E+00  0.20761046800E+00  0.14287910841E+01  0.14535164800E+01  0.51100000000E-03 0. -1.
    9000002    1    1    2    0    0 -0.51862122074E-01 -0.11603458391E+00  0.45583458216E-01  0.94766848424E+00  0.93800000000E+00 0. -1.
         22    1    1    2    0    0  0.21968294327E+00 -0.91575884092E-01  0.25256254250E+01  0.25368150358E+01  0.00000000000E+00 0. -1.
</event>
<event>
 5    1  0.3005426E+001  0.1598870E+01  0.7818608E-02  0.3354590E+00
         11   -1    0    0    0    0  0.00000000000E+00  0.00000000000E+00  0.39999999674E+01  0.40000000000E+01  0.51100000000E-03 0.  1.
    9000002   -1    0    0    0    0 -0.00000000000E+00 -0.00000000000E+00  0.00000000000E+00  0.93800000000E+00  0.93800000000E+00 0. -1.
         11    1    1    2    0    0 -0.64549891840E-01  0.15477205900E+00  0.91802702038E+00  0.93321752559E+00  0.51100000000E-03 0.  1.
    9000002    1    1    2    0    0  0.33612538556E+00 -0.53354714181E+00  0.28015883614E+00  0.11644680334E+01  0.93800000000E+00 0. -1.
         22    1    1    2    0    0 -0.27157549372E+00  0.37877508281E+00  0.28018141108E+01  0.28403144410E+01  0.00000000000E+00 0.  1.
</event>
<event>
 5    1  0.3005426E+001  0.1599369E+01  0.7818608E-02  0.3354049E+00
         11   -1    0    0    0    0  0.00000000000E+00  0.00000000000E+00  0.39999999674E+01  0.40000000000E+01  0.51100000000E-03 0. -1.
    9000002   -1    0    0    0    0 -0.00000000000E+00 -0.00000000000E+00  0.00000000000E+00  0.93800000000E+00  0.93800000000E+00 0. -1.
         11    1    1    2    0    0 -0.15805162965E-01  0.21817319322E-01  0.44900920934E+00  0.44981699589E+00  0.51100000000E-03 0. -1.
    9000002    1    1    2    0    0  0.21513776551E+00 -0.27907968935E+00  0.83527583170E-01  0.10054802774E+01  0.93800000000E+00 0. -1.
         22    1    1    2    0    0 -0.19933260254E+00  0.25726237003E+00  0.34674631749E+01  0.34827027267E+01  0.00000000000E+00 0. -1.
</event>
<event>
 5    1  0.3005426E+001  0.1599203E+01  0.7818608E-02  0.3354228E+00
         11   -1    0    0    0    0  0.00000000000E+00  0.00000000000E+00  0.39999999674E+01  0.40000000000E+01  0.51100000000E-03 0.  1.
    9000002   -1    0    0    0    0 -0.00000000000E+00 -0.00000000000E+00  0.00000000000E+00  0.93800000000E+00  0.93800000000E+00 0.  1.
         11    1    1    2    0    0 -0.99490870445E-01 -0.76632487886E-01  0.83802793058E+00  0.84738541706E+00  0.51100000000E-03 0.  1.
    9000002    1    1    2    0    0  0.36435933707E+00  0.31188720529E+00  0.15736426044E+00  0.10651942855E+01  0.93800000000E+00 0.  1.
         22    1    1    2    0    0 -0.26486846663E+00 -0.23525471741E+00  0.30046077763E+01  0.30254202975E+01  0.00000000000E+00 0.  1.
</event>
<event>
 5    1  0.3005426E+001  0.1599627E+01  0.7818608E-02  0.3353768E+00
         11   -1    0    0    0    0  0.00000000000E+00  0.00000000000E+00  0.39999999674E+01  0.40000000000E+01  0.51100000000E-03 0. -1.
    9000002   -1    0    0    0    0 -0.00000000000E+00 -0.00000000000E+00  0.00000000000E+00  0.93800000000E+00  0.93800000000E+00 0. -1.
         11    1    1    2    0    0 -0.31461159306E-01  0.11783654223E-02  0.28751581967E+00  0.28923485401E+00  0.51100000000E-03 0. -1.
    9000002    1    1    2    0    0  0.41130880135E+00  0.42114086285E-01  0.11555311422E+00  0.10315740635E+01  0.93800000000E+00 0. -1.
         22    1    1    2    0    0 -0.37984764204E+00 -0.43292451708E-01  0.35969310335E+01  0.36171910825E+01  0.00000000000E+00 0. -1.
</event>
<event>
 5    1  0.3005426E+001  0.1599575E+01  0.7818608E-02  0.3353824E+00
         11   -1    0    0    0    0  0.00000000000E+00  0.00000000000E+00  0.39999999674E+01  0.40000000000E+01  0.51100000000E-03 0. -1.
    9000002   -1    0    0    0    0 -0.00000000000E+00 -0.00000000000E+00  0.00000000000E+00  0.93800000000E+00  0.93800000000E+00 0.  1.
         11    1    1    2    0    0  0.11268309011E+00  0.16242759997E-01  0.97825160328E+00  0.98485418540E+00  0.51100000000E-03 0. -1.
    9000002    1    1    2    0    0 -0.48190701846E+00 -0.76035600156E-01  0.16269917622E+00  0.10697339898E+01  0.93800000000E+00 0.  1.
         22    1    1    2    0    0  0.36922392835E+00  0.59792840159E-01  0.28590491879E+01  0.28834118248E+01  0.00000000000E+00 0. -1.
</event>
<event>
 5    1  0.3005426E+001  0.1599637E+01  0.7818608E-02  0.3353757E+00
         11   -1    0    0    0    0  0.00000000000E+00  0.00000000000E+00  0.39999999674E+01  0.40000000000E+01  0.51100000000E-03 0. -1.
    9000002   -1    0    0    0    0 -0.00000000000E+00 -0.00000000000E+00  0.00000000000E+00  0.93800000000E+00  0.93800000000E+00 0.  1.
         11    1    1    2    0    0 -0.15569337730E+00  0.80912313468E-01  0.10581514215E+01  0.10726005418E+01  0.51100000000E-03 0. -1.
    9000002    1    1    2    0    0  0.55212859606E+00 -0.30810920965E+00  0.28097064962E+00  0.11655752990E+01  0.93800000000E+00 0.  1.
         22    1    1    2    0    0 -0.39643521876E+00  0.22719689618E+00  0.26608778962E+01  0.26998241592E+01  0.00000000000E+00 0. -1.
</event>
<event>
 5    1  0.3005426E+001  0.1598377E+01  0.7818608E-02  0.3355127E+00
         11   -1    0    0    0    0  0.00000000000E+00  0.00000000000E+00  0.39999999674E+01  0.40000000000E+01  0.51100000000E-03 0.  1.
    9000002   -1    0    0    0    0 -0.00000000000E+00 -0.00000000000E+00  0.00000000000E+00  0.93800000000E+00  0.93800000000E+00 0. -1.
         11    1    1    2    0    0  0.22349912020E+00  0.69031047415E-01  0.13959903365E+01  0.14154527272E+01  0.51100000000E-03 0.  1.
    9000002    1    1    2    0    0 -0.56133712132E+00 -0.81553785699E-01  0.22422612695E+00  0.11188707431E+01  0.93800000000E+00 0. -1.
         22    1    1    2    0    0  0.33783800111E+00  0.12522738284E-01  0.23797835039E+01  0.24036765297E+01  0.00000000000E+00 0.  1.
</event>
<event>
 5    1  0.3005426E+001  0.1599676E+01  0.7818608E-02  0.3353715E+00
         11   -1    0    0    0    0  0.00000000000E+00  0.00000000000E+00  0.39999999674E+01  0.40000000000E+01  0.51100000000E-03 0. -1.
    9000002   -1    0    0    0    0 -0.00000000000E+00 -0.00000000000E+00  0.00000000000E+00  0.93800000000E+00  0.93800000000E+00 0.  1.
         11    1    1    2    0    0  0.17543596287E+00 -0.70291613315E-01  0.94463092612E+00  0.96335171961E+00  0.51100000000E-03 0. -1.
    9000002    1    1    2    0    0 -0.67293769851E+00  0.26518590146E+00  0.37631219583E+00  0.12428288608E+01  0.93800000000E+00 0.  1.
         22    1    1    2    0    0  0.49750173565E+00 -0.19489428814E+00  0.26790568454E+01  0.27318194196E+01  0.00000000000E+00 0.  1.
</event>
<event>
 5    1  0.3005426E+001  0.1599677E+01  0.7818608E-02  0.3353714E+00
         11   -1    0    0    0    0  0.00000000000E+00  0.00000000000E+00  0.39999999674E+01  0.40000000000E+01  0.51100000000E-03 0. -1.
    9000002   -1    0    0    0    0 -0.00000000000E+00 -0.00000000000E+00  0.00000000000E+00  0.93800000000E+00  0.93800000000E+00 0.  1.
         11    1    1    2    0    0  0.97146306365E-01  0.15275100219E+00  0.13872246861E+01  0.13989863703E+01  0.51100000000E-03 0. -1.
    9000002    1    1    2    0    0 -0.26880027758E+00 -0.42133418988E+00  0.17097936777E+00  0.10765008281E+01  0.93800000000E+00 0.  1.
         22    1    1    2    0    0  0.17165397122E+00  0.26858318769E+00  0.24417959135E+01  0.24625128016E+01  0.00000000000E+00 0. -1.
</event>
<event>
 5    1  0.3005426E+001  0.1592387E+01  0.7818608E-02  0.3361668E+00
         11   -1    0    0    0    0  0.00000000000E+00  0.00000000000E+00  0.39999999674E+01  0.40000000000E+01  0.51100000000E-03 0. -1.
    9000002   -1    0    0    0    0 -0.00000000000E+00 -0.00000000000E+00  0.00000000000E+00  0.93800000000E+00  0.93800000000E+00 0. -1.
         11    1    1    2    0    0 -0.61114688246E-02 -0.23124409821E-01  0.13649801509E+01  0.13651897896E+01  0.51100000000E-03 0. -1.
    9000002    1    1    2    0    0  0.29908798476E+00  0.85889361687E-01  0.70427792799E-01  0.99077478726E+00  0.93800000000E+00 0. -1.
         22    1    1    2    0    0 -0.29297651594E+00 -0.62764951865E-01  0.25645920237E+01  0.25820354231E+01  0.00000000000E+00 0. -1.
</event>
<event>
 5    1  0.3005426E+001  0.1599253E+01  0.7818608E-02  0.3354175E+00
         11   -1    0    0    0    0  0.00000000000E+00  0.00000000000E+00  0.39999999674E+01  0.40000000000E+01  0.51100000000E-03 0.  1.
    9000002   -1    0    0    0    0 -0.00000000000E+00 -0.00000000000E+00  0.00000000000E+00  0.93800000000E+00  0.93800000000E+00 0.  1.
         11    1    1    2    0    0  0.10863183865E+00  0.80452583207E-01  0.11570903007E+01  0.11649599648E+01  0.51100000000E-03 0.  1.
    9000002    1    1    2    0    0 -0.42238030456E+00 -0.30499548671E+00  0.18687016246E+00  0.10891243392E+01  0.93800000000E+00 0.  1.
         22    1    1    2    0    0  0.31374846591E+00  0.22454290350E+00  0.26560395042E+01  0.26839156960E+01  0.00000000000E+00 0. -1.
</event>
<event>
 5    1  0.3005426E+001  0.1596410E+01  0.7818608E-02  0.3357270E+00
         11   -1    0    0    0    0  0.00000000000E+00  0.00000000000E+00  0.39999999674E+01  0.40000000000E+01  0.51100000000E-03 0.  1.
    9000002   -1    0    0    0    0 -0.00000000000E+00 -0.00000000000E+00  0.00000000000E+00  0.93800000000E+00  0.93800000000E+00 0.  1.
         11    1    1    2    0    0 -0.33108004156E+00 -0.18012694325E+00  0.13995156368E+01  0.14493805533E+01  0.51100000000E-03 0.  1.
    9000002    1    1    2    0    0  0.67924004689E+00  0.38682647374E+00  0.45147096905E+00  0.13017956053E+01  0.93800000000E+00 0.  1.
         22    1    1    2    0    0 -0.34816000533E+00 -0.20669953049E+00  0.21490133616E+01  0.21868238414E+01  0.00000000000E+00 0.  1.
</event>
<event>
 5    1  0.3005426E+001  0.1599659E+01  0.7818608E-02  0.3353734E+00
         11   -1    0    0    0    0  0.00000000000E+00  0.00000000000E+00  0.39999999674E+01  0.40000000000E+01  0.51100000000E-03 0. -1.
    9000002   -1    0    0    0    0 -0.00000000000E+00 -0.00000000000E+00  0.00000000000E+00  0.93800000000E+00  0.93800000000E+00 0.  1.
         11    1    1    2    0    0 -0.13029135084E+00 -0.63533241217E-01  0.13936109084E+01  0.14011295208E+01  0.51100000000E-03 0. -1.
    9000002    1    1    2    0    0  0.35068883868E+00  0.17541717162E+00  0.10362127039E+00  0.10219272055E+01  0.93800000000E+00 0.  1.
         22    1    1    2    0    0 -0.22039748785E+00 -0.11188393040E+00  0.25027677885E+01  0.25149432737E+01  0.00000000000E+00 0.  1.
</event>
<event>
 5    1  0.3005426E+001  0.1599676E+01  0.7818608E-02  0.3353715E+00
         11   -1    0    0    0    0  0.00000000000E+00  0.00000000000E+00  0.39999999674E+01  0.40000000000E+01  0.51100000000E-03 0. -1.
    9000002   -1    0    0    0    0 -0.00000000000E+00 -0.00000000000E+00  0.00000000000E+00  0.93800000000E+00  0.93800000000E+00 0.  1.
         11    1    1    2    0    0  0.44854241405E-01 -0.47097621091E-01  0.61865580313E+00  0.62206539267E+00  0.51100000000E-03 0. -1.
    9000002    1    1    2    0    0 -0.28293769535E+00  0.29066286894E+00  0.11106649911E+00  0.10279680978E+01  0.93800000000E+00 0.  1.
         22    1    1    2    0    0  0.23808345394E+00 -0.24356524785E+00  0.32702776651E+01  0.32879665096E+01  0.00000000000E+00 0. -1.
</event>
<event>
 5    1  0.3005426E+001  0.1503884E+01  0.7818608E-02  0.3464781E+00
         11   -1    0    0    0    0  0.00000000000E+00  0.00000000000E+00  0.39999999674E+01  0.40000000000E+01  0.51100000000E-03 0.  1.
    9000002   -1    0    0    0    0 -0.00000000000E+00 -0.00000000000E+00  0.00000000000E+00  0.93800000000E+00  0.93800000000E+00 0. -1.
         11    1    1    2    0    0  0.92482102420E-01  0.26018208723E-01  0.47033383805E-01  0.10696862515E+00  0.51100000000E-03 0.  1.
    9000002    1    1    2    0    0  0.44874678245E+00 -0.36230586598E-01  0.22568111592E+00  0.10646418629E+01  0.93800000000E+00 0. -1.
         22    1    1    2    0    0 -0.54122888486E+00  0.10212377876E-01  0.37272854676E+01  0.37663895119E+01  0.00000000000E+00 0.  1.
</event>
<event>
 5    1  0.3005426E+001  0.1598158E+01  0.7818608E-02  0.3355365E+00
         11   -1    0    0    0    0  0.00000000000E+00  0.00000000000E+00  0.39999999674E+01  0.40000000000E+01  0.51100000000E-03 0.  1.
    9000002   -1    0    0    0    0 -0.00000000000E+00 -0.00000000000E+00  0.00000000000E+00  0.93800000000E+00  0.93800000000E+00 0.  1.
         11    1    1    2    0    0  0.77169184152E-01  0.10689183606E+00  0.14609379270E+01  0.14668745124E+01  0.51100000000E-03 0.  1.
    9000002    1    1    2    0    0 -0.31570379950E+00 -0.23413633788E+00  0.10537247189E+00  0.10224656823E+01  0.93800000000E+00 0.  1.
         22    1    1    2    0    0  0.23853461535E+00  0.12724450183E+00  0.24336895685E+01  0.24486598052E+01  0.00000000000E+00 0.  1.
</event>
<event>
 5    1  0.3005426E+001  0.1599663E+01  0.7818608E-02  0.3353729E+00
         11   -1    0    0    0    0  0.00000000000E+00  0.00000000000E+00  0.39999999674E+01  0.40000000000E+01  0.51100000000E-03 0. -1.
    9000002   -1    0    0    0    0 -0.00000000000E+00 -0.00000000000E+00  0.00000000000E+00  0.93800000000E+00  0.93800000000E+00 0. -1.
         11    1    1    2    0    0 -0.38434600667E-01 -0.14444239990E+00  0.10101366493E+01  0.10211352197E+01  0.51100000000E-03 0. -1.
    9000002    1    1    2    0    0  0.15685305461E+00  0.53398275941E+00  0.21421910088E+00  0.11115189118E+01  0.93800000000E+00 0. -1.
         22    1    1    2    0    0 -0.11841845395E+00 -0.38954035951E+00  0.27756442172E+01  0.28053458685E+01  0.00000000000E+00 0. -1.
</event>
<event>
 5    1  0.3005426E+001  0.1599675E+01  0.7818608E-02  0.3353716E+00
         11   -1    0    0    0    0  0.00000000000E+00  0.00000000000E+00  0.39999999674E+01  0.40000000000E+01  0.51100000000E-03 0. -1.
    9000002   -1    0    0    0    0 -0.00000000000E+00 -0.00000000000E+00  0.00000000000E+00  0.93800000000E+00  0.93800000000E+00 0. -1.
         11    1    1    2    0    0 -0.88734430538E-01 -0.71468884298E-01  0.12415756628E+01  0.12467926805E+01  0.51100000000E-03 0. -1.
    9000002    1    1    2    0    0  0.28393277152E+00  0.22599202663E+00  0.88429184107E-01  0.10096305936E+01  0.93800000000E+00 0. -1.
         22    1    1    2    0    0 -0.19519834098E+00 -0.15452314234E+00  0.26699951204E+01  0.26815767259E+01  0.00000000000E+00 0. -1.
</event>
<event>
 5    1  0.3005426E+001  0.1588821E+01  0.7818608E-02  0.3365587E+00
         11   -1    0    0    0    0  0.00000000000E+00  0.00000000000E+00  0.39999999674E+01  0.40000000000E+01  0.51100000000E-03 0.  1.
    9000002   -1    0    0    0    0 -0.00000000000E+00 -0.00000000000E+00  0.00000000000E+00  0.93800000000E+00  0.93800000000E+00 0.  1.
         11    1    1    2    0    0 -0.29621176356E+00  0.14064902125E+00  0.13598668769E+01  0.13988430005E+01  0.51100000000E-03 0.  1.
    9000002    1    1    2    0    0  0.69769271138E+00 -0.64427877481E-01  0.36319576346E+00  0.12258389917E+01  0.93800000000E+00 0.  1.
         22    1    1    2    0    0 -0.40148094783E+00 -0.76221143772E-01  0.22769373270E+01  0.23133180078E+01  0.00000000000E+00 0.  1.
</event>
<event>
 5    1  0.3005426E+001  0.1599651E+01  0.7818608E-02  0.3353743E+00
         11   -1    0    0    0    0  0.00000000000E+00  0.00000000000E+00  0.39999999674E+01  0.40000000000E+01  0.51100000000E-03 0. -1.
    9000002   -1    0    0    0    0 -0.00000000000E+00 -0.00000000000E+00  0.00000000000E+00  0.93800000000E+00  0.93800000000E+00 0. -1.
         11    1    1    2    0    0  0.12086002575E+00 -0.36230560764E-01  0.10252943965E+01  0.10330288766E+01  0.51100000000E-03 0. -1.
    9000002    1    1    2    0    0 -0.45131549083E+00  0.15623703835E+00  0.15559763606E+00  0.10640255207E+01  0.93800000000E+00 0. -1.
         22    1    1    2    0    0  0.33045546508E+00 -0.12000647759E+00  0.28191079348E+01  0.28409456027E+01  0.00000000000E+00 0. -1.
</event>
<event>
 5    1  0.3005426E+001  0.1598869E+01  0.7818608E-02  0.3354592E+00
         11   -1    0    0    0    0  0.00000000000E+00  0.00000000000E+00  0.39999999674E+01  0.40000000000E+01  0.51100000000E-03 0. -1.
    9000002   -1    0    0    0    0 -0.00000000000E+00 -0.00000000000E+00  0.00000000000E+00  0.93800000000E+00  0.93800000000E+00 0. -1.
         11    1    1    2    0    0 -0.26008875593E-01  0.13686036518E+00  0.12494570737E+01  0.12571994517E+01  0.51100000000E-03 0. -1.
    9000002    1    1    2    0    0  0.17275236137E+00 -0.38768909019E+00  0.12259218648E+00  0.10368312559E+01  0.93800000000E+00 0. -1.
         22    1    1    2    0    0 -0.14674348577E+00  0.25082872501E+00  0.26279507072E+01  0.26439692924E+01  0.00000000000E+00 0. -1.
</event>
<event>
 5    1  0.3005426E+001  0.1596609E+01  0.7818608E-02  0.3357052E+00
         11   -1    0    0    0    0  0.00000000000E+00  0.00000000000E+00  0.39999999674E+01  0.40000000000E+01  0.51100000000E-03 0.  1.
    9000002   -1    0    0    0    0 -0.00000000000E+00 -0.00000000000E+00  0.00000000000E+00  0.93800000000E+00  0.93800000000E+00 0.  1.
         11    1    1    2    0    0 -0.20521922070E+00  0.27302414890E-03  0.96356219942E+00  0.98517377978E+00  0.51100000000E-03 0.  1.
    9000002    1    1    2    0    0  0.68659929663E+00  0.20339513882E+00  0.37161691421E+00  0.12372272659E+01  0.93800000000E+00 0.  1.
         22    1    1    2    0    0 -0.48138007593E+00 -0.20366816297E+00  0.26648208537E+01  0.27155989543E+01  0.00000000000E+00 0.  1.
</event>
<event>
 5    1  0.3005426E+001  0.1581507E+01  0.7818608E-02  0.3373683E+00
         11   -1    0    0    0    0  0.00000000000E+00  0.00000000000E+00  0.39999999674E+01  0.40000000000E+01  0.51100000000E-03 0.  1.
    9000002   -1    0    0    0    0 -0.00000000000E+00 -0.00000000000E+00  0.00000000000E+00  0.93800000000E+00  0.93800000000E+00 0. -1.
         11    1    1    2    0    0  0.14899399767E+00 -0.65340239683E-02  0.47187827200E+00  0.49488510739E+00  0.51100000000E-03 0.  1.
    9000002    1    1    2    0    0 -0.38210706851E+00 -0.23103080374E+00  0.15116775858E+00  0.10497984260E+01  0.93800000000E+00 0. -1.
         22    1    1    2    0    0  0.23311307084E+00  0.23756482770E+00  0.33769539368E+01  0.33933164666E+01  0.00000000000E+00 0.  1.
</event>
<event>
 5    1  0.3005426E+001  0.1539709E+01  0.7818608E-02  0.3421519E+00
         11   -1    0    0    0    0  0.00000000000E+00  0.00000000000E+00  0.39999999674E+01  0.40000000000E+01  0.51100000000E-03 0.  1.
    9000002   -1    0    0    0    0 -0.00000000000E+00 -0.00000000000E+00  0.00000000000E+00  0.93800000000E+00  0.93800000000E+00 0. -1.
         11    1    1    2    0    0  0.13139975407E+00  0.25438533000E+00  0.12987522026E+01  0.13299380950E+01  0.51100000000E-03 0.  1.
    9000002    1    1    2    0    0  0.16850834472E+00 -0.14854786725E+00  0.80268623984E-01  0.96785772875E+00  0.93800000000E+00 0. -1.
         22    1    1    2    0    0 -0.29990809879E+00 -0.10583746275E+00  0.26209791407E+01  0.26402041763E+01  0.00000000000E+00 0.  1.
</event>
<event>
 5    1  0.3005426E+001  0.1578338E+01  0.7818608E-02  0.3377215E+00
         11   -1    0    0    0    0  0.00000000000E+00  0.00000000000E+00  0.39999999674E+01  0.40000000000E+01  0.51100000000E-03 0. -1.
    9000002   -1    0    0    0    0 -0.00000000000E+00 -0.00000000000E+00  0.00000000000E+00  0.93800000000E+00  0.93800000000E+00 0.  1.
         11    1    1    2    0    0  0.52968496801E-01 -0.83280172705E-01  0.13701567580E+00  0.16886327414E+00  0.51100000000E-03 0. -1.
    9000002    1    1    2    0    0 -0.61897800212E-01  0.77504146189E+00  0.46922125442E+00  0.13055777230E+01  0.93800000000E+00 0.  1.
         22    1    1    2    0    0  0.89293034111E-02 -0.69176128918E+00  0.33937630371E+01  0.34635590028E+01  0.00000000000E+00 0. -1.
</event>
<event>
 5    1  0.3005426E+001  0.1599676E+01  0.7818608E-02  0.3353715E+00
         11   -1    0    0    0    0  0.00000000000E+00  0.00000000000E+00  0.39999999674E+01  0.40000000000E+01  0.51100000000E-03 0. -1.
    9000002   -1    0    0    0    0 -0.00000000000E+00 -0.00000000000E+00  0.00000000000E+00  0.93800000000E+00  0.93800000000E+00 0.  1.
         11    1    1    2    0    0 -0.48424986524E-01  0.15297032176E-01  0.36772242325E+00  0.37121290414E+00  0.51100000000E-03 0. -1.
    9000002    1    1    2    0    0  0.49609528203E+00 -0.15469353474E+00  0.18548544866E+00  0.10882506468E+01  0.93800000000E+00 0.  1.
         22    1    1    2    0    0 -0.44767029550E+00  0.13939650257E+00  0.34467920954E+01  0.34785364491E+01  0.00000000000E+00 0. -1.
</event>
<event>
 5    1  0.3005426E+001  0.1599192E+01  0.7818608E-02  0.3354241E+00
         11   -1    0    0    0    0  0.00000000000E+00  0.00000000000E+00  0.39999999674E+01  0.40000000000E+01  0.51100000000E-03 0.  1.
    9000002   -1    0    0    0    0 -0.00000000000E+00 -0.00000000000E+00  0.00000000000E+00  0.93800000000E+00  0.93800000000E+00 0.  1.
         11    1    1    2    0    0 -0.13639550332E+00  0.10135907469E-01  0.14324246235E+01  0.14389395515E+01  0.51100000000E-03 0.  1.
    9000002    1    1    2    0    0  0.41715793584E+00  0.23224822065E-01  0.11842970070E+00  0.10336487459E+01  0.93800000000E+00 0.  1.
         22    1    1    2    0    0 -0.28076243252E+00 -0.33360729534E-01  0.24491456432E+01  0.24654117026E+01  0.00000000000E+00 0.  1.
</event>
<event>
 5    1  0.3005426E+001  0.1509037E+01  0.7818608E-02  0.3458423E+00
         11   -1    0    0    0    0  0.00000000000E+00  0.00000000000E+00  0.39999999674E+01  0.40000000000E+01  0.51100000000E-03 0.  1.
    9000002   -1    0    0    0    0 -0.00000000000E+00 -0.00000000000E+00  0.00000000000E+00  0.93800000000E+00  0.93800000000E+00 0. -1.
         11    1    1    2    0    0  0.20302403703E+00  0.14168736885E+00  0.64227014615E+00  0.68833514502E+00  0.51100000000E-03 0.  1.
    9000002    1    1    2    0    0  0.91294349802E-01  0.11264881530E+00  0.83938561525E-01  0.95284526341E+00  0.93800000000E+00 0. -1.
         22    1    1    2    0    0 -0.29431838683E+00 -0.25433618415E+00  0.32737912597E+01  0.32968195916E+01  0.00000000000E+00 0.  1.
</event>
<event>
 5    1  0.3005426E+001  0.1596129E+01  0.7818608E-02  0.3357575E+00
         11   -1    0    0    0    0  0.00000000000E+00  0.00000000000E+00  0.39999999674E+01  0.40000000000E+01  0.51100000000E-03 0. -1.
    9000002   -1    0    0    0    0 -0.00000000000E+00 -0.00000000000E+00  0.00000000000E+00  0.93800000000E+00  0.93800000000E+00 0. -1.
         11    1    1    2    0    0 -0.35972067812E-01 -0.45667274362E-01  0.14542035684E+01  0.14553651669E+01  0.51100000000E-03 0. -1.
    9000002    1    1    2    0    0  0.24120478548E+00  0.24228099577E+00  0.81147676060E-01  0.10016530211E+01  0.93800000000E+00 0. -1.
         22    1    1    2    0    0 -0.20523271767E+00 -0.19661372141E+00  0.24646487229E+01  0.24809818119E+01  0.00000000000E+00 0. -1.
</event>
<event>
 5    1  0.3005426E+001  0.1569554E+01  0.7818608E-02  0.3387086E+00
         11   -1    0    0    0    0  0.00000000000E+00  0.00000000000E+00  0.39999999674E+01  0.40000000000E+01  0.51100000000E-03 0.  1.
    9000002   -1    0    0    0    0 -0.00000000000E+00 -0.00000000000E+00  0.00000000000E+00  0.93800000000E+00  0.93800000000E+00 0. -1.
         11    1    1    2    0    0  0.22899522903E+00  0.26966973473E+00  0.14520629124E+01  0.14945392412E+01  0.51100000000E-03 0.  1.
    9000002    1    1    2    0    0 -0.80234763007E-01 -0.56539348564E+00  0.25581834218E+00  0.11275612777E+01  0.93800000000E+00 0. -1.
         22    1    1    2    0    0 -0.14876046602E+00  0.29572375090E+00  0.22921187128E+01  0.23158994811E+01  0.00000000000E+00 0.  1.
</event>
<event>
 5    1  0.3005426E+001  0.1594735E+01  0.7818608E-02  0.3359098E+00
         11   -1    0    0    0    0  0.00000000000E+00  0.00000000000E+00  0.39999999674E+01  0.40000000000E+01  0.51100000000E-03 0.  1.
    9000002   -1    0    0    0    0 -0.00000000000E+00 -0.00000000000E+00  0.00000000000E+00  0.93800000000E+00  0.93800000000E+00 0.  1.
         11    1    1    2    0    0  0.40731363233E-01  0.15874556978E+00  0.73950971978E+00  0.75745236592E+00  0.51100000000E-03 0.  1.
    9000002    1    1    2    0    0 -0.42999738090E+00 -0.53782511422E+00  0.34331733221E+00  0.12132041838E+01  0.93800000000E+00 0.  1.
         22    1    1    2    0    0  0.38926601767E+00  0.37907954444E+00  0.29171729154E+01  0.29673434502E+01  0.00000000000E+00 0.  1.
</event>
<event>
 5    1  0.3005426E+001  0.1594990E+01  0.7818608E-02  0.3358820E+00
         11   -1    0    0    0    0  0.00000000000E+00  0.00000000000E+00  0.39999999674E+01  0.40000000000E+01  0.51100000000E-03 0.  1.
    9000002   -1    0    0    0    0 -0.00000000000E+00 -0.00000000000E+00  0.00000000000E+00  0.93800000000E+00  0.93800000000E+00 0. -1.
         11    1    1    2    0    0  0.16530342609E+00  0.45221059847E-01  0.11192921773E+01  0.11323362602E+01  0.51100000000E-03 0.  1.
    9000002    1    1    2    0    0 -0.44129266623E+00 -0.37789828690E+00  0.23915134985E+00  0.11289746236E+01  0.93800000000E+00 0. -1.
         22    1    1    2    0    0  0.27598924014E+00  0.33267722705E+00  0.26415564403E+01  0.26766891163E+01  0.00000000000E+00 0.  1.
</event>
<event>
 5    1  0.3005426E+001  0.1599677E+01  0.7818608E-02  0.3353714E+00
         11   -1    0    0    0    0  0.00000000000E+00  0.00000000000E+00  0.39999999674E+01  0.40000000000E+01  0.51100000000E-03 0. -1.
    9000002   -1    0    0    0    0 -0.00000000000E+00 -0.00000000000E+00  0.00000000000E+00  0.93800000000E+00  0.93800000000E+00 0. -1.
         11    1    1    2    0    0 -0.87300468184E-01 -0.67969494812E-01  0.98958122220E+00  0.99574719704E+00  0.51100000000E-03 0. -1.
    9000002    1    1    2    0    0  0.33953468131E+00  0.26704589749E+00  0.12640576869E+00  0.10403940261E+01  0.93800000000E+00 0. -1.
         22    1    1    2    0    0 -0.25223421313E+00 -0.19907640267E+00  0.28840129765E+01  0.29018587769E+01  0.00000000000E+00 0. -1.
</event>
<event>
 5    1  0.3005426E+001  0.1599672E+01  0.7818608E-02  0.3353719E+00
         11   -1    0    0    0    0  0.00000000000E+00  0.00000000000E+00  0.39999999674E+01  0.40000000000E+01  0.51100000000E-03 0. -1.
    9000002   -1    0    0    0    0 -0.00000000000E+00 -0.00000000000E+00  0.00000000000E+00  0.93800000000E+00  0.93800000000E+00 0.  1.
         11    1    1    2    0    0 -0.84421670860E-01 -0.67512501504E-01  0.65032149612E+00  0.65924446589E+00  0.51100000000E-03 0. -1.
    9000002    1    1    2    0    0  0.47635494765E+00  0.38162849494E+00  0.26051919514E+00  0.11490294145E+01  0.93800000000E+00 0.  1.
         22    1    1    2    0    0 -0.39193327679E+00 -0.31411599343E+00  0.30891592761E+01  0.31297261196E+01  0.00000000000E+00 0. -1.
</event>
<event>
 5    1  0.3005426E+001  0.1581443E+01  0.7818608E-02  0.3373754E+00
         11   -1    0    0    0    0  0.00000000000E+00  0.00000000000E+00  0.39999999674E+01  0.40000000000E+01  0.51100000000E-03 0. -1.
    9000002   -1    0    0    0    0 -0.00000000000E+00 -0.00000000000E+00  0.00000000000E+00  0.93800000000E+00  0.93800000000E+00 0.  1.
         11    1    1    2    0    0  0.48294262130E-01 -0.54106975693E-01  0.50794791554E+00  0.51309964588E+00  0.51100000000E-03 0. -1.
    9000002    1    1    2    0    0  0.21765193257E+00 -0.18298149489E+00  0.68158193085E-01  0.98251927742E+00  0.93800000000E+00 0.  1.
         22    1    1    2    0    0 -0.26594619470E+00  0.23708847058E+00  0.34238938587E+01  0.34423810767E+01  0.00000000000E+00 0. -1.
</event>
<event>
 5    1  0.3005426E+001  0.1511879E+01  0.7818608E-02  0.3454936E+00
         11   -1    0    0    0    0  0.00000000000E+00  0.00000000000E+00  0.39999999674E+01  0.40000000000E+01  0.51100000000E-03 0. -1.
    9000002   -1    0    0    0    0 -0.00000000000E+00 -0.00000000000E+00  0.00000000000E+00  0.93800000000E+00  0.93800000000E+00 0. -1.
         11    1    1    2    0    0 -0.19232434385E+00 -0.18095692006E+00  0.87412960965E+00  0.91314670002E+00  0.51100000000E-03 0. -1.
    9000002    1    1    2    0    0 -0.25111582986E+00  0.70453365766E-01  0.11598198160E+00  0.98046859043E+00  0.93800000000E+00 0. -1.
         22    1    1    2    0    0  0.44344017372E+00  0.11050355429E+00  0.30098883761E+01  0.30443847096E+01  0.00000000000E+00 0. -1.
</event>
<event>
 5    1  0.3005426E+001  0.1599607E+01  0.7818608E-02  0.3353790E+00
         11   -1    0    0    0    0  0.00000000000E+00  0.00000000000E+00  0.39999999674E+01  0.40000000000E+01  0.51100000000E-03 0. -1.
    9000002   -1    0    0    0    0 -0.00000000000E+00 -0.00000000000E+00  0.00000000000E+00  0.93800000000E+00  0.93800000000E+00 0.  1.
         11    1    1    2    0    0 -0.79081187652E-02 -0.20877954868E-03  0.82919661517E-01  0.83297738976E-01  0.51100000000E-03 0. -1.
    9000002    1    1    2    0    0  0.35574750708E+00 -0.12352855508E+00  0.95437053633E-01  0.10152673657E+01  0.93800000000E+00 0.  1.
         22    1    1    2    0    0 -0.34783938831E+00  0.12373733462E+00  0.38216432522E+01  0.38394348953E+01  0.00000000000E+00 0. -1.
</event>
<event>
 5    1  0.3005426E+001  0.1599594E+01  0.7818608E-02  0.3353804E+00
         11   -1    0    0    0    0  0.00000000000E+00  0.00000000000E+00  0.39999999674E+01  0.40000000000E+01  0.51100000000E-03 0.  1.
    9000002   -1    0    0    0    0 -0.00000000000E+00 -0.00000000000E+00  0.00000000000E+00  0.93800000000E+00  0.93800000000E+00 0.  1.
         11    1    1    2    0    0 -0.13124103400E+00  0.13309138624E+00  0.14290657606E+01  0.14412379177E+01  0.51100000000E-03 0.  1.
    9000002    1    1    2    0    0  0.37483281358E+00 -0.36865111718E+00  0.19013640503E+00  0.10919703004E+01  0.93800000000E+00 0.  1.
         22    1    1    2    0    0 -0.24359177958E+00  0.23555973094E+00  0.23807978017E+01  0.24047917820E+01  0.00000000000E+00 0.  1.
</event>
<event>
 5    1  0.3005426E+001  0.1599661E+01  0.7818608E-02  0.3353732E+00
         11   -1    0    0    0    0  0.00000000000E+00  0.00000000000E+00  0.39999999674E+01  0.40000000000E+01  0.51100000000E-03 0. -1.
    9000002   -1    0    0    0    0 -0.00000000000E+00 -0.00000000000E+00  0.00000000000E+00  0.93800000000E+00  0.93800000000E+00 0.  1.
         11    1    1    2    0    0  0.76002231261E-01  0.40383499346E-01  0.67481545037E+00  0.68028179408E+00  0.51100000000E-03 0. -1.
    9000002    1    1    2    0    0 -0.45176704989E+00 -0.23027358177E+00  0.17623846505E+00  0.10807513064E+01  0.93800000000E+00 0.  1.
         22    1    1    2    0    0  0.37576481862E+00  0.18989008242E+00  0.31489460519E+01  0.31769668995E+01  0.00000000000E+00 0. -1.
</event>
<event>
 5    1  0.3005426E+001  0.1557767E+01  0.7818608E-02  0.3400517E+00
         11   -1    0    0    0    0  0.00000000000E+00  0.00000000000E+00  0.39999999674E+01  0.40000000000E+01  0.51100000000E-03 0.  1.
    9000002   -1    0    0    0    0 -0.00000000000E+00 -0.00000000000E+00  0.00000000000E+00  0.93800000000E+00  0.93800000000E+00 0. -1.
         11    1    1    2    0    0 -0.24308157140E+00  0.92778615105E-01  0.57088857643E+00  0.62738389332E+00  0.51100000000E-03 0.  1.
    9000002    1    1    2    0    0  0.37212079648E+00 -0.57989205744E+00  0.38621497996E+00  0.12262767617E+01  0.93800000000E+00 0. -1.
         22    1    1    2    0    0 -0.12903922507E+00  0.48711344233E+00  0.30428964110E+01  0.30843393450E+01  0.00000000000E+00 0.  1.
</event>
<event>
 5    1  0.3005426E+001  0.1599620E+01  0.7818608E-02  0.3353776E+00
         11   -1    0    0    0    0  0.00000000000E+00  0.00000000000E+00  0.39999999674E+01  0.40000000000E+01  0.51100000000E-03 0.  1.
    9000002   -1    0    0    0    0 -0.00000000000E+00 -0.00000000000E+00  0.00000000000E+00  0.93800000000E+00  0.93800000000E+00 0. -1.
         11    1    1    2    0    0 -0.55451633159E-01 -0.40206564510E-01  0.57303693037E+00  0.57711613748E+00  0.51100000000E-03 0.  1.
    9000002    1    1    2    0    0  0.36212187766E+00  0.31200109792E+00  0.15589467579E+00  0.10642481333E+01  0.93800000000E+00 0. -1.
         22    1    1    2    0    0 -0.30667024450E+00 -0.27179453341E+00  0.32710683612E+01  0.32966357292E+01  0.00000000000E+00 0.  1.
</event>
<event>
 5    1  0.3005426E+001  0.1593312E+01  0.7818608E-02  0.3360654E+00
         11   -1    0    0    0    0  0.00000000000E+00  0.00000000000E+00  0.39999999674E+01  0.40000000000E+01  0.51100000000E-03 0.  1.
    9000002   -1    0    0    0    0 -0.00000000000E+00 -0.00000000000E+00  0.00000000000E+00  0.93800000000E+00  0.93800000000E+00 0. -1.
         11    1    1    2    0    0  0.64998672022E-03 -0.16725753577E-01  0.20870124284E-01  0.26758111370E-01  0.51100000000E-03 0.  1.
    9000002    1    1    2    0    0 -0.42639100607E+00  0.28665691307E+00  0.18696367717E+00  0.10857167644E+01  0.93800000000E+00 0. -1.
         22    1    1    2    0    0  0.42574101935E+00 -0.26993115949E+00  0.37921661659E+01  0.38255251243E+01  0.00000000000E+00 0.  1.
</event>
<event>
 5    1  0.3005426E+001  0.1483143E+01  0.7818608E-02  0.3490858E+00
         11   -1    0    0    0    0  0.00000000000E+00  0.00000000000E+00  0.39999999674E+01  0.40000000000E+01  0.51100000000E-03 0. -1.
    9000002   -1    0    0    0    0 -0.00000000000E+00 -0.00000000000E+00  0.00000000000E+00  0.93800000000E+00  0.93800000000E+00 0. -1.
         11    1    1    2    0    0  0.97027632363E-01 -0.80417151651E-01 -0.11473283551E-01  0.12654318266E+00  0.51100000000E-03 0. -1.
    9000002    1    1    2    0    0  0.26642090933E+00  0.24590808096E+00  0.25988057328E+00  0.10386687622E+01  0.93800000000E+00 0. -1.
         22    1    1    2    0    0 -0.36344854169E+00 -0.16549092931E+00  0.37515926776E+01  0.37727880551E+01  0.00000000000E+00 0. -1.
</event>
<event>
 5    1  0.3005426E+001  0.1533152E+01  0.7818608E-02  0.3429274E+00
         11   -1    0    0    0    0  0.00000000000E+00  0.00000000000E+00  0.39999999674E+01  0.40000000000E+01  0.51100000000E-03 0. -1.
    9000002   -1    0    0    0    0 -0.00000000000E+00 -0.00000000000E+00  0.00000000000E+00  0.93800000000E+00  0.93800000000E+00 0.  1.
         11    1    1    2    0    0 -0.24161003948E+00 -0.17309707610E+00  0.87090103349E+00  0.92022110396E+00  0.51100000000E-03 0. -1.
    9000002    1    1    2    0    0 -0.10408289286E-01  0.34802770709E+00  0.13685983028E+00  0.10098545591E+01  0.93800000000E+00 0.  1.
         22    1    1    2    0    0  0.25201832876E+00 -0.17493063099E+00  0.29922391036E+01  0.30079243369E+01  0.00000000000E+00 0. -1.
</event>
<event>
 5    1  0.3005426E+001  0.1599334E+01  0.7818608E-02  0.3354087E+00
         11   -1    0    0    0    0  0.00000000000E+00  0.00000000000E+00  0.39999999674E+01  0.40000000000E+01  0.51100000000E-03 0.  1.
    9000002   -1    0    0    0    0 -0.00000000000E+00 -0.00000000000E+00  0.00000000000E+00  0.93800000000E+00  0.93800000000E+00 0.  1.
         11    1    1    2    0    0  0.20621034680E-01 -0.17926973524E-01  0.16032678693E+00  0.16263930391E+00  0.51100000000E-03 0.  1.
    9000002    1    1    2    0    0 -0.27930730619E+00  0.41050630724E+00  0.16897199140E+00  0.10746736870E+01  0.93800000000E+00 0.  1.
         22    1    1    2    0    0  0.25868627151E+00 -0.39257933372E+00  0.36707011890E+01  0.37006870091E+01  0.00000000000E+00 0.  1.
</event>
<event>
 5    1  0.3005426E+001  0.1599675E+01  0.7818608E-02  0.3353716E+00
         11   -1    0    0    0    0  0.00000000000E+00  0.00000000000E+00  0.39999999674E+01  0.40000000000E+01  0.51100000000E-03 0. -1.
    9000002   -1    0    0    0    0 -0.00000000000E+00 -0.00000000000E+00  0.00000000000E+00  0.93800000000E+00  0.93800000000E+00 0.  1.
         11    1    1    2    0    0 -0.36891478292E-01  0.12641179784E+00  0.14722934728E+01  0.14781709153E+01  0.51100000000E-03 0. -1.
    9000002    1    1    2    0    0  0.99965101722E-01 -0.33980636594E+00  0.84163803045E-01  0.10061753990E+01  0.93800000000E+00 0.  1.
         22    1    1    2    0    0 -0.63073623430E-01  0.21339456810E+00  0.24435426916E+01  0.24536536857E+01  0.00000000000E+00 0. -1.
</event>
<event>
 5    1  0.3005426E+001  0.1599667E+01  0.7818608E-02  0.3353725E+00
         11   -1    0    0    0    0  0.00000000000E+00  0.00000000000E+00  0.39999999674E+01  0.40000000000E+01  0.51100000000E-03 0.  1.
    9000002   -1    0    0    0    0 -0.00000000000E+00 -0.00000000000E+00  0.00000000000E+00  0.93800000000E+00  0.93800000000E+00 0. -1.
         11    1    1    2    0    0  0.10451787087E+00 -0.64530213859E-01  0.99411074243E+00  0.10016708857E+01  0.51100000000E-03 0.  1.
    9000002    1    1    2    0    0 -0.41509031873E+00  0.24268502425E+00  0.15777923481E+00  0.10658021771E+01  0.93800000000E+00 0. -1.
         22    1    1    2    0    0  0.31057244786E+00 -0.17815481039E+00  0.28481099901E+01  0.28705269373E+01  0.00000000000E+00 0.  1.
</event>
<event>
 5    1  0.3005426E+001  0.1599676E+01  0.7818608E-02  0.3353716E+00
         11   -1    0    0    0    0  0.00000000000E+00  0.00000000000E+00  0.39999999674E+01  0.40000000000E+01  0.51100000000E-03 0. -1.
    9000002   -1    0    0    0    0 -0.00000000000E+00 -0.00000000000E+00  0.00000000000E+00  0.93800000000E+00  0.93800000000E+00 0. -1.
         11    1    1    2    0    0  0.97066774447E-01  0.55793811087E-01  0.12259481174E+01  0.12310499404E+01  0.51100000000E-03 0. -1.
    9000002    1    1    2    0    0 -0.30755641501E+00 -0.18166679001E+00  0.85622881732E-01  0.10073574583E+01  0.93800000000E+00 0. -1.
         22    1    1    2    0    0  0.21048964056E+00  0.12587297892E+00  0.26884289682E+01  0.26995926012E+01  0.00000000000E+00 0. -1.
</event>
<event>
 5    1  0.3005426E+001  0.1559935E+01  0.7818608E-02  0.3398030E+00
         11   -1    0    0    0    0  0.00000000000E+00  0.00000000000E+00  0.39999999674E+01  0.40000000000E+01  0.51100000000E-03 0. -1.
    9000002   -1    0    0    0    0 -0.00000000000E+00 -0.00000000000E+00  0.00000000000E+00  0.93800000000E+00  0.93800000000E+00 0. -1.
         11    1    1    2    0    0  0.16436053575E+00  0.44762124091E-01  0.12037625748E+01  0.12157559916E+01  0.51100000000E-03 0. -1.
    9000002    1    1    2    0    0  0.17650613392E+00 -0.34258356158E-01  0.51566912242E-01  0.95646808453E+00  0.93800000000E+00 0. -1.
         22    1    1    2    0    0 -0.34086666967E+00 -0.10503767933E-01  0.27446704803E+01  0.27657759239E+01  0.00000000000E+00 0. -1.
</event>
<event>
 5    1  0.3005426E+001  0.1599677E+01  0.7818608E-02  0.3353714E+00
         11   -1    0    0    0    0  0.00000000000E+00  0.00000000000E+00  0.39999999674E+01  0.40000000000E+01  0.51100000000E-03 0.  1.
    9000002   -1    0    0    0    0 -0.00000000000E+00 -0.00000000000E+00  0.00000000000E+00  0.93800000000E+00  0.93800000000E+00 0.  1.
         11    1    1    2    0    0 -0.21890613969E+00 -0.74192756651E-02  0.13168591926E+01  0.13349506874E+01  0.51100000000E-03 0.  1.
    9000002    1    1    2    0    0  0.61937713474E+00  0.21853917235E-01  0.26915099399E+00  0.11560241720E+01  0.93800000000E+00 0.  1.
         22    1    1    2    0    0 -0.40047099505E+00 -0.14434641570E-01  0.24139897808E+01  0.24470251406E+01  0.00000000000E+00 0.  1.
</event>
<event>
 5    1  0.3005426E+001  0.1589125E+01  0.7818608E-02  0.3365252E+00
         11   -1    0    0    0    0  0.00000000000E+00  0.00000000000E+00  0.39999999674E+01  0.40000000000E+01  0.51100000000E-03 0. -1.
    9000002   -1    0    0    0    0 -0.00000000000E+00 -0.00000000000E+00  0.00000000000E+00  0.93800000000E+00  0.93800000000E+00 0.  1.
         11    1    1    2    0    0  0.67925131730E-01 -0.14592227791E+00  0.54395787980E+00  0.56727204305E+00  0.51100000000E-03 0. -1.
    9000002    1    1    2    0    0 -0.29807448996E+00  0.42927458306E+00  0.19746798158E+00  0.10917704305E+01  0.93800000000E+00 0.  1.
         22    1    1    2    0    0  0.23014935823E+00 -0.28335230516E+00  0.32585741060E+01  0.32789575264E+01  0.00000000000E+00 0. -1.
</event>
<event>
 5    1  0.3005426E+001  0.1562430E+01  0.7818608E-02  0.3395178E+00
         11   -1    0    0    0    0  0.00000000000E+00  0.00000000000E+00  0.39999999674E+01  0.40000000000E+01  0.51100000000E-03 0. -1.
    9000002   -1    0    0    0    0 -0.00000000000E+00 -0.00000000000E+00  0.00000000000E+00  0.93800000000E+00  0.93800000000E+00 0.  1.
         11    1    1    2    0    0  0.22300060817E+00  0.94920333091E-01  0.14651166699E+01  0.14850273595E+01  0.51100000000E-03 0. -1.
    9000002    1    1    2    0    0 -0.12259266330E+00  0.11438947986E+00  0.46730423361E-01  0.95401344155E+00  0.93800000000E+00 0.  1.
         22    1    1    2    0    0 -0.10040794487E+00 -0.20930981295E+00  0.24881528741E+01  0.24989591990E+01  0.00000000000E+00 0. -1.
</event>
<event>
 5    1  0.3005426E+001  0.1472755E+01  0.7818608E-02  0.3504216E+00
         11   -1    0    0    0    0  0.00000000000E+00  0.00000000000E+00  0.39999999674E+01  0.40000000000E+01  0.51100000000E-03 0. -1.
    9000002   -1    0    0    0    0 -0.00000000000E+00 -0.00000000000E+00  0.00000000000E+00  0.93800000000E+00  0.93800000000E+00 0.  1.
         11    1    1    2    0    0 -0.14078968692E-01  0.16006769354E+00  0.12817206705E+00  0.20554372714E+00  0.51100000000E-03 0. -1.
    9000002    1    1    2    0    0 -0.55665302163E-01  0.30287388240E+00  0.17078390292E+00  0.10019193361E+01  0.93800000000E+00 0.  1.
         22    1    1    2    0    0  0.69744270855E-01 -0.46294157594E+00  0.37010439974E+01  0.37305369368E+01  0.00000000000E+00 0. -1.
</event>
<event>
 5    1  0.3005426E+001  0.1598741E+01  0.7818608E-02  0.3354731E+00
         11   -1    0    0    0    0  0.00000000000E+00  0.00000000000E+00  0.39999999674E+01  0.40000000000E+01  0.51100000000E-03 0. -1.
    9000002   -1    0    0    0    0 -0.00000000000E+00 -0.00000000000E+00  0.00000000000E+00  0.93800000000E+00  0.93800000000E+00 0. -1.
         11    1    1    2    0    0  0.10263784645E+00 -0.94959607047E-01  0.81400353301E+00  0.82592606652E+00  0.51100000000E-03 0. -1.
    9000002    1    1    2    0    0 -0.41956303841E+00  0.31551759380E+00  0.19033355474E+00  0.10916296795E+01  0.93800000000E+00 0. -1.
         22    1    1    2    0    0  0.31692519196E+00 -0.22055798675E+00  0.29956628796E+01  0.30204442539E+01  0.00000000000E+00 0. -1.
</event>
<event>
 5    1  0.3005426E+001  0.1579809E+01  0.7818608E-02  0.3375573E+00
         11   -1    0    0    0    0  0.00000000000E+00  0.00000000000E+00  0.39999999674E+01  0.40000000000E+01  0.51100000000E-03 0. -1.
    9000002   -1    0    0    0    0 -0.00000000000E+00 -0.00000000000E+00  0.00000000000E+00  0.93800000000E+00  0.93800000000E+00 0. -1.
         11    1    1    2    0    0 -0.93859645467E-02  0.18228749272E+00  0.12913855409E+01  0.13042214929E+01  0.51100000000E-03 0. -1.
    9000002    1    1    2    0    0  0.25303194270E+00 -0.12478925650E+00  0.68587704814E-01  0.98190926048E+00  0.93800000000E+00 0. -1.
         22    1    1    2    0    0 -0.24364597816E+00 -0.57498236220E-01  0.26400267217E+01  0.26518692466E+01  0.00000000000E+00 0. -1.
</event>
<event>
 5    1  0.3005426E+001  0.1599677E+01  0.7818608E-02  0.3353714E+00
         11   -1    0    0    0    0  0.00000000000E+00  0.00000000000E+00  0.39999999674E+01  0.40000000000E+01  0.51100000000E-03 0. -1.
    9000002   -1    0    0    0    0 -0.00000000000E+00 -0.00000000000E+00  0.00000000000E+00  0.93800000000E+00  0.93800000000E+00 0.  1.
         11    1    1    2    0    0 -0.10103949682E+00  0.71555750439E-01  0.13596073109E+01  0.13652331326E+01  0.51100000000E-03 0. -1.
    9000002    1    1    2    0    0  0.29150427709E+00 -0.20806383511E+00  0.86081834062E-01  0.10077298176E+01  0.93800000000E+00 0.  1.
         22    1    1    2    0    0 -0.19046478027E+00  0.13650808467E+00  0.25543108224E+01  0.25650370498E+01  0.00000000000E+00 0. -1.
</event>
<event>
 5    1  0.3005426E+001  0.1599128E+01  0.7818608E-02  0.3354310E+00
         11   -1    0    0    0    0  0.00000000000E+00  0.00000000000E+00  0.39999999674E+01  0.40000000000E+01  0.51100000000E-03 0.  1.
    9000002   -1    0    0    0    0 -0.00000000000E+00 -0.00000000000E+00  0.00000000000E+00  0.93800000000E+00  0.93800000000E+00 0. -1.
         11    1    1    2    0    0  0.98441096610E-01 -0.19509480894E-01  0.77267661011E+00  0.77916665373E+00  0.51100000000E-03 0.  1.
    9000002    1    1    2    0    0 -0.38401155157E+00  0.12049109476E+00  0.10975310712E+00  0.10265830313E+01  0.93800000000E+00 0. -1.
         22    1    1    2    0    0  0.28557045495E+00 -0.10098161386E+00  0.31175702501E+01  0.31322503150E+01  0.00000000000E+00 0.  1.
</event>
<event>
 5    1  0.3005426E+001  0.1588340E+01  0.7818608E-02  0.3366117E+00
         11   -1    0    0    0    0  0.00000000000E+00  0.00000000000E+00  0.39999999674E+01  0.40000000000E+01  0.51100000000E-03 0.  1.
    9000002   -1    0    0    0    0 -0.00000000000E+00 -0.00000000000E+00  0.00000000000E+00  0.93800000000E+00  0.93800000000E+00 0. -1.
         11    1    1    2    0    0 -0.56799724740E-01 -0.41099304739E-01  0.62097814690E+00  0.62492358063E+00  0.51100000000E-03 0.  1.
    9000002    1    1    2    0    0  0.93733228733E-01 -0.26825491363E+00  0.62644536011E-01  0.98209722265E+00  0.93800000000E+00 0. -1.
         22    1    1    2    0    0 -0.36933503993E-01  0.30935421836E+00  0.33163772845E+01  0.33309791967E+01  0.00000000000E+00 0.  1.
</event>
<event>
 5    1  0.3005426E+001  0.1507546E+01  0.7818608E-02  0.3460258E+00
         11   -1    0    0    0    0  0.00000000000E+00  0.00000000000E+00  0.39999999674E+01  0.40000000000E+01  0.51100000000E-03 0.  1.
    9000002   -1    0    0    0    0 -0.00000000000E+00 -0.00000000000E+00  0.00000000000E+00  0.93800000000E+00  0.93800000000E+00 0. -1.
         11    1    1    2    0    0  0.19168434863E-01 -0.22837878017E+00  0.47915508709E+00  0.53114419392E+00  0.51100000000E-03 0.  1.
    9000002    1    1    2    0    0  0.88380995277E+00  0.10524940133E+00  0.76088964463E+00  0.15003314702E+01  0.93800000000E+00 0. -1.
         22    1    1    2    0    0 -0.90297838763E+00  0.12312937885E+00  0.27599552356E+01  0.29065243359E+01  0.00000000000E+00 0.  1.
</event>
<event>
 5    1  0.3005426E+001  0.1599677E+01  0.7818608E-02  0.3353714E+00
         11   -1    0    0    0    0  0.00000000000E+00  0.00000000000E+00  0.39999999674E+01  0.40000000000E+01  0.51100000000E-03 0.  1.
    9000002   -1    0    0    0    0 -0.00000000000E+00 -0.00000000000E+00  0.00000000000E+00  0.93800000000E+00  0.93800000000E+00 0.  1.
         11    1    1    2    0    0 -0.13676436202E+00 -0.20391542525E+00  0.14445047819E+01  0.14652236407E+01  0.51100000000E-03 0.  1.
    9000002    1    1    2    0    0  0.35231435214E+00  0.52371606849E+00  0.27989468201E+00  0.11647269878E+01  0.93800000000E+00 0.  1.
         22    1    1    2    0    0 -0.21554999012E+00 -0.31980064324E+00  0.22756005035E+01  0.23080493714E+01  0.00000000000E+00 0. -1.
</event>
<event>
 5    1  0.3005426E+001  0.1599629E+01  0.7818608E-02  0.3353766E+00
         11   -1    0    0    0    0  0.00000000000E+00  0.00000000000E+00  0.39999999674E+01  0.40000000000E+01  0.51100000000E-03 0.  1.
    9000002   -1    0    0    0    0 -0.00000000000E+00 -0.00000000000E+00  0.00000000000E+00  0.93800000000E+00  0.93800000000E+00 0.  1.
         11    1    1    2    0    0  0.93031175626E-02 -0.10124235237E+00  0.81267830110E+00  0.81901333573E+00  0.51100000000E-03 0.  1.
    9000002    1    1    2    0    0 -0.63385218896E-01  0.45439503156E+00  0.14319280795E+00  0.10539642835E+01  0.93800000000E+00 0.  1.
         22    1    1    2    0    0  0.54082101333E-01 -0.35315267919E+00  0.30441288583E+01  0.30650223807E+01  0.00000000000E+00 0.  1.
</event>
<event>
 5    1  0.3005426E+001  0.1599122E+01  0.7818608E-02  0.3354317E+00
         11   -1    0    0    0    0  0.00000000000E+00  0.00000000000E+00  0.39999999674E+01  0.40000000000E+01  0.51100000000E-03 0.  1.
    9000002   -1    0    0    0    0 -0.00000000000E+00 -0.00000000000E+00  0.00000000000E+00  0.93800000000E+00  0.93800000000E+00 0. -1.
         11    1    1    2    0    0  0.23550706554E-01 -0.67472801384E-02  0.15971052738E+00  0.16157931565E+00  0.51100000000E-03 0.  1.
    9000002    1    1    2    0    0 -0.30312171033E+00  0.20210450757E+00  0.89591147519E-01  0.10102472851E+01  0.93800000000E+00 0. -1.
         22    1    1    2    0    0  0.27957100378E+00 -0.19535722744E+00  0.37506982925E+01  0.37661733993E+01  0.00000000000E+00 0.  1.
</event>
<event>
 5    1  0.3005426E+001  0.1586319E+01  0.7818608E-02  0.3368348E+00
         11   -1    0    0    0    0  0.00000000000E+00  0.00000000000E+00  0.39999999674E+01  0.40000000000E+01  0.51100000000E-03 0.  1.
    9000002   -1    0    0    0    0 -0.00000000000E+00 -0.00000000000E+00  0.00000000000E+00  0.93800000000E+00  0.93800000000E+00 0. -1.
         11    1    1    2    0    0  0.84113548813E-01 -0.50971957836E-01  0.61209177193E+00  0.61994340707E+00  0.51100000000E-03 0.  1.
    9000002    1    1    2    0    0  0.10804438215E+00  0.36551831386E+00  0.10881676236E+00  0.10183134655E+01  0.93800000000E+00 0. -1.
         22    1    1    2    0    0 -0.19215793096E+00 -0.31454635603E+00  0.32790914331E+01  0.32997431274E+01  0.00000000000E+00 0.  1.
</event>
<event>
 5    1  0.3005426E+001  0.1599677E+01  0.7818608E-02  0.3353714E+00
         11   -1    0    0    0    0  0.00000000000E+00  0.00000000000E+00  0.39999999674E+01  0.40000000000E+01  0.51100000000E-03 0.  1.
    9000002   -1    0    0    0    0 -0.00000000000E+00 -0.00000000000E+00  0.00000000000E+00  0.93800000000E+00  0.93800000000E+00 0.  1.
         11    1    1    2    0    0 -0.14205568589E+00 -0.59241327800E-01  0.10397738347E+01  0.10511038204E+01  0.51100000000E-03 0.  1.
    9000002    1    1    2    0    0  0.51492660577E+00  0.21644261891E+00  0.21585123139E+00  0.11128488535E+01  0.93800000000E+00 0.  1.
         22    1    1    2    0    0 -0.37287091987E+00 -0.15720129111E+00  0.27443749013E+01  0.27740473262E+01  0.00000000000E+00 0.  1.
</event>
<event>
 5    1  0.3005426E+001  0.1599677E+01  0.7818608E-02  0.3353714E+00
         11   -1    0    0    0    0  0.00000000000E+00  0.00000000000E+00  0.39999999674E+01  0.40000000000E+01  0.51100000000E-03 0. -1.
    9000002   -1    0    0    0    0 -0.00000000000E+00 -0.00000000000E+00  0.00000000000E+00  0.93800000000E+00  0.93800000000E+00 0.  1.
         11    1    1    2    0    0  0.11125139631E+00  0.13279982474E+00  0.94541359409E+00  0.96115544613E+00  0.51100000000E-03 0.  1.
    9000002    1    1    2    0    0 -0.43271206255E+00 -0.51872021496E+00  0.32403099208E+00  0.12004792686E+01  0.93800000000E+00 0.  1.
         22    1    1    2    0    0  0.32146066624E+00  0.38592039022E+00  0.27305553812E+01  0.27763652853E+01  0.00000000000E+00 0. -1.
</event>
<event>
 5    1  0.3005426E+001  0.1590447E+01  0.7818608E-02  0.3363798E+00
         11   -1    0    0    0    0  0.00000000000E+00  0.00000000000E+00  0.39999999674E+01  0.40000000000E+01  0.51100000000E-03 0.  1.
    9000002   -1    0    0    0    0 -0.00000000000E+00 -0.00000000000E+00  0.00000000000E+00  0.93800000000E+00  0.93800000000E+00 0.  1.
         11    1    1    2    0    0 -0.46784009755E-01  0.42210572135E-01  0.75712308398E+00  0.75974081198E+00  0.51100000000E-03 0.  1.
    9000002    1    1    2    0    0  0.20936484294E+00  0.25291385891E+00  0.79487703767E-01  0.99697610430E+00  0.93800000000E+00 0.  1.
         22    1    1    2    0    0 -0.16258083318E+00 -0.29512443104E+00  0.31633891796E+01  0.31812830837E+01  0.00000000000E+00 0.  1.
</event>
<event>
 5    1  0.3407480E+001  0.1573912E+01  0.7818608E-02  0.3382175E+00
         11   -1    0    0    0    0  0.00000000000E+00  0.00000000000E+00  0.39999999674E+01  0.40000000000E+01  0.51100000000E-03 0.  1.
    9000002   -1    0    0    0    0 -0.00000000000E+00 -0.00000000000E+00  0.00000000000E+00  0.93800000000E+00  0.93800000000E+00 0.  1.
         11    1    1    2    0    0  0.82181538604E-01  0.11325415448E+00  0.99478441956E+00  0.10045778274E+01  0.51100000000E-03 0.  1.
    9000002    1    1    2    0    0 -0.45388309373E-01  0.15374457804E+00  0.36293304958E-01  0.95229128836E+00  0.93800000000E+00 0.  1.
         22    1    1    2    0    0 -0.36793229231E-01 -0.26699873252E+00  0.29689222428E+01  0.29811308842E+01  0.00000000000E+00 0.  1.
</event>
<event>
 5    1  0.3005426E+001  0.1599667E+01  0.7818608E-02  0.3353724E+00
         11   -1    0    0    0    0  0.00000000000E+00  0.00000000000E+00  0.39999999674E+01  0.40000000000E+01  0.51100000000E-03 0.  1.
    9000002   -1    0    0    0    0 -0.00000000000E+00 -0.00000000000E+00  0.00000000000E+00  0.93800000000E+00  0.93800000000E+00 0.  1.
         11    1    1    2    0    0  0.16661460255E+00 -0.21500523866E+00  0.14327197992E+01  0.14583120251E+01  0.51100000000E-03 0.  1.
    9000002    1    1    2    0    0 -0.43374346333E+00  0.54891817747E+00  0.34976697158E+00  0.12213212075E+01  0.93800000000E+00 0.  1.
         22    1    1    2    0    0  0.26712886078E+00 -0.33391293881E+00  0.22175131966E+01  0.22583667674E+01  0.00000000000E+00 0.  1.
</event>
<event>
 5    1  0.3005426E+001  0.1599666E+01  0.7818608E-02  0.3353726E+00
         11   -1    0    0    0    0  0.00000000000E+00  0.00000000000E+00  0.39999999674E+01  0.40000000000E+01  0.51100000000E-03 0. -1.
    9000002   -1    0    0    0    0 -0.00000000000E+00 -0.00000000000E+00  0.00000000000E+00  0.93800000000E+00  0.93800000000E+00 0. -1.
         11    1    1    2    0    0  0.10836931393E+00  0.77870228901E-01  0.14105654053E+01  0.14168636860E+01  0.51100000000E-03 0. -1.
    9000002    1    1    2    0    0 -0.31067731917E+00 -0.21604411861E+00  0.96338448435E-01  0.10160317684E+01  0.93800000000E+00 0. -1.
         22    1    1    2    0    0  0.20230800523E+00  0.13817388971E+00  0.24930961136E+01  0.25051045456E+01  0.00000000000E+00 0. -1.
</event>
<event>
 5    1  0.3005426E+001  0.1587590E+01  0.7818608E-02  0.3366943E+00
         11   -1    0    0    0    0  0.00000000000E+00  0.00000000000E+00  0.39999999674E+01  0.40000000000E+01  0.51100000000E-03 0.  1.
    9000002   -1    0    0    0    0 -0.00000000000E+00 -0.00000000000E+00  0.00000000000E+00  0.93800000000E+00  0.93800000000E+00 0. -1.
         11    1    1    2    0    0  0.65306047723E-02 -0.53285707374E-01  0.36585700256E+00  0.36977509767E+00  0.51100000000E-03 0.  1.
    9000002    1    1    2    0    0 -0.23552080387E+00 -0.23718369294E+00  0.84491030501E-01  0.99935423524E+00  0.93800000000E+00 0. -1.
         22    1    1    2    0    0  0.22899019909E+00  0.29046940032E+00  0.35496519343E+01  0.35688706671E+01  0.00000000000E+00 0.  1.
</event>
<event>
 5    1  0.3005426E+001  0.1599676E+01  0.7818608E-02  0.3353715E+00
         11   -1    0    0    0    0  0.00000000000E+00  0.00000000000E+00  0.39999999674E+01  0.40000000000E+01  0.51100000000E-03 0. -1.
    9000002   -1    0    0    0    0 -0.00000000000E+00 -0.00000000000E+00  0.00000000000E+00  0.93800000000E+00  0.93800000000E+00 0.  1.
         11    1    1    2    0    0  0.17382545990E-01  0.94347047529E-02  0.21459770626E+00  0.21550777993E+00  0.51100000000E-03 0.  1.
    9000002    1    1    2    0    0 -0.30950870491E+00 -0.17322046998E+00  0.84395814451E-01  0.10063635641E+01  0.93800000000E+00 0.  1.
         22    1    1    2    0    0  0.29212615892E+00  0.16378576522E+00  0.37010064466E+01  0.37161286560E+01  0.00000000000E+00 0. -1.
</event>
<event>
 5    1  0.3005426E+001  0.1578071E+01  0.7818608E-02  0.3377513E+00
         11   -1    0    0    0    0  0.00000000000E+00  0.00000000000E+00  0.39999999674E+01  0.40000000000E+01  0.51100000000E-03 0.  1.
    9000002   -1    0    0    0    0 -0.00000000000E+00 -0.00000000000E+00  0.00000000000E+00  0.93800000000E+00  0.93800000000E+00 0.  1.
         11    1    1    2    0    0  0.15066330551E-01  0.75848205169E-01  0.14487835690E+01  0.14508459724E+01  0.51100000000E-03 0.  1.
    9000002    1    1    2    0    0 -0.40238134641E+00  0.78242167147E-01  0.13181985357E+00  0.10321109720E+01  0.93800000000E+00 0.  1.
         22    1    1    2    0    0  0.38731501586E+00 -0.15409037232E+00  0.24193965448E+01  0.24550430557E+01  0.00000000000E+00 0.  1.
</event>
<event>
 5    1  0.3005426E+001  0.1598736E+01  0.7818608E-02  0.3354736E+00
         11   -1    0    0    0    0  0.00000000000E+00  0.00000000000E+00  0.39999999674E+01  0.40000000000E+01  0.51100000000E-03 0.  1.
    9000002   -1    0    0    0    0 -0.00000000000E+00 -0.00000000000E+00  0.00000000000E+00  0.93800000000E+00  0.93800000000E+00 0.  1.
         11    1    1    2    0    0  0.46844977030E-01  0.15571152750E+00  0.14572682970E+01  0.14663122731E+01  0.51100000000E-03 0.  1.
    9000002    1    1    2    0    0 -0.43464826820E-01 -0.46181091953E+00  0.14725859221E+00  0.10567344082E+01  0.93800000000E+00 0.  1.
         22    1    1    2    0    0 -0.33801502103E-02  0.30609939202E+00  0.23954730781E+01  0.24149533186E+01  0.00000000000E+00 0.  1.
</event>
<event>
 5    1  0.3005426E+001  0.1599676E+01  0.7818608E-02  0.3353715E+00
         11   -1    0    0    0    0  0.00000000000E+00  0.00000000000E+00  0.39999999674E+01  0.40000000000E+01  0.51100000000E-03 0. -1.
    9000002   -1    0    0    0    0 -0.00000000000E+00 -0.00000000000E+00  0.00000000000E+00  0.93800000000E+00  0.93800000000E+00 0.  1.
         11    1    1    2    0    0 -0.22277738405E+00 -0.51217511573E-01  0.70916486693E+00  0.74509601123E+00  0.51100000000E-03 0.  1.
    9000002    1    1    2    0    0  0.98909309795E+00  0.22709347439E+00  0.83574284856E+00  0.16149881459E+01  0.93800000000E+00 0.  1.
         22    1    1    2    0    0 -0.76631571391E+00 -0.17587596281E+00  0.24550922519E+01  0.25779158429E+01  0.00000000000E+00 0. -1.
</event>
<event>
 5    1  0.3005426E+001  0.1599677E+01  0.7818608E-02  0.3353715E+00
         11   -1    0    0    0    0  0.00000000000E+00  0.00000000000E+00  0.39999999674E+01  0.40000000000E+01  0.51100000000E-03 0.  1.
    9000002   -1    0    0    0    0 -0.00000000000E+00 -0.00000000000E+00  0.00000000000E+00  0.93800000000E+00  0.93800000000E+00 0.  1.
         11    1    1    2    0    0 -0.21558366733E-01  0.23426201313E-01  0.35245525036E+00  0.35389054058E+00  0.51100000000E-03 0.  1.
    9000002    1    1    2    0    0  0.24015451482E+00 -0.26263614201E+00  0.84977451444E-01  0.10068351907E+01  0.93800000000E+00 0.  1.
         22    1    1    2    0    0 -0.21859614808E+00  0.23920994070E+00  0.35625672656E+01  0.35772742687E+01  0.00000000000E+00 0.  1.
</event>
<event>
 5    1  0.3005426E+001  0.1591604E+01  0.7818608E-02  0.3362527E+00
         11   -1    0    0    0    0  0.00000000000E+00  0.00000000000E+00  0.39999999674E+01  0.40000000000E+01  0.51100000000E-03 0. -1.
    9000002   -1    0    0    0    0 -0.00000000000E+00 -0.00000000000E+00  0.00000000000E+00  0.93800000000E+00  0.93800000000E+00 0. -1.
         11    1    1    2    0    0  0.91247338506E-01  0.55038406993E-01  0.12101655684E+01  0.12148482486E+01  0.51100000000E-03 0. -1.
    9000002    1    1    2    0    0  0.35372241358E-03 -0.30934866991E+00  0.70274269742E-01  0.99019149546E+00  0.93800000000E+00 0. -1.
         22    1    1    2    0    0 -0.91601060919E-01  0.25431026292E+00  0.27195601292E+01  0.27329602559E+01  0.00000000000E+00 0. -1.
</event>
<event>
 5    1  0.3005426E+001  0.1599513E+01  0.7818608E-02  0.3353892E+00
         11   -1    0    0    0    0  0.00000000000E+00  0.00000000000E+00  0.39999999674E+01  0.40000000000E+01  0.51100000000E-03 0. -1.
    9000002   -1    0    0    0    0 -0.00000000000E+00 -0.00000000000E+00  0.00000000000E+00  0.93800000000E+00  0.93800000000E+00 0. -1.
         11    1    1    2    0    0  0.68382940440E-03  0.35729341192E-01  0.15118480533E+00  0.15535172972E+00  0.51100000000E-03 0. -1.
    9000002    1    1    2    0    0  0.67186935374E-01 -0.73016365326E+00  0.38802622166E+00  0.12522225815E+01  0.93800000000E+00 0. -1.
         22    1    1    2    0    0 -0.67870764778E-01  0.69443431206E+00  0.34607889404E+01  0.35304256888E+01  0.00000000000E+00 0. -1.
</event>
<event>
 5    1  0.3005426E+001  0.1599216E+01  0.7818608E-02  0.3354215E+00
         11   -1    0    0    0    0  0.00000000000E+00  0.00000000000E+00  0.39999999674E+01  0.40000000000E+01  0.51100000000E-03 0.  1.
    9000002   -1    0    0    0    0 -0.00000000000E+00 -0.00000000000E+00  0.00000000000E+00  0.93800000000E+00  0.93800000000E+00 0. -1.
         11    1    1    2    0    0 -0.17561644930E-01 -0.18524247796E-01  0.44621802529E+00  0.44694781166E+00  0.51100000000E-03 0.  1.
    9000002    1    1    2    0    0  0.24084792465E+00  0.27744723384E+00  0.91062804301E-01  0.10114945006E+01  0.93800000000E+00 0. -1.
         22    1    1    2    0    0 -0.22328627972E+00 -0.25892298605E+00  0.34627191378E+01  0.34795576878E+01  0.00000000000E+00 0.  1.
</event>
<event>
 5    1  0.3005426E+001  0.1578563E+01  0.7818608E-02  0.3376965E+00
         11   -1    0    0    0    0  0.00000000000E+00  0.00000000000E+00  0.39999999674E+01  0.40000000000E+01  0.51100000000E-03 0. -1.
    9000002   -1    0    0    0    0 -0.00000000000E+00 -0.00000000000E+00  0.00000000000E+00  0.93800000000E+00  0.93800000000E+00 0. -1.
         11    1    1    2    0    0  0.33605099452E-01 -0.94948946400E-01  0.68538597154E+00  0.69274728165E+00  0.51100000000E-03 0. -1.
    9000002    1    1    2    0    0 -0.53288425465E-01 -0.20309388985E+00  0.45255272309E-01  0.96227793493E+00  0.93800000000E+00 0. -1.
         22    1    1    2    0    0  0.19683326012E-01  0.29804283625E+00  0.32693587235E+01  0.32829747834E+01  0.00000000000E+00 0. -1.
</event>
<event>
 5    1  0.3005426E+001  0.1599667E+01  0.7818608E-02  0.3353725E+00
         11   -1    0    0    0    0  0.00000000000E+00  0.00000000000E+00  0.39999999674E+01  0.40000000000E+01  0.51100000000E-03 0. -1.
    9000002   -1    0    0    0    0 -0.00000000000E+00 -0.00000000000E+00  0.00000000000E+00  0.93800000000E+00  0.93800000000E+00 0.  1.
         11    1    1    2    0    0  0.24771978094E-01 -0.56381392849E-01  0.64232390860E+00  0.64526953828E+00  0.51100000000E-03 0. -1.
    9000002    1    1    2    0    0 -0.13392861535E+00  0.33885363921E+00  0.89168916557E-01  0.10102246079E+01  0.93800000000E+00 0.  1.
         22    1    1    2    0    0  0.10915663725E+00 -0.28247224636E+00  0.32685071422E+01  0.32825058538E+01  0.00000000000E+00 0. -1.
</event>
<event>
 5    1  0.3005426E+001  0.1584009E+01  0.7818608E-02  0.3370904E+00
         11   -1    0    0    0    0  0.00000000000E+00  0.00000000000E+00  0.39999999674E+01  0.40000000000E+01  0.51100000000E-03 0.  1.
    9000002   -1    0    0    0    0 -0.00000000000E+00 -0.00000000000E+00  0.00000000000E+00  0.93800000000E+00  0.93800000000E+00 0.  1.
         11    1    1    2    0    0  0.27072916207E-02 -0.61293517396E-01  0.87884826856E+00  0.88098738072E+00  0.51100000000E-03 0.  1.
    9000002    1    1    2    0    0 -0.27195531256E+00 -0.22277992253E+00  0.95619830139E-01  0.10062692174E+01  0.93800000000E+00 0.  1.
         22    1    1    2    0    0  0.26924802094E+00  0.28407343993E+00  0.30255318687E+01  0.30507434019E+01  0.00000000000E+00 0.  1.
</event>
<event>
 5    1  0.3005426E+001  0.1576623E+01  0.7818608E-02  0.3379134E+00
         11   -1    0    0    0    0  0.00000000000E+00  0.00000000000E+00  0.39999999674E+01  0.40000000000E+01  0.51100000000E-03 0.  1.
    9000002   -1    0    0    0    0 -0.00000000000E+00 -0.00000000000E+00  0.00000000000E+00  0.93800000000E+00  0.93800000000E+00 0.  1.
         11    1    1    2    0    0  0.28433815389E-01  0.91816017205E-01  0.12561636930E+01  0.12598357621E+01  0.51100000000E-03 0.  1.
    9000002    1    1    2    0    0 -0.43998322693E-01  0.24437185433E+00  0.58767323032E-01  0.97208592925E+00  0.93800000000E+00 0.  1.
         22    1    1    2    0    0  0.15564507304E-01 -0.33618787154E+00  0.26850689514E+01  0.27060783086E+01  0.00000000000E+00 0.  1.
</event>
<event>
 5    1  0.3005426E+001  0.1599658E+01  0.7818608E-02  0.3353735E+00
         11   -1    0    0    0    0  0.00000000000E+00  0.00000000000E+00  0.39999999674E+01  0.40000000000E+01  0.51100000000E-03 0. -1.
    9000002   -1    0    0    0    0 -0.00000000000E+00 -0.00000000000E+00  0.00000000000E+00  0.93800000000E+00  0.93800000000E+00 0. -1.
         11    1    1    2    0    0  0.10351864303E+00  0.12648422072E+00  0.11649723053E+01  0.11763822087E+01  0.51100000000E-03 0. -1.
    9000002    1    1    2    0    0 -0.34453600180E+00 -0.39878647453E+00  0.19103734898E+00  0.10927373781E+01  0.93800000000E+00 0. -1.
         22    1    1    2    0    0  0.24101735876E+00  0.27230225381E+00  0.26439903130E+01  0.26688804132E+01  0.00000000000E+00 0. -1.
</event>
<event>
 5    1  0.3005426E+001  0.1599669E+01  0.7818608E-02  0.3353723E+00
         11   -1    0    0    0    0  0.00000000000E+00  0.00000000000E+00  0.39999999674E+01  0.40000000000E+01  0.51100000000E-03 0. -1.
    9000002   -1    0    0    0    0 -0.00000000000E+00 -0.00000000000E+00  0.00000000000E+00  0.93800000000E+00  0.93800000000E+00 0. -1.
         11    1    1    2    0    0 -0.65354774711E-01  0.11297669997E+00  0.13534732201E+01  0.13597518155E+01  0.51100000000E-03 0. -1.
    9000002    1    1    2    0    0  0.18051962304E+00 -0.32181769361E+00  0.91496346821E-01  0.10121114285E+01  0.93800000000E+00 0. -1.
         22    1    1    2    0    0 -0.11516484833E+00  0.20884099364E+00  0.25550304005E+01  0.25661367560E+01  0.00000000000E+00 0. -1.
</event>
<event>
 5    1  0.3005426E+001  0.1489865E+01  0.7818608E-02  0.3482321E+00
         11   -1    0    0    0    0  0.00000000000E+00  0.00000000000E+00  0.39999999674E+01  0.40000000000E+01  0.51100000000E-03 0. -1.
    9000002   -1    0    0    0    0 -0.00000000000E+00 -0.00000000000E+00  0.00000000000E+00  0.93800000000E+00  0.93800000000E+00 0. -1.
         11    1    1    2    0    0 -0.13370948191E+00  0.16452923482E+00  0.16853609214E+00  0.27083716536E+00  0.51100000000E-03 0. -1.
    9000002    1    1    2    0    0  0.53624833725E+00 -0.12529157835E+00  0.32185374191E+00  0.11343253898E+01  0.93800000000E+00 0. -1.
         22    1    1    2    0    0 -0.40253885534E+00 -0.39237656467E-01  0.35096101333E+01  0.35328374448E+01  0.00000000000E+00 0. -1.
</event>
<event>
 5    1  0.3005426E+001  0.1599375E+01  0.7818608E-02  0.3354042E+00
         11   -1    0    0    0    0  0.00000000000E+00  0.00000000000E+00  0.39999999674E+01  0.40000000000E+01  0.51100000000E-03 0. -1.
    9000002   -1    0    0    0    0 -0.00000000000E+00 -0.00000000000E+00  0.00000000000E+00  0.93800000000E+00  0.93800000000E+00 0. -1.
         11    1    1    2    0    0  0.50547031696E-01  0.71430791730E-01  0.67437817086E+00  0.68003201312E+00  0.51100000000E-03 0. -1.
    9000002    1    1    2    0    0 -0.28787802067E+00 -0.31896556018E+00  0.12527756336E+00  0.10393032528E+01  0.93800000000E+00 0. -1.
         22    1    1    2    0    0  0.23733098897E+00  0.24753476845E+00  0.32003442331E+01  0.32186647341E+01  0.00000000000E+00 0. -1.
</event>
<event>
 5    1  0.3005426E+001  0.1573270E+01  0.7818608E-02  0.3382896E+00
         11   -1    0    0    0    0  0.00000000000E+00  0.00000000000E+00  0.39999999674E+01  0.40000000000E+01  0.51100000000E-03 0. -1.
    9000002   -1    0    0    0    0 -0.00000000000E+00 -0.00000000000E+00  0.00000000000E+00  0.93800000000E+00  0.93800000000E+00 0.  1.
         11    1    1    2    0    0  0.10401719320E-01 -0.13282723265E+00  0.12933288920E+01  0.13001735090E+01  0.51100000000E-03 0. -1.
    9000002    1    1    2    0    0 -0.42814963769E+00  0.14345408354E-01  0.14704008796E+00  0.10416250239E+01  0.93800000000E+00 0.  1.
         22    1    1    2    0    0  0.41774791837E+00  0.11848182430E+00  0.25596309874E+01  0.25962014670E+01  0.00000000000E+00 0. -1.
</event>
<event>
 5    1  0.3005426E+001  0.1508879E+01  0.7818608E-02  0.3458617E+00
         11   -1    0    0    0    0  0.00000000000E+00  0.00000000000E+00  0.39999999674E+01  0.40000000000E+01  0.51100000000E-03 0. -1.
    9000002   -1    0    0    0    0 -0.00000000000E+00 -0.00000000000E+00  0.00000000000E+00  0.93800000000E+00  0.93800000000E+00 0. -1.
         11    1    1    2    0    0  0.26241009323E+00 -0.21732996088E-01  0.11137250270E+01  0.11444278382E+01  0.51100000000E-03 0. -1.
    9000002    1    1    2    0    0  0.18583554930E+00 -0.23669159906E+00  0.13527006167E+00  0.99433382424E+00  0.93800000000E+00 0. -1.
         22    1    1    2    0    0 -0.44824564253E+00  0.25842459515E+00  0.27510048787E+01  0.27992383375E+01  0.00000000000E+00 0. -1.
</event>
<event>
 5    1  0.3005426E+001  0.1599457E+01  0.7818608E-02  0.3353953E+00
         11   -1    0    0    0    0  0.00000000000E+00  0.00000000000E+00  0.39999999674E+01  0.40000000000E+01  0.51100000000E-03 0. -1.
    9000002   -1    0    0    0    0 -0.00000000000E+00 -0.00000000000E+00  0.00000000000E+00  0.93800000000E+00  0.93800000000E+00 0. -1.
         11    1    1    2    0    0  0.74924688786E-01 -0.59579479704E-01  0.80597875542E+00  0.81164366486E+00  0.51100000000E-03 0. -1.
    9000002    1    1    2    0    0 -0.38917842790E+00  0.34229888285E+00  0.18467132118E+00  0.10874630434E+01  0.93800000000E+00 0. -1.
         22    1    1    2    0    0  0.31425373911E+00 -0.28271940315E+00  0.30093498908E+01  0.30388932917E+01  0.00000000000E+00 0. -1.
</event>
<event>
 5    1  0.3005426E+001  0.1599676E+01  0.7818608E-02  0.3353715E+00
         11   -1    0    0    0    0  0.00000000000E+00  0.00000000000E+00  0.39999999674E+01  0.40000000000E+01  0.51100000000E-03 0. -1.
    9000002   -1    0    0    0    0 -0.00000000000E+00 -0.00000000000E+00  0.00000000000E+00  0.93800000000E+00  0.93800000000E+00 0.  1.
         11    1    1    2    0    0 -0.73778650096E-02 -0.14123858965E+00  0.14043528380E+01  0.14114566684E+01  0.51100000000E-03 0. -1.
    9000002    1    1    2    0    0  0.23711960491E-01  0.39088485439E+00  0.10333067340E+00  0.10217017444E+01  0.93800000000E+00 0.  1.
         22    1    1    2    0    0 -0.16334095481E-01 -0.24964626474E+00  0.24923164559E+01  0.25048415872E+01  0.00000000000E+00 0. -1.
</event>
<event>
 5    1  0.3005426E+001  0.1599674E+01  0.7818608E-02  0.3353717E+00
         11   -1    0    0    0    0  0.00000000000E+00  0.00000000000E+00  0.39999999674E+01  0.40000000000E+01  0.51100000000E-03 0.  1.
    9000002   -1    0    0    0    0 -0.00000000000E+00 -0.00000000000E+00  0.00000000000E+00  0.93800000000E+00  0.93800000000E+00 0.  1.
         11    1    1    2    0    0  0.84709692750E-02  0.39262603174E-02  0.70378022148E-01  0.70996478525E-01  0.51100000000E-03 0. -1.
    9000002    1    1    2    0    0 -0.46893771171E+00 -0.22369247217E+00  0.18541534973E+00  0.10881928834E+01  0.93800000000E+00 0.  1.
         22    1    1    2    0    0  0.46046674243E+00  0.21976621185E+00  0.37442065955E+01  0.37788106381E+01  0.00000000000E+00 0.  1.
</event>
<event>
 5    1  0.3005426E+001  0.1586201E+01  0.7818608E-02  0.3368478E+00
         11   -1    0    0    0    0  0.00000000000E+00  0.00000000000E+00  0.39999999674E+01  0.40000000000E+01  0.51100000000E-03 0. -1.
    9000002   -1    0    0    0    0 -0.00000000000E+00 -0.00000000000E+00  0.00000000000E+00  0.93800000000E+00  0.93800000000E+00 0. -1.
         11    1    1    2    0    0 -0.93320366425E-01 -0.25421832627E+00  0.87528500858E+00  0.91622036409E+00  0.51100000000E-03 0. -1.
    9000002    1    1    2    0    0  0.84254499447E-01  0.65994681423E+00  0.32810700790E+00  0.11958791021E+01  0.93800000000E+00 0. -1.
         22    1    1    2    0    0  0.90658669784E-02 -0.40572848796E+00  0.27966079509E+01  0.28259005338E+01  0.00000000000E+00 0. -1.
</event>
<event>
 5    1  0.3005426E+001  0.1524639E+01  0.7818608E-02  0.3439451E+00
         11   -1    0    0    0    0  0.00000000000E+00  0.00000000000E+00  0.39999999674E+01  0.40000000000E+01  0.51100000000E-03 0. -1.
    9000002   -1    0    0    0    0 -0.00000000000E+00 -0.00000000000E+00  0.00000000000E+00  0.93800000000E+00  0.93800000000E+00 0. -1.
         11    1    1    2    0    0  0.96957925847E-01  0.65789251994E-01  0.13470934012E+00  0.17853832221E+00  0.51100000000E-03 0. -1.
    9000002    1    1    2    0    0  0.47965855507E+00 -0.15172388511E+00  0.24460173472E+00  0.10921384873E+01  0.93800000000E+00 0. -1.
         22    1    1    2    0    0 -0.57661648092E+00  0.85934633112E-01  0.36206888925E+01  0.36673231905E+01  0.00000000000E+00 0. -1.
</event>
<event>
 5    1  0.3005426E+001  0.1599671E+01  0.7818608E-02  0.3353720E+00
         11   -1    0    0    0    0  0.00000000000E+00  0.00000000000E+00  0.39999999674E+01  0.40000000000E+01  0.51100000000E-03 0. -1.
    9000002   -1    0    0    0    0 -0.00000000000E+00 -0.00000000000E+00  0.00000000000E+00  0.93800000000E+00  0.93800000000E+00 0. -1.
         11    1    1    2    0    0 -0.39453268826E-01  0.16216633141E-01  0.47881595875E+00  0.48071251605E+00  0.51100000000E-03 0. -1.
    9000002    1    1    2    0    0  0.33691748589E+00 -0.13504456400E+00  0.88473630049E-01  0.10096643055E+01  0.93800000000E+00 0. -1.
         22    1    1    2    0    0 -0.29746421707E+00  0.11882793086E+00  0.34327103786E+01  0.34476231785E+01  0.00000000000E+00 0. -1.
</event>
<event>
 5    1  0.3005426E+001  0.1599530E+01  0.7818608E-02  0.3353874E+00
         11   -1    0    0    0    0  0.00000000000E+00  0.00000000000E+00  0.39999999674E+01  0.40000000000E+01  0.51100000000E-03 0. -1.
    9000002   -1    0    0    0    0 -0.00000000000E+00 -0.00000000000E+00  0.00000000000E+00  0.93800000000E+00  0.93800000000E+00 0. -1.
         11    1    1    2    0    0  0.35633488696E-01 -0.92824409440E-01  0.81164352082E+00  0.81771118527E+00  0.51100000000E-03 0. -1.
    9000002    1    1    2    0    0 -0.11465899482E+00  0.45535455887E+00  0.15032948867E+00  0.10596874136E+01  0.93800000000E+00 0. -1.
         22    1    1    2    0    0  0.79025506120E-01 -0.36253014943E+00  0.30380269579E+01  0.30606014011E+01  0.00000000000E+00 0. -1.
</event>
<event>
 5    1  0.3005426E+001  0.1599534E+01  0.7818608E-02  0.3353869E+00
         11   -1    0    0    0    0  0.00000000000E+00  0.00000000000E+00  0.39999999674E+01  0.40000000000E+01  0.51100000000E-03 0.  1.
    9000002   -1    0    0    0    0 -0.00000000000E+00 -0.00000000000E+00  0.00000000000E+00  0.93800000000E+00  0.93800000000E+00 0.  1.
         11    1    1    2    0    0  0.79490861639E-01 -0.24697451974E-01  0.72484862586E+00  0.72961260458E+00  0.51100000000E-03 0.  1.
    9000002    1    1    2    0    0 -0.38666104013E+00  0.17814939857E+00  0.12279357695E+00  0.10373843216E+01  0.93800000000E+00 0.  1.
         22    1    1    2    0    0  0.30717017850E+00 -0.15345194660E+00  0.31523577645E+01  0.31710030738E+01  0.00000000000E+00 0.  1.
</event>
<event>
 5    1  0.3005426E+001  0.1595973E+01  0.7818608E-02  0.3357746E+00
         11   -1    0    0    0    0  0.00000000000E+00  0.00000000000E+00  0.39999999674E+01  0.40000000000E+01  0.51100000000E-03 0. -1.
    9000002   -1    0    0    0    0 -0.00000000000E+00 -0.00000000000E+00  0.00000000000E+00  0.93800000000E+00  0.93800000000E+00 0. -1.
         11    1    1    2    0    0  0.87332530541E-02 -0.43368891193E-01  0.37407748200E+00  0.37668468789E+00  0.51100000000E-03 0. -1.
    9000002    1    1    2    0    0  0.33978551753E+00  0.32522480123E+00  0.15397621142E+00  0.10605555351E+01  0.93800000000E+00 0. -1.
         22    1    1    2    0    0 -0.34851877058E+00 -0.28185591003E+00  0.34719462739E+01  0.35007597771E+01  0.00000000000E+00 0. -1.
</event>
<event>
 5    1  0.3005426E+001  0.1599675E+01  0.7818608E-02  0.3353716E+00
         11   -1    0    0    0    0  0.00000000000E+00  0.00000000000E+00  0.39999999674E+01  0.40000000000E+01  0.51100000000E-03 0. -1.
    9000002   -1    0    0    0    0 -0.00000000000E+00 -0.00000000000E+00  0.00000000000E+00  0.93800000000E+00  0.93800000000E+00 0.  1.
         11    1    1    2    0    0  0.18153316675E+00 -0.19842360021E-01  0.12216120862E+01  0.12351859618E+01  0.51100000000E-03 0. -1.
    9000002    1    1    2    0    0 -0.55783175705E+00  0.59653527741E-01  0.21785027489E+00  0.11144673862E+01  0.93800000000E+00 0.  1.
         22    1    1    2    0    0  0.37629859030E+00 -0.39811167720E-01  0.25605376062E+01  0.25883466520E+01  0.00000000000E+00 0. -1.
</event>
<event>
 5    1  0.3005426E+001  0.1599438E+01  0.7818608E-02  0.3353973E+00
         11   -1    0    0    0    0  0.00000000000E+00  0.00000000000E+00  0.39999999674E+01  0.40000000000E+01  0.51100000000E-03 0. -1.
    9000002   -1    0    0    0    0 -0.00000000000E+00 -0.00000000000E+00  0.00000000000E+00  0.93800000000E+00  0.93800000000E+00 0.  1.
         11    1    1    2    0    0 -0.35355000628E-01  0.32459359122E-01  0.40267537350E+00  0.40552595923E+00  0.51100000000E-03 0. -1.
    9000002    1    1    2    0    0  0.29490837865E+00 -0.21626743512E+00  0.90029167607E-01  0.10107877157E+01  0.93800000000E+00 0.  1.
         22    1    1    2    0    0 -0.25955337802E+00  0.18380807599E+00  0.35072954263E+01  0.35216863250E+01  0.00000000000E+00 0. -1.
</event>
<event>
 5    1  0.3005426E+001  0.1492670E+01  0.7818608E-02  0.3478782E+00
         11   -1    0    0    0    0  0.00000000000E+00  0.00000000000E+00  0.39999999674E+01  0.40000000000E+01  0.51100000000E-03 0. -1.
    9000002   -1    0    0    0    0 -0.00000000000E+00 -0.00000000000E+00  0.00000000000E+00  0.93800000000E+00  0.93800000000E+00 0. -1.
         11    1    1    2    0    0 -0.12504880475E+00  0.32561767320E+00  0.13803793173E+01  0.14237666218E+01  0.51100000000E-03 0. -1.
    9000002    1    1    2    0    0 -0.38429478426E-01  0.69146453289E-01  0.86461759882E-01  0.94529238479E+00  0.93800000000E+00 0. -1.
         22    1    1    2    0    0  0.16347828317E+00 -0.39476412648E+00  0.25331588902E+01  0.25689409934E+01  0.00000000000E+00 0. -1.
</event>
<event>
 5    1  0.3005426E+001  0.1599666E+01  0.7818608E-02  0.3353726E+00
         11   -1    0    0    0    0  0.00000000000E+00  0.00000000000E+00  0.39999999674E+01  0.40000000000E+01  0.51100000000E-03 0.  1.
    9000002   -1    0    0    0    0 -0.00000000000E+00 -0.00000000000E+00  0.00000000000E+00  0.93800000000E+00  0.93800000000E+00 0. -1.
         11    1    1    2    0    0  0.22449812067E-01  0.14828631312E+00  0.13943264326E+01  0.14023691691E+01  0.51100000000E-03 0.  1.
    9000002    1    1    2    0    0 -0.71502620759E-01 -0.40742233463E+00  0.11562966760E+00  0.10316587631E+01  0.93800000000E+00 0. -1.
         22    1    1    2    0    0  0.49052808692E-01  0.25913602151E+00  0.24900438672E+01  0.25039720677E+01  0.00000000000E+00 0. -1.
</event>
<event>
 5    1  0.3005426E+001  0.1598698E+01  0.7818608E-02  0.3354778E+00
         11   -1    0    0    0    0  0.00000000000E+00  0.00000000000E+00  0.39999999674E+01  0.40000000000E+01  0.51100000000E-03 0. -1.
    9000002   -1    0    0    0    0 -0.00000000000E+00 -0.00000000000E+00  0.00000000000E+00  0.93800000000E+00  0.93800000000E+00 0.  1.
         11    1    1    2    0    0 -0.14105411377E+00  0.30950502786E-01  0.80972030960E+00  0.82249707448E+00  0.51100000000E-03 0. -1.
    9000002    1    1    2    0    0  0.56833907890E+00 -0.26054840486E+00  0.27524637509E+00  0.11603875848E+01  0.93800000000E+00 0.  1.
         22    1    1    2    0    0 -0.42728496514E+00  0.22959790208E+00  0.29150332827E+01  0.29551153408E+01  0.00000000000E+00 0. -1.
</event>
<event>
 5    1  0.3005426E+001  0.1599591E+01  0.7818608E-02  0.3353807E+00
         11   -1    0    0    0    0  0.00000000000E+00  0.00000000000E+00  0.39999999674E+01  0.40000000000E+01  0.51100000000E-03 0.  1.
    9000002   -1    0    0    0    0 -0.00000000000E+00 -0.00000000000E+00  0.00000000000E+00  0.93800000000E+00  0.93800000000E+00 0.  1.
         11    1    1    2    0    0 -0.75795571115E-01  0.20342635146E-01  0.71414238136E+00  0.71844164229E+00  0.51100000000E-03 0.  1.
    9000002    1    1    2    0    0  0.36693097475E+00 -0.10799192091E+00  0.98537156416E-01  0.10177692108E+01  0.93800000000E+00 0.  1.
         22    1    1    2    0    0 -0.29113540364E+00  0.87649285761E-01  0.31873204296E+01  0.32017891469E+01  0.00000000000E+00 0.  1.
</event>
<event>
 5    1  0.3005426E+001  0.1599671E+01  0.7818608E-02  0.3353720E+00
         11   -1    0    0    0    0  0.00000000000E+00  0.00000000000E+00  0.39999999674E+01  0.40000000000E+01  0.51100000000E-03 0. -1.
    9000002   -1    0    0    0    0 -0.00000000000E+00 -0.00000000000E+00  0.00000000000E+00  0.93800000000E+00  0.93800000000E+00 0. -1.
         11    1    1    2    0    0  0.15570331356E-03  0.89554470299E-02  0.93672119570E-01  0.94100751223E-01  0.51100000000E-03 0. -1.
    9000002    1    1    2    0    0 -0.35235500433E-01 -0.38203114605E+00  0.99083550762E-01  0.10182587525E+01  0.93800000000E+00 0. -1.
         22    1    1    2    0    0  0.35079797120E-01  0.37307569902E+00  0.38072442970E+01  0.38256404963E+01  0.00000000000E+00 0. -1.
</event>
<event>
 5    1  0.3005426E+001  0.1599626E+01  0.7818608E-02  0.3353769E+00
         11   -1    0    0    0    0  0.00000000000E+00  0.00000000000E+00  0.39999999674E+01  0.40000000000E+01  0.51100000000E-03 0. -1.
    9000002   -1    0    0    0    0 -0.00000000000E+00 -0.00000000000E+00  0.00000000000E+00  0.93800000000E+00  0.93800000000E+00 0. -1.
         11    1    1    2    0    0  0.15927096211E+00  0.49553766252E-01  0.14049441325E+01  0.14148113272E+01  0.51100000000E-03 0. -1.
    9000002    1    1    2    0    0 -0.45721321433E+00 -0.12730056815E+00  0.15360542149E+00  0.10623972814E+01  0.93800000000E+00 0. -1.
         22    1    1    2    0    0  0.29794225222E+00  0.77746801900E-01  0.24414504134E+01  0.24607913914E+01  0.00000000000E+00 0. -1.
</event>
<event>
 5    1  0.3005426E+001  0.1561367E+01  0.7818608E-02  0.3396392E+00
         11   -1    0    0    0    0  0.00000000000E+00  0.00000000000E+00  0.39999999674E+01  0.40000000000E+01  0.51100000000E-03 0. -1.
    9000002   -1    0    0    0    0 -0.00000000000E+00 -0.00000000000E+00  0.00000000000E+00  0.93800000000E+00  0.93800000000E+00 0. -1.
         11    1    1    2    0    0 -0.10402982878E+00  0.13667582415E+00  0.57056737095E+00  0.59586061466E+00  0.51100000000E-03 0. -1.
    9000002    1    1    2    0    0  0.46914549779E+00  0.19399737482E+00  0.21227936527E+00  0.10874920728E+01  0.93800000000E+00 0. -1.
         22    1    1    2    0    0 -0.36511566901E+00 -0.33067319897E+00  0.32171532311E+01  0.32546473125E+01  0.00000000000E+00 0. -1.
</event>
<event>
 5    1  0.3005426E+001  0.1599670E+01  0.7818608E-02  0.3353722E+00
         11   -1    0    0    0    0  0.00000000000E+00  0.00000000000E+00  0.39999999674E+01  0.40000000000E+01  0.51100000000E-03 0. -1.
    9000002   -1    0    0    0    0 -0.00000000000E+00 -0.00000000000E+00  0.00000000000E+00  0.93800000000E+00  0.93800000000E+00 0. -1.
         11    1    1    2    0    0  0.19640931307E-01 -0.42388943539E-01  0.48914164648E+00  0.49136788678E+00  0.51100000000E-03 0. -1.
    9000002    1    1    2    0    0 -0.15281678044E+00  0.35396543850E+00  0.10008736198E+00  0.10190711359E+01  0.93800000000E+00 0. -1.
         22    1    1    2    0    0  0.13317584914E+00 -0.31157649496E+00  0.34107709589E+01  0.34275609773E+01  0.00000000000E+00 0. -1.
</event>
<event>
 5    1  0.3005426E+001  0.1598926E+01  0.7818608E-02  0.3354530E+00
         11   -1    0    0    0    0  0.00000000000E+00  0.00000000000E+00  0.39999999674E+01  0.40000000000E+01  0.51100000000E-03 0.  1.
    9000002   -1    0    0    0    0 -0.00000000000E+00 -0.00000000000E+00  0.00000000000E+00  0.93800000000E+00  0.93800000000E+00 0. -1.
         11    1    1    2    0    0 -0.86233509930E-01 -0.12593749748E+00  0.13879152829E+01  0.13962827669E+01  0.51100000000E-03 0.  1.
    9000002    1    1    2    0    0  0.30008585710E+00  0.28629508572E+00  0.11688508148E+00  0.10322415028E+01  0.93800000000E+00 0. -1.
         22    1    1    2    0    0 -0.21385234717E+00 -0.16035758824E+00  0.24951996030E+01  0.25094757304E+01  0.00000000000E+00 0.  1.
</event>
<event>
 5    1  0.3005426E+001  0.1536137E+01  0.7818608E-02  0.3425735E+00
         11   -1    0    0    0    0  0.00000000000E+00  0.00000000000E+00  0.39999999674E+01  0.40000000000E+01  0.51100000000E-03 0.  1.
    9000002   -1    0    0    0    0 -0.00000000000E+00 -0.00000000000E+00  0.00000000000E+00  0.93800000000E+00  0.93800000000E+00 0.  1.
         11    1    1    2    0    0  0.28566460243E+00  0.52257553931E+00  0.85921252776E+00  0.10454357409E+01  0.51100000000E-03 0.  1.
    9000002    1    1    2    0    0 -0.12821953350E+00 -0.31279553448E+00  0.30215027886E+00  0.10418349611E+01  0.93800000000E+00 0.  1.
         22    1    1    2    0    0 -0.15744506893E+00 -0.20978000483E+00  0.28386371607E+01  0.28507292980E+01  0.00000000000E+00 0.  1.
</event>
<event>
 5    1  0.3005426E+001  0.1598443E+01  0.7818608E-02  0.3355055E+00
         11   -1    0    0    0    0  0.00000000000E+00  0.00000000000E+00  0.39999999674E+01  0.40000000000E+01  0.51100000000E-03 0. -1.
    9000002   -1    0    0    0    0 -0.00000000000E+00 -0.00000000000E+00  0.00000000000E+00  0.93800000000E+00  0.93800000000E+00 0. -1.
         11    1    1    2    0    0 -0.20533878254E-01 -0.17208944598E+00  0.98672271664E+00  0.10018275292E+01  0.51100000000E-03 0. -1.
    9000002    1    1    2    0    0  0.20788302857E+00  0.67826045565E+00  0.36198358572E+00  0.12304993765E+01  0.93800000000E+00 0. -1.
         22    1    1    2    0    0 -0.18734915031E+00 -0.50617100968E+00  0.26512936650E+01  0.27056730943E+01  0.00000000000E+00 0. -1.
</event>
<event>
 5    1  0.3005426E+001  0.1599672E+01  0.7818608E-02  0.3353719E+00
         11   -1    0    0    0    0  0.00000000000E+00  0.00000000000E+00  0.39999999674E+01  0.40000000000E+01  0.51100000000E-03 0.  1.
    9000002   -1    0    0    0    0 -0.00000000000E+00 -0.00000000000E+00  0.00000000000E+00  0.93800000000E+00  0.93800000000E+00 0. -1.
         11    1    1    2    0    0 -0.15759718804E-01  0.61576928934E-01  0.49575353599E+00  0.49981188110E+00  0.51100000000E-03 0.  1.
    9000002    1    1    2    0    0  0.11100955936E+00 -0.48339757544E+00  0.16828942514E+00  0.10743191653E+01  0.93800000000E+00 0. -1.
         22    1    1    2    0    0 -0.95249840557E-01  0.42182064651E+00  0.33359570062E+01  0.33638689537E+01  0.00000000000E+00 0.  1.
</event>
<event>
 5    1  0.3005426E+001  0.1599676E+01  0.7818608E-02  0.3353715E+00
         11   -1    0    0    0    0  0.00000000000E+00  0.00000000000E+00  0.39999999674E+01  0.40000000000E+01  0.51100000000E-03 0. -1.
    9000002   -1    0    0    0    0 -0.00000000000E+00 -0.00000000000E+00  0.00000000000E+00  0.93800000000E+00  0.93800000000E+00 0.  1.
         11    1    1    2    0    0 -0.20302813081E-01  0.13551289921E+00  0.78345024161E+00  0.79534300290E+00  0.51100000000E-03 0. -1.
    9000002    1    1    2    0    0  0.10009582467E+00 -0.64254636519E+00  0.29843069263E+00  0.11797414479E+01  0.93800000000E+00 0.  1.
         22    1    1    2    0    0 -0.79793011590E-01  0.50703346598E+00  0.29181190331E+01  0.29629155492E+01  0.00000000000E+00 0. -1.
</event>
<event>
 5    1  0.3005426E+001  0.1599675E+01  0.7818608E-02  0.3353716E+00
         11   -1    0    0    0    0  0.00000000000E+00  0.00000000000E+00  0.39999999674E+01  0.40000000000E+01  0.51100000000E-03 0.  1.
    9000002   -1    0    0    0    0 -0.00000000000E+00 -0.00000000000E+00  0.00000000000E+00  0.93800000000E+00  0.93800000000E+00 0. -1.
         11    1    1    2    0    0  0.88307363648E-01  0.41185405108E-01  0.72696696371E+00  0.73346823757E+00  0.51100000000E-03 0.  1.
    9000002    1    1    2    0    0 -0.45993019397E+00 -0.22243423217E+00  0.17901156472E+00  0.10830059609E+01  0.93800000000E+00 0. -1.
         22    1    1    2    0    0  0.37162283032E+00  0.18124882706E+00  0.30940214389E+01  0.31215258016E+01  0.00000000000E+00 0.  1.
</event>
<event>
 5    1  0.3005426E+001  0.1599672E+01  0.7818608E-02  0.3353720E+00
         11   -1    0    0    0    0  0.00000000000E+00  0.00000000000E+00  0.39999999674E+01  0.40000000000E+01  0.51100000000E-03 0. -1.
    9000002   -1    0    0    0    0 -0.00000000000E+00 -0.00000000000E+00  0.00000000000E+00  0.93800000000E+00  0.93800000000E+00 0. -1.
         11    1    1    2    0    0  0.12908449404E+00 -0.69864101958E-02  0.10354506102E+01  0.10434892639E+01  0.51100000000E-03 0. -1.
    9000002    1    1    2    0    0 -0.47236111815E+00  0.20501283248E-01  0.15236040493E+00  0.10614155744E+01  0.93800000000E+00 0. -1.
         22    1    1    2    0    0  0.34327662411E+00 -0.13514873053E-01  0.28121889522E+01  0.28330951617E+01  0.00000000000E+00 0. -1.
</event>
<event>
 5    1  0.3005426E+001  0.1545551E+01  0.7818608E-02  0.3414667E+00
         11   -1    0    0    0    0  0.00000000000E+00  0.00000000000E+00  0.39999999674E+01  0.40000000000E+01  0.51100000000E-03 0.  1.
    9000002   -1    0    0    0    0 -0.00000000000E+00 -0.00000000000E+00  0.00000000000E+00  0.93800000000E+00  0.93800000000E+00 0. -1.
         11    1    1    2    0    0  0.16112886045E+00 -0.13513238320E+00  0.73909229402E+00  0.76842758336E+00  0.51100000000E-03 0.  1.
    9000002    1    1    2    0    0  0.20123487935E+00  0.21699670806E+00  0.10195292646E+00  0.98884854613E+00  0.93800000000E+00 0. -1.
         22    1    1    2    0    0 -0.36236373980E+00 -0.81864324859E-01  0.31589547469E+01  0.31807238705E+01  0.00000000000E+00 0.  1.
</event>
<event>
 5    1  0.3005426E+001  0.1553833E+01  0.7818608E-02  0.3405048E+00
         11   -1    0    0    0    0  0.00000000000E+00  0.00000000000E+00  0.39999999674E+01  0.40000000000E+01  0.51100000000E-03 0. -1.
    9000002   -1    0    0    0    0 -0.00000000000E+00 -0.00000000000E+00  0.00000000000E+00  0.93800000000E+00  0.93800000000E+00 0.  1.
         11    1    1    2    0    0 -0.87370384559E-01 -0.18324740186E+00  0.78904709222E+00  0.81474460369E+00  0.51100000000E-03 0. -1.
    9000002    1    1    2    0    0  0.23104459261E+00 -0.99204621389E-01  0.77920459271E-01  0.97423752681E+00  0.93800000000E+00 0.  1.
         22    1    1    2    0    0 -0.14367420805E+00  0.28245202325E+00  0.31330324159E+01  0.31490178695E+01  0.00000000000E+00 0. -1.
</event>
<event>
 5    1  0.3005426E+001  0.1599676E+01  0.7818608E-02  0.3353715E+00
         11   -1    0    0    0    0  0.00000000000E+00  0.00000000000E+00  0.39999999674E+01  0.40000000000E+01  0.51100000000E-03 0. -1.
    9000002   -1    0    0    0    0 -0.00000000000E+00 -0.00000000000E+00  0.00000000000E+00  0.93800000000E+00  0.93800000000E+00 0. -1.
         11    1    1    2    0    0 -0.27355901049E-01 -0.12794932618E+00  0.13422995169E+01  0.13486614214E+01  0.51100000000E-03 0. -1.
    9000002    1    1    2    0    0  0.82230512385E-01  0.37153685983E+00  0.97435063092E-01  0.10169262937E+01  0.93800000000E+00 0. -1.
         22    1    1    2    0    0 -0.54874611337E-01 -0.24358753365E+00  0.25602653874E+01  0.25724122849E+01  0.00000000000E+00 0. -1.
</event>
<event>
 5    1  0.3005426E+001  0.1599677E+01  0.7818608E-02  0.3353714E+00
         11   -1    0    0    0    0  0.00000000000E+00  0.00000000000E+00  0.39999999674E+01  0.40000000000E+01  0.51100000000E-03 0.  1.
    9000002   -1    0    0    0    0 -0.00000000000E+00 -0.00000000000E+00  0.00000000000E+00  0.93800000000E+00  0.93800000000E+00 0. -1.
         11    1    1    2    0    0  0.40294881626E-01  0.18025576916E+00  0.13787155155E+01  0.13910329088E+01  0.51100000000E-03 0.  1.
    9000002    1    1    2    0    0 -0.11197095097E+00 -0.50112737585E+00  0.18091063396E+00  0.10845454339E+01  0.93800000000E+00 0. -1.
         22    1    1    2    0    0  0.71676069340E-01  0.32087160669E+00  0.24403738179E+01  0.24624216573E+01  0.00000000000E+00 0.  1.
</event>
<event>
 5    1  0.3005426E+001  0.1599581E+01  0.7818608E-02  0.3353819E+00
         11   -1    0    0    0    0  0.00000000000E+00  0.00000000000E+00  0.39999999674E+01  0.40000000000E+01  0.51100000000E-03 0.  1.
    9000002   -1    0    0    0    0 -0.00000000000E+00 -0.00000000000E+00  0.00000000000E+00  0.93800000000E+00  0.93800000000E+00 0.  1.
         11    1    1    2    0    0 -0.30409557057E-01  0.14719490208E+00  0.11929807024E+01  0.12024118670E+01  0.51100000000E-03 0.  1.
    9000002    1    1    2    0    0  0.12887656204E+00 -0.45746714160E+00  0.15409528482E+00  0.10627674772E+01  0.93800000000E+00 0.  1.
         22    1    1    2    0    0 -0.98467004985E-01  0.31027223952E+00  0.26529239801E+01  0.26728206558E+01  0.00000000000E+00 0.  1.
</event>
<event>
 5    1  0.3005426E+001  0.1599639E+01  0.7818608E-02  0.3353755E+00
         11   -1    0    0    0    0  0.00000000000E+00  0.00000000000E+00  0.39999999674E+01  0.40000000000E+01  0.51100000000E-03 0. -1.
    9000002   -1    0    0    0    0 -0.00000000000E+00 -0.00000000000E+00  0.00000000000E+00  0.93800000000E+00  0.93800000000E+00 0. -1.
         11    1    1    2    0    0  0.85163907433E-01  0.14600286912E-01  0.83296015403E+00  0.83742996056E+00  0.51100000000E-03 0. -1.
    9000002    1    1    2    0    0 -0.37094973522E+00 -0.63935526609E-01  0.95325826229E-01  0.10151957795E+01  0.93800000000E+00 0. -1.
         22    1    1    2    0    0  0.28578582779E+00  0.49335239697E-01  0.30717139871E+01  0.30853742599E+01  0.00000000000E+00 0. -1.
</event>
<event>
 5    1  0.3005426E+001  0.1564099E+01  0.7818608E-02  0.3393276E+00
         11   -1    0    0    0    0  0.00000000000E+00  0.00000000000E+00  0.39999999674E+01  0.40000000000E+01  0.51100000000E-03 0. -1.
    9000002   -1    0    0    0    0 -0.00000000000E+00 -0.00000000000E+00  0.00000000000E+00  0.93800000000E+00  0.93800000000E+00 0.  1.
         11    1    1    2    0    0 -0.11417696700E-01 -0.12615726501E+00  0.81721024893E+00  0.82696969194E+00  0.51100000000E-03 0. -1.
    9000002    1    1    2    0    0  0.94843487304E-01 -0.27851674999E+00  0.86020492360E-01  0.98681831773E+00  0.93800000000E+00 0.  1.
         22    1    1    2    0    0 -0.83425790604E-01  0.40467401500E+00  0.30967692261E+01  0.31242119903E+01  0.00000000000E+00 0. -1.
</event>
<event>
 5    1  0.3005426E+001  0.1593643E+01  0.7818608E-02  0.3360292E+00
         11   -1    0    0    0    0  0.00000000000E+00  0.00000000000E+00  0.39999999674E+01  0.40000000000E+01  0.51100000000E-03 0.  1.
    9000002   -1    0    0    0    0 -0.00000000000E+00 -0.00000000000E+00  0.00000000000E+00  0.93800000000E+00  0.93800000000E+00 0.  1.
         11    1    1    2    0    0 -0.19318253904E-01  0.35507606069E-01  0.95996194433E+00  0.96081277089E+00  0.51100000000E-03 0.  1.
    9000002    1    1    2    0    0  0.26258667132E+00  0.12807883523E+00  0.61619558834E-01  0.98437641074E+00  0.93800000000E+00 0.  1.
         22    1    1    2    0    0 -0.24326841742E+00 -0.16358644130E+00  0.29784184642E+01  0.29928108184E+01  0.00000000000E+00 0.  1.
</event>
<event>
 5    1  0.3005426E+001  0.1598069E+01  0.7818608E-02  0.3355462E+00
         11   -1    0    0    0    0  0.00000000000E+00  0.00000000000E+00  0.39999999674E+01  0.40000000000E+01  0.51100000000E-03 0. -1.
    9000002   -1    0    0    0    0 -0.00000000000E+00 -0.00000000000E+00  0.00000000000E+00  0.93800000000E+00  0.93800000000E+00 0.  1.
         11    1    1    2    0    0 -0.10454609285E+00  0.44645713421E-02  0.13146087828E+01  0.13187669737E+01  0.51100000000E-03 0. -1.
    9000002    1    1    2    0    0  0.43815640339E+00 -0.47852415242E-01  0.13314805967E+00  0.10449130554E+01  0.93800000000E+00 0.  1.
         22    1    1    2    0    0 -0.33361031054E+00  0.43387843900E-01  0.25522431249E+01  0.25743199709E+01  0.00000000000E+00 0. -1.
</event>
<event>
 5    1  0.3005426E+001  0.1599581E+01  0.7818608E-02  0.3353819E+00
         11   -1    0    0    0    0  0.00000000000E+00  0.00000000000E+00  0.39999999674E+01  0.40000000000E+01  0.51100000000E-03 0.  1.
    9000002   -1    0    0    0    0 -0.00000000000E+00 -0.00000000000E+00  0.00000000000E+00  0.93800000000E+00  0.93800000000E+00 0.  1.
         11    1    1    2    0    0 -0.68717969281E-01  0.14286522067E+00  0.12343239680E+01  0.12444631573E+01  0.51100000000E-03 0.  1.
    9000002    1    1    2    0    0  0.22548006038E+00 -0.41287596964E+00  0.15085957069E+00  0.10601464210E+01  0.93800000000E+00 0.  1.
         22    1    1    2    0    0 -0.15676209110E+00  0.27001074897E+00  0.26148164286E+01  0.26333904217E+01  0.00000000000E+00 0.  1.
</event>
<event>
 5    1  0.3005426E+001  0.1550290E+01  0.7818608E-02  0.3409150E+00
         11   -1    0    0    0    0  0.00000000000E+00  0.00000000000E+00  0.39999999674E+01  0.40000000000E+01  0.51100000000E-03 0.  1.
    9000002   -1    0    0    0    0 -0.00000000000E+00 -0.00000000000E+00  0.00000000000E+00  0.93800000000E+00  0.93800000000E+00 0.  1.
         11    1    1    2    0    0 -0.21385320328E-01 -0.12754980572E+00  0.31406294763E+00  0.33964993900E+00  0.51100000000E-03 0.  1.
    9000002    1    1    2    0    0  0.19673277856E+00 -0.24250231230E+00  0.10510995086E+00  0.99418472097E+00  0.93800000000E+00 0.  1.
         22    1    1    2    0    0 -0.17534745824E+00  0.37005211802E+00  0.35808270689E+01  0.36041653400E+01  0.00000000000E+00 0.  1.
</event>
<event>
 5    1  0.3005426E+001  0.1476466E+01  0.7818608E-02  0.3499420E+00
         11   -1    0    0    0    0  0.00000000000E+00  0.00000000000E+00  0.39999999674E+01  0.40000000000E+01  0.51100000000E-03 0. -1.
    9000002   -1    0    0    0    0 -0.00000000000E+00 -0.00000000000E+00  0.00000000000E+00  0.93800000000E+00  0.93800000000E+00 0. -1.
         11    1    1    2    0    0 -0.17989666919E+00  0.10860827452E+00  0.33189861832E+00  0.39283014503E+00  0.51100000000E-03 0. -1.
    9000002    1    1    2    0    0 -0.48013209713E+00 -0.50924223900E-01  0.27807153025E+00  0.10910031545E+01  0.93800000000E+00 0. -1.
         22    1    1    2    0    0  0.66002876633E+00 -0.57684050618E-01  0.33900298188E+01  0.34541667004E+01  0.00000000000E+00 0. -1.
</event>
<event>
 5    1  0.3005426E+001  0.1599677E+01  0.7818608E-02  0.3353714E+00
         11   -1    0    0    0    0  0.00000000000E+00  0.00000000000E+00  0.39999999674E+01  0.40000000000E+01  0.51100000000E-03 0. -1.
    9000002   -1    0    0    0    0 -0.00000000000E+00 -0.00000000000E+00  0.00000000000E+00  0.93800000000E+00  0.93800000000E+00 0. -1.
         11    1    1    2    0    0 -0.86384541000E-01 -0.28424086630E-01  0.73623183869E+00  0.74182733776E+00  0.51100000000E-03 0.  1.
    9000002    1    1    2    0    0  0.45016223019E+00  0.14950473653E+00  0.15338270303E+00  0.10622466537E+01  0.93800000000E+00 0. -1.
         22    1    1    2    0    0 -0.36377768919E+00 -0.12108064990E+00  0.31103854256E+01  0.31339260085E+01  0.00000000000E+00 0. -1.
</event>
<event>
 5    1  0.3005426E+001  0.1599675E+01  0.7818608E-02  0.3353716E+00
         11   -1    0    0    0    0  0.00000000000E+00  0.00000000000E+00  0.39999999674E+01  0.40000000000E+01  0.51100000000E-03 0.  1.
    9000002   -1    0    0    0    0 -0.00000000000E+00 -0.00000000000E+00  0.00000000000E+00  0.93800000000E+00  0.93800000000E+00 0. -1.
         11    1    1    2    0    0 -0.93780305245E-01  0.97973656560E-03  0.88869029903E+00  0.89362543285E+00  0.51100000000E-03 0.  1.
    9000002    1    1    2    0    0  0.40598492725E+00 -0.74812107722E-02  0.11130319738E+00  0.10281595846E+01  0.93800000000E+00 0. -1.
         22    1    1    2    0    0 -0.31220462200E+00  0.65014742066E-02  0.30000064710E+01  0.30162149825E+01  0.00000000000E+00 0.  1.
</event>
<event>
 5    1  0.3005426E+001  0.1598260E+01  0.7818608E-02  0.3355254E+00
         11   -1    0    0    0    0  0.00000000000E+00  0.00000000000E+00  0.39999999674E+01  0.40000000000E+01  0.51100000000E-03 0.  1.
    9000002   -1    0    0    0    0 -0.00000000000E+00 -0.00000000000E+00  0.00000000000E+00  0.93800000000E+00  0.93800000000E+00 0.  1.
         11    1    1    2    0    0 -0.56533885132E-01  0.33126906683E-01  0.11906493463E+01  0.11924510887E+01  0.51100000000E-03 0.  1.
    9000002    1    1    2    0    0  0.29898659198E+00 -0.18709336888E+00  0.84577770839E-01  0.10056810181E+01  0.93800000000E+00 0.  1.
         22    1    1    2    0    0 -0.24245270684E+00  0.15396646219E+00  0.27247728503E+01  0.27398678932E+01  0.00000000000E+00 0.  1.
</event>
<event>
 5    1  0.3005426E+001  0.1599675E+01  0.7818608E-02  0.3353716E+00
         11   -1    0    0    0    0  0.00000000000E+00  0.00000000000E+00  0.39999999674E+01  0.40000000000E+01  0.51100000000E-03 0.  1.
    9000002   -1    0    0    0    0 -0.00000000000E+00 -0.00000000000E+00  0.00000000000E+00  0.93800000000E+00  0.93800000000E+00 0.  1.
         11    1    1    2    0    0 -0.13528099244E+00 -0.39099171923E-01  0.14364934788E+01  0.14433791837E+01  0.51100000000E-03 0.  1.
    9000002    1    1    2    0    0  0.37155270372E+00  0.10732874751E+00  0.10072196448E+00  0.10195880471E+01  0.93800000000E+00 0.  1.
         22    1    1    2    0    0 -0.23627171128E+00 -0.68229575588E-01  0.24627845241E+01  0.24750327692E+01  0.00000000000E+00 0. -1.
</event>
<event>
 5    1  0.3005426E+001  0.1599670E+01  0.7818608E-02  0.3353722E+00
         11   -1    0    0    0    0  0.00000000000E+00  0.00000000000E+00  0.39999999674E+01  0.40000000000E+01  0.51100000000E-03 0.  1.
    9000002   -1    0    0    0    0 -0.00000000000E+00 -0.00000000000E+00  0.00000000000E+00  0.93800000000E+00  0.93800000000E+00 0.  1.
         11    1    1    2    0    0  0.37176985532E-01 -0.36021460232E-01  0.35493565432E+00  0.35869102816E+00  0.51100000000E-03 0.  1.
    9000002    1    1    2    0    0 -0.37800086612E+00  0.38919542951E+00  0.20303527472E+00  0.11024631785E+01  0.93800000000E+00 0.  1.
         22    1    1    2    0    0  0.34082388059E+00 -0.35317396928E+00  0.34420290383E+01  0.34768457934E+01  0.00000000000E+00 0.  1.
</event>
<event>
 5    1  0.3005426E+001  0.1599639E+01  0.7818608E-02  0.3353756E+00
         11   -1    0    0    0    0  0.00000000000E+00  0.00000000000E+00  0.39999999674E+01  0.40000000000E+01  0.51100000000E-03 0.  1.
    9000002   -1    0    0    0    0 -0.00000000000E+00 -0.00000000000E+00  0.00000000000E+00  0.93800000000E+00  0.93800000000E+00 0.  1.
         11    1    1    2    0    0  0.49619031628E-01  0.26740533249E-01  0.49905837264E+00  0.50223164460E+00  0.51100000000E-03 0.  1.
    9000002    1    1    2    0    0 -0.34870902909E+00 -0.20035609550E+00  0.10915977078E+00  0.10264016794E+01  0.93800000000E+00 0.  1.
         22    1    1    2    0    0  0.29908999746E+00  0.17361556225E+00  0.33917818239E+01  0.34093666760E+01  0.00000000000E+00 0.  1.
</event>
<event>
 5    1  0.3005426E+001  0.1599676E+01  0.7818608E-02  0.3353715E+00
         11   -1    0    0    0    0  0.00000000000E+00  0.00000000000E+00  0.39999999674E+01  0.40000000000E+01  0.51100000000E-03 0.  1.
    9000002   -1    0    0    0    0 -0.00000000000E+00 -0.00000000000E+00  0.00000000000E+00  0.93800000000E+00  0.93800000000E+00 0.  1.
         11    1    1    2    0    0 -0.10540515776E+00  0.92367380828E-01  0.14871575153E+01  0.14937468717E+01  0.51100000000E-03 0.  1.
    9000002    1    1    2    0    0  0.27416749777E+00 -0.24255320219E+00  0.90012450741E-01  0.10109135047E+01  0.93800000000E+00 0.  1.
         22    1    1    2    0    0 -0.16876234001E+00  0.15018582136E+00  0.24228300013E+01  0.24333396235E+01  0.00000000000E+00 0.  1.
</event>
<event>
 5    1  0.3005426E+001  0.1599675E+01  0.7818608E-02  0.3353716E+00
         11   -1    0    0    0    0  0.00000000000E+00  0.00000000000E+00  0.39999999674E+01  0.40000000000E+01  0.51100000000E-03 0.  1.
    9000002   -1    0    0    0    0 -0.00000000000E+00 -0.00000000000E+00  0.00000000000E+00  0.93800000000E+00  0.93800000000E+00 0. -1.
         11    1    1    2    0    0  0.12364957141E+00 -0.17525367326E-01  0.95443993576E+00  0.96257581889E+00  0.51100000000E-03 0.  1.
    9000002    1    1    2    0    0 -0.49774601989E+00  0.75844854112E-01  0.17364147204E+00  0.10786560634E+01  0.93800000000E+00 0. -1.
         22    1    1    2    0    0  0.37409644848E+00 -0.58319486786E-01  0.28719185596E+01  0.28967681178E+01  0.00000000000E+00 0.  1.
</event>
<event>
 5    1  0.3005426E+001  0.1514123E+01  0.7818608E-02  0.3452193E+00
         11   -1    0    0    0    0  0.00000000000E+00  0.00000000000E+00  0.39999999674E+01  0.40000000000E+01  0.51100000000E-03 0. -1.
    9000002   -1    0    0    0    0 -0.00000000000E+00 -0.00000000000E+00  0.00000000000E+00  0.93800000000E+00  0.93800000000E+00 0. -1.
         11    1    1    2    0    0 -0.19310436723E+00  0.13436750908E+00  0.10178616928E+01  0.10446945061E+01  0.51100000000E-03 0. -1.
    9000002    1    1    2    0    0 -0.17128289413E+00  0.24349903809E+00  0.12929433300E+00  0.99256769841E+00  0.93800000000E+00 0. -1.
         22    1    1    2    0    0  0.36438726136E+00 -0.37786654717E+00  0.28528439415E+01  0.29007377955E+01  0.00000000000E+00 0. -1.
</event>
<event>
 5    1  0.3005426E+001  0.1599649E+01  0.7818608E-02  0.3353744E+00
         11   -1    0    0    0    0  0.00000000000E+00  0.00000000000E+00  0.39999999674E+01  0.40000000000E+01  0.51100000000E-03 0. -1.
    9000002   -1    0    0    0    0 -0.00000000000E+00 -0.00000000000E+00  0.00000000000E+00  0.93800000000E+00  0.93800000000E+00 0.  1.
         11    1    1    2    0    0  0.48637657320E-01  0.51469030739E-01  0.70245125624E+00  0.70601183513E+00  0.51100000000E-03 0. -1.
    9000002    1    1    2    0    0 -0.26672631668E+00 -0.25954939822E+00  0.93129509080E-01  0.10134228750E+01  0.93800000000E+00 0.  1.
         22    1    1    2    0    0  0.21808865936E+00  0.20808036748E+00  0.32044192020E+01  0.32185652899E+01  0.00000000000E+00 0. -1.
</event>
<event>
 5    1  0.3005426E+001  0.1591656E+01  0.7818608E-02  0.3362470E+00
         11   -1    0    0    0    0  0.00000000000E+00  0.00000000000E+00  0.39999999674E+01  0.40000000000E+01  0.51100000000E-03 0. -1.
    9000002   -1    0    0    0    0 -0.00000000000E+00 -0.00000000000E+00  0.00000000000E+00  0.93800000000E+00  0.93800000000E+00 0. -1.
         11    1    1    2    0    0  0.39536279781E-01  0.44079745652E-01  0.95796831383E+00  0.95979669348E+00  0.51100000000E-03 0. -1.
    9000002    1    1    2    0    0 -0.26603179987E+00  0.18429169359E+00  0.76418075046E-01  0.99519850736E+00  0.93800000000E+00 0. -1.
         22    1    1    2    0    0  0.22649552009E+00 -0.22837143924E+00  0.29656135785E+01  0.29830047992E+01  0.00000000000E+00 0. -1.
</event>
<event>
 5    1  0.3005426E+001  0.1599208E+01  0.7818608E-02  0.3354224E+00
         11   -1    0    0    0    0  0.00000000000E+00  0.00000000000E+00  0.39999999674E+01  0.40000000000E+01  0.51100000000E-03 0.  1.
    9000002   -1    0    0    0    0 -0.00000000000E+00 -0.00000000000E+00  0.00000000000E+00  0.93800000000E+00  0.93800000000E+00 0.  1.
         11    1    1    2    0    0  0.45711734728E-01 -0.52962907043E-01  0.61588682151E+00  0.61984794122E+00  0.51100000000E-03 0.  1.
    9000002    1    1    2    0    0 -0.32438263469E+00  0.43775531661E+00  0.20527855230E+00  0.11040095538E+01  0.93800000000E+00 0.  1.
         22    1    1    2    0    0  0.27867089996E+00 -0.38479240956E+00  0.31788345936E+01  0.32141425050E+01  0.00000000000E+00 0.  1.
</event>
<event>
 5    1  0.3005426E+001  0.1598103E+01  0.7818608E-02  0.3355425E+00
         11   -1    0    0    0    0  0.00000000000E+00  0.00000000000E+00  0.39999999674E+01  0.40000000000E+01  0.51100000000E-03 0.  1.
    9000002   -1    0    0    0    0 -0.00000000000E+00 -0.00000000000E+00  0.00000000000E+00  0.93800000000E+00  0.93800000000E+00 0.  1.
         11    1    1    2    0    0 -0.58102345581E-01  0.34653810903E-01  0.70814131330E+00  0.71136569351E+00  0.51100000000E-03 0.  1.
    9000002    1    1    2    0    0  0.16478797122E+00 -0.32119779226E+00  0.88767930910E-01  0.10089830736E+01  0.93800000000E+00 0.  1.
         22    1    1    2    0    0 -0.10668562564E+00  0.28654398135E+00  0.32030907231E+01  0.32176512329E+01  0.00000000000E+00 0.  1.
</event>
<event>
 5    1  0.3005426E+001  0.1598020E+01  0.7818608E-02  0.3355516E+00
         11   -1    0    0    0    0  0.00000000000E+00  0.00000000000E+00  0.39999999674E+01  0.40000000000E+01  0.51100000000E-03 0. -1.
    9000002   -1    0    0    0    0 -0.00000000000E+00 -0.00000000000E+00  0.00000000000E+00  0.93800000000E+00  0.93800000000E+00 0.  1.
         11    1    1    2    0    0 -0.14078028116E+00  0.86093546280E-01  0.11324553043E+01  0.11444153371E+01  0.51100000000E-03 0. -1.
    9000002    1    1    2    0    0  0.47164123533E+00 -0.43056157935E+00  0.28873173492E+00  0.11709136361E+01  0.93800000000E+00 0.  1.
         22    1    1    2    0    0 -0.33086095417E+00  0.34446803307E+00  0.25788129281E+01  0.26226710268E+01  0.00000000000E+00 0. -1.
</event>
<event>
 5    1  0.3005426E+001  0.1599677E+01  0.7818608E-02  0.3353714E+00
         11   -1    0    0    0    0  0.00000000000E+00  0.00000000000E+00  0.39999999674E+01  0.40000000000E+01  0.51100000000E-03 0. -1.
    9000002   -1    0    0    0    0 -0.00000000000E+00 -0.00000000000E+00  0.00000000000E+00  0.93800000000E+00  0.93800000000E+00 0. -1.
         11    1    1    2    0    0 -0.85150635953E-01 -0.96226307734E-01  0.64228610596E+00  0.65501285188E+00  0.51100000000E-03 0.  1.
    9000002    1    1    2    0    0  0.47872822220E+00  0.54320379813E+00  0.37716964134E+00  0.12435240309E+01  0.93800000000E+00 0. -1.
         22    1    1    2    0    0 -0.39357758625E+00 -0.44697749039E+00  0.29805442201E+01  0.30394631172E+01  0.00000000000E+00 0. -1.
</event>
<event>
 5    1  0.3005426E+001  0.1554793E+01  0.7818608E-02  0.3403940E+00
         11   -1    0    0    0    0  0.00000000000E+00  0.00000000000E+00  0.39999999674E+01  0.40000000000E+01  0.51100000000E-03 0.  1.
    9000002   -1    0    0    0    0 -0.00000000000E+00 -0.00000000000E+00  0.00000000000E+00  0.93800000000E+00  0.93800000000E+00 0. -1.
         11    1    1    2    0    0 -0.16371241119E+00 -0.23191333993E+00  0.14115688355E+01  0.14398306808E+01  0.51100000000E-03 0.  1.
    9000002    1    1    2    0    0  0.25627531603E+00 -0.69996228236E-02  0.78908137537E-01  0.97560059784E+00  0.93800000000E+00 0. -1.
         22    1    1    2    0    0 -0.92562904840E-01  0.23891296275E+00  0.25095229943E+01  0.25225687214E+01  0.00000000000E+00 0.  1.
</event>
<event>
 5    1  0.3005426E+001  0.1599640E+01  0.7818608E-02  0.3353754E+00
         11   -1    0    0    0    0  0.00000000000E+00  0.00000000000E+00  0.39999999674E+01  0.40000000000E+01  0.51100000000E-03 0. -1.
    9000002   -1    0    0    0    0 -0.00000000000E+00 -0.00000000000E+00  0.00000000000E+00  0.93800000000E+00  0.93800000000E+00 0. -1.
         11    1    1    2    0    0  0.15120686646E+00 -0.18106246679E-01  0.80831343615E+00  0.82253402654E+00  0.51100000000E-03 0. -1.
    9000002    1    1    2    0    0 -0.68116985388E+00  0.55050767793E-01  0.33234998794E+00  0.12071965339E+01  0.93800000000E+00 0. -1.
         22    1    1    2    0    0  0.52996298742E+00 -0.36944521114E-01  0.28593365433E+01  0.29082694396E+01  0.00000000000E+00 0. -1.
</event>
<event>
 5    1  0.3005426E+001  0.1594007E+01  0.7818608E-02  0.3359894E+00
         11   -1    0    0    0    0  0.00000000000E+00  0.00000000000E+00  0.39999999674E+01  0.40000000000E+01  0.51100000000E-03 0.  1.
    9000002   -1    0    0    0    0 -0.00000000000E+00 -0.00000000000E+00  0.00000000000E+00  0.93800000000E+00  0.93800000000E+00 0.  1.
         11    1    1    2    0    0  0.26436359617E-02  0.23080853881E-03 -0.14009142178E-02  0.30439719652E-02  0.51100000000E-03 0.  1.
    9000002    1    1    2    0    0 -0.26349899898E+00  0.46517677359E+00  0.20214349515E+00  0.10984202956E+01  0.93800000000E+00 0.  1.
         22    1    1    2    0    0  0.26085536302E+00 -0.46540758213E+00  0.37992573864E+01  0.38365357324E+01  0.00000000000E+00 0.  1.
</event>
<event>
 5    1  0.3005426E+001  0.1597952E+01  0.7818608E-02  0.3355589E+00
         11   -1    0    0    0    0  0.00000000000E+00  0.00000000000E+00  0.39999999674E+01  0.40000000000E+01  0.51100000000E-03 0. -1.
    9000002   -1    0    0    0    0 -0.00000000000E+00 -0.00000000000E+00  0.00000000000E+00  0.93800000000E+00  0.93800000000E+00 0.  1.
         11    1    1    2    0    0 -0.99577306591E-01  0.47584369337E-01  0.12424598050E+01  0.12473518110E+01  0.51100000000E-03 0. -1.
    9000002    1    1    2    0    0  0.23150899759E+00 -0.27123178438E+00  0.86722407535E-01  0.10072377439E+01  0.93800000000E+00 0.  1.
         22    1    1    2    0    0 -0.13193169100E+00  0.22364741505E+00  0.26708177548E+01  0.26834104451E+01  0.00000000000E+00 0. -1.
</event>
<event>
 5    1  0.3005426E+001  0.1599676E+01  0.7818608E-02  0.3353715E+00
         11   -1    0    0    0    0  0.00000000000E+00  0.00000000000E+00  0.39999999674E+01  0.40000000000E+01  0.51100000000E-03 0.  1.
    9000002   -1    0    0    0    0 -0.00000000000E+00 -0.00000000000E+00  0.00000000000E+00  0.93800000000E+00  0.93800000000E+00 0. -1.
         11    1    1    2    0    0 -0.95531120690E-01  0.11079413795E+00  0.11036591172E+01  0.11133127342E+01  0.51100000000E-03 0.  1.
    9000002    1    1    2    0    0  0.33289385443E+00 -0.38613210006E+00  0.17822521275E+00  0.10823698737E+01  0.93800000000E+00 0. -1.
         22    1    1    2    0    0 -0.23736273374E+00  0.27533796211E+00  0.27181156374E+01  0.27423173921E+01  0.00000000000E+00 0.  1.
</event>
<event>
 5    1  0.3005426E+001  0.1599668E+01  0.7818608E-02  0.3353724E+00
         11   -1    0    0    0    0  0.00000000000E+00  0.00000000000E+00  0.39999999674E+01  0.40000000000E+01  0.51100000000E-03 0.  1.
    9000002   -1    0    0    0    0 -0.00000000000E+00 -0.00000000000E+00  0.00000000000E+00  0.93800000000E+00  0.93800000000E+00 0.  1.
         11    1    1    2    0    0 -0.46295155982E-02  0.14430592665E-02  0.57839350209E-01  0.58044520744E-01  0.51100000000E-03 0.  1.
    9000002    1    1    2    0    0  0.32314677203E+00 -0.14590165014E+00  0.84340713771E-01  0.10063143067E+01  0.93800000000E+00 0.  1.
         22    1    1    2    0    0 -0.31851725643E+00  0.14445859088E+00  0.38578199034E+01  0.38736411726E+01  0.00000000000E+00 0.  1.
</event>
<event>
 5    1  0.3005426E+001  0.1599662E+01  0.7818608E-02  0.3353730E+00
         11   -1    0    0    0    0  0.00000000000E+00  0.00000000000E+00  0.39999999674E+01  0.40000000000E+01  0.51100000000E-03 0. -1.
    9000002   -1    0    0    0    0 -0.00000000000E+00 -0.00000000000E+00  0.00000000000E+00  0.93800000000E+00  0.93800000000E+00 0.  1.
         11    1    1    2    0    0  0.10344655118E-01  0.14424533034E+00  0.13222888328E+01  0.13301735773E+01  0.51100000000E-03 0. -1.
    9000002    1    1    2    0    0 -0.18518356739E-01 -0.41844346754E+00  0.11864334029E+00  0.10340977262E+01  0.93800000000E+00 0.  1.
         22    1    1    2    0    0  0.81737016213E-02  0.27419813719E+00  0.25590677942E+01  0.25737286965E+01  0.00000000000E+00 0. -1.
</event>
<event>
 5    1  0.3005426E+001  0.1599675E+01  0.7818608E-02  0.3353716E+00
         11   -1    0    0    0    0  0.00000000000E+00  0.00000000000E+00  0.39999999674E+01  0.40000000000E+01  0.51100000000E-03 0. -1.
    9000002   -1    0    0    0    0 -0.00000000000E+00 -0.00000000000E+00  0.00000000000E+00  0.93800000000E+00  0.93800000000E+00 0. -1.
         11    1    1    2    0    0 -0.59641992312E-01 -0.34292348496E-01  0.75253917873E+00  0.75567758274E+00  0.51100000000E-03 0. -1.
    9000002    1    1    2    0    0  0.31118128189E+00  0.17181531338E+00  0.84774932179E-01  0.10066702942E+01  0.93800000000E+00 0. -1.
         22    1    1    2    0    0 -0.25153928957E+00 -0.13752296488E+00  0.31626858564E+01  0.31756521231E+01  0.00000000000E+00 0. -1.
</event>
<event>
 5    1  0.3005426E+001  0.1599631E+01  0.7818608E-02  0.3353764E+00
         11   -1    0    0    0    0  0.00000000000E+00  0.00000000000E+00  0.39999999674E+01  0.40000000000E+01  0.51100000000E-03 0. -1.
    9000002   -1    0    0    0    0 -0.00000000000E+00 -0.00000000000E+00  0.00000000000E+00  0.93800000000E+00  0.93800000000E+00 0.  1.
         11    1    1    2    0    0  0.12983963822E-01 -0.14498763291E+00  0.12996885727E+01  0.13078152179E+01  0.51100000000E-03 0. -1.
    9000002    1    1    2    0    0 -0.54625842621E-01  0.44745619745E+00  0.13806690027E+00  0.10498130787E+01  0.93800000000E+00 0.  1.
         22    1    1    2    0    0  0.41641878799E-01 -0.30246856454E+00  0.25622444944E+01  0.25803717034E+01  0.00000000000E+00 0. -1.
</event>
<event>
 5    1  0.3005426E+001  0.1598736E+01  0.7818608E-02  0.3354737E+00
         11   -1    0    0    0    0  0.00000000000E+00  0.00000000000E+00  0.39999999674E+01  0.40000000000E+01  0.51100000000E-03 0.  1.
    9000002   -1    0    0    0    0 -0.00000000000E+00 -0.00000000000E+00  0.00000000000E+00  0.93800000000E+00  0.93800000000E+00 0.  1.
         11    1    1    2    0    0 -0.16650158978E-01  0.42601785864E-01  0.62292150284E+00  0.62459875102E+00  0.51100000000E-03 0.  1.
    9000002    1    1    2    0    0 -0.46850699637E-01 -0.34469524430E+00  0.81876638493E-01  0.10037716789E+01  0.93800000000E+00 0.  1.
         22    1    1    2    0    0  0.63500858615E-01  0.30209345844E+00  0.32952018260E+01  0.33096295700E+01  0.00000000000E+00 0.  1.
</event>
<event>
 5    1  0.3005426E+001  0.1599676E+01  0.7818608E-02  0.3353715E+00
         11   -1    0    0    0    0  0.00000000000E+00  0.00000000000E+00  0.39999999674E+01  0.40000000000E+01  0.51100000000E-03 0. -1.
    9000002   -1    0    0    0    0 -0.00000000000E+00 -0.00000000000E+00  0.00000000000E+00  0.93800000000E+00  0.93800000000E+00 0. -1.
         11    1    1    2    0    0 -0.21788464726E-01 -0.13903649459E-01  0.27915819866E+00  0.28035265232E+00  0.51100000000E-03 0.  1.
    9000002    1    1    2    0    0  0.30855889277E+00  0.20143994410E+00  0.91238791861E-01  0.10119066946E+01  0.93800000000E+00 0. -1.
         22    1    1    2    0    0 -0.28677042805E+00 -0.18753629464E+00  0.36296029768E+01  0.36457406531E+01  0.00000000000E+00 0. -1.
</event>
<event>
 5    1  0.3005426E+001  0.1599647E+01  0.7818608E-02  0.3353746E+00
         11   -1    0    0    0    0  0.00000000000E+00  0.00000000000E+00  0.39999999674E+01  0.40000000000E+01  0.51100000000E-03 0. -1.
    9000002   -1    0    0    0    0 -0.00000000000E+00 -0.00000000000E+00  0.00000000000E+00  0.93800000000E+00  0.93800000000E+00 0.  1.
         11    1    1    2    0    0 -0.25103926409E-01  0.44439328655E-01  0.39624426097E+00  0.39951825556E+00  0.51100000000E-03 0. -1.
    9000002    1    1    2    0    0  0.21744304287E+00 -0.40441376350E+00  0.14341573656E+00  0.10541556064E+01  0.93800000000E+00 0.  1.
         22    1    1    2    0    0 -0.19233911646E+00  0.35997443484E+00  0.34603399698E+01  0.34843261380E+01  0.00000000000E+00 0. -1.
</event>
<event>
 5    1  0.3005426E+001  0.1598860E+01  0.7818608E-02  0.3354602E+00
         11   -1    0    0    0    0  0.00000000000E+00  0.00000000000E+00  0.39999999674E+01  0.40000000000E+01  0.51100000000E-03 0.  1.
    9000002   -1    0    0    0    0 -0.00000000000E+00 -0.00000000000E+00  0.00000000000E+00  0.93800000000E+00  0.93800000000E+00 0. -1.
         11    1    1    2    0    0  0.31878511414E-01 -0.21499003795E-01  0.24126948245E+00  0.24431469653E+00  0.51100000000E-03 0.  1.
    9000002    1    1    2    0    0 -0.24476323375E+00  0.33569893937E+00  0.11734821389E+00  0.10325780463E+01  0.93800000000E+00 0. -1.
         22    1    1    2    0    0  0.21288472234E+00 -0.31419993557E+00  0.36413822710E+01  0.36611072571E+01  0.00000000000E+00 0.  1.
</event>
<event>
 5    1  0.3005426E+001  0.1581053E+01  0.7818608E-02  0.3374188E+00
         11   -1    0    0    0    0  0.00000000000E+00  0.00000000000E+00  0.39999999674E+01  0.40000000000E+01  0.51100000000E-03 0.  1.
    9000002   -1    0    0    0    0 -0.00000000000E+00 -0.00000000000E+00  0.00000000000E+00  0.93800000000E+00  0.93800000000E+00 0. -1.
         11    1    1    2    0    0  0.38773012081E-01 -0.26661582488E+00  0.11689060248E+01  0.11995536255E+01  0.51100000000E-03 0.  1.
    9000002    1    1    2    0    0 -0.29811925953E+00  0.40328298624E+00  0.18921326245E+00  0.10803508312E+01  0.93800000000E+00 0. -1.
         22    1    1    2    0    0  0.25934624745E+00 -0.13666716136E+00  0.26418806801E+01  0.26580955433E+01  0.00000000000E+00 0.  1.
</event>
<event>
 5    1  0.3005426E+001  0.1599645E+01  0.7818608E-02  0.3353749E+00
         11   -1    0    0    0    0  0.00000000000E+00  0.00000000000E+00  0.39999999674E+01  0.40000000000E+01  0.51100000000E-03 0.  1.
    9000002   -1    0    0    0    0 -0.00000000000E+00 -0.00000000000E+00  0.00000000000E+00  0.93800000000E+00  0.93800000000E+00 0. -1.
         11    1    1    2    0    0  0.89126251180E-01  0.15967392797E+00  0.95410033679E+00  0.97146639968E+00  0.51100000000E-03 0.  1.
    9000002    1    1    2    0    0 -0.35228277254E+00 -0.59223876715E+00  0.33841640810E+00  0.12121136805E+01  0.93800000000E+00 0. -1.
         22    1    1    2    0    0  0.26315652136E+00  0.43256483918E+00  0.27074832225E+01  0.27544199198E+01  0.00000000000E+00 0.  1.
</event>
<event>
 5    1  0.3005426E+001  0.1449914E+01  0.7818608E-02  0.3534320E+00
         11   -1    0    0    0    0  0.00000000000E+00  0.00000000000E+00  0.39999999674E+01  0.40000000000E+01  0.51100000000E-03 0. -1.
    9000002   -1    0    0    0    0 -0.00000000000E+00 -0.00000000000E+00  0.00000000000E+00  0.93800000000E+00  0.93800000000E+00 0. -1.
         11    1    1    2    0    0 -0.36226831367E+00  0.12297793460E-01  0.80657987218E+00  0.88428554107E+00  0.51100000000E-03 0. -1.
    9000002    1    1    2    0    0 -0.10395123742E+00  0.21955185700E+00  0.16749137428E+00  0.98331390620E+00  0.93800000000E+00 0. -1.
         22    1    1    2    0    0  0.46621955109E+00 -0.23184965046E+00  0.30259287209E+01  0.30704005527E+01  0.00000000000E+00 0. -1.
</event>
<event>
 5    1  0.3005426E+001  0.1231462E+01  0.7818608E-02  0.3922091E+00
         11   -1    0    0    0    0  0.00000000000E+00  0.00000000000E+00  0.39999999674E+01  0.40000000000E+01  0.51100000000E-03 0.  1.
    9000002   -1    0    0    0    0 -0.00000000000E+00 -0.00000000000E+00  0.00000000000E+00  0.93800000000E+00  0.93800000000E+00 0. -1.
         11    1    1    2    0    0  0.40553963206E+00  0.51550389578E+00  0.11447537883E+01  0.13193438357E+01  0.51100000000E-03 0.  1.
    9000002    1    1    2    0    0  0.55439386624E-01  0.65900980933E-01  0.34840523950E+00  0.10043140325E+01  0.93800000000E+00 0. -1.
         22    1    1    2    0    0 -0.46097901869E+00 -0.58140487671E+00  0.25068409395E+01  0.26143421319E+01  0.00000000000E+00 0.  1.
</event>
<event>
 5    1  0.3005426E+001  0.1555078E+01  0.7818608E-02  0.3403612E+00
         11   -1    0    0    0    0  0.00000000000E+00  0.00000000000E+00  0.39999999674E+01  0.40000000000E+01  0.51100000000E-03 0. -1.
    9000002   -1    0    0    0    0 -0.00000000000E+00 -0.00000000000E+00  0.00000000000E+00  0.93800000000E+00  0.93800000000E+00 0.  1.
         11    1    1    2    0    0 -0.77002274764E-01  0.12319027953E+00  0.47352041006E+00  0.49530499205E+00  0.51100000000E-03 0. -1.
    9000002    1    1    2    0    0 -0.16796401647E+00  0.96214900063E-01  0.58919016702E-01  0.95957525414E+00  0.93800000000E+00 0.  1.
         22    1    1    2    0    0  0.24496629123E+00 -0.21940517959E+00  0.34675605406E+01  0.34831197538E+01  0.00000000000E+00 0. -1.
</event>
<event>
 5    1  0.3005426E+001  0.1463124E+01  0.7818608E-02  0.3516784E+00
         11   -1    0    0    0    0  0.00000000000E+00  0.00000000000E+00  0.39999999674E+01  0.40000000000E+01  0.51100000000E-03 0.  1.
    9000002   -1    0    0    0    0 -0.00000000000E+00 -0.00000000000E+00  0.00000000000E+00  0.93800000000E+00  0.93800000000E+00 0.  1.
         11    1    1    2    0    0 -0.25910016969E+00  0.81190714124E-03  0.86829309293E+00  0.90612731637E+00  0.51100000000E-03 0.  1.
    9000002    1    1    2    0    0 -0.45462338568E+00 -0.39116107152E+00  0.40227407204E+00  0.11837896079E+01  0.93800000000E+00 0.  1.
         22    1    1    2    0    0  0.71372355537E+00  0.39034916438E+00  0.27294328024E+01  0.28480830758E+01  0.00000000000E+00 0.  1.
</event>
<event>
 5    1  0.3005426E+001  0.1599369E+01  0.7818608E-02  0.3354049E+00
         11   -1    0    0    0    0  0.00000000000E+00  0.00000000000E+00  0.39999999674E+01  0.40000000000E+01  0.51100000000E-03 0.  1.
    9000002   -1    0    0    0    0 -0.00000000000E+00 -0.00000000000E+00  0.00000000000E+00  0.93800000000E+00  0.93800000000E+00 0.  1.
         11    1    1    2    0    0 -0.84120038191E-01 -0.13816567109E+00  0.14273601778E+01  0.14364968749E+01  0.51100000000E-03 0.  1.
    9000002    1    1    2    0    0  0.17560038974E+00  0.36193496256E+00  0.10944832262E+00  0.10264771548E+01  0.93800000000E+00 0.  1.
         22    1    1    2    0    0 -0.91480351550E-01 -0.22376929146E+00  0.24631914670E+01  0.24750259703E+01  0.00000000000E+00 0.  1.
</event>
<event>
 5    1  0.3005426E+001  0.1525006E+01  0.7818608E-02  0.3439011E+00
         11   -1    0    0    0    0  0.00000000000E+00  0.00000000000E+00  0.39999999674E+01  0.40000000000E+01  0.51100000000E-03 0.  1.
    9000002   -1    0    0    0    0 -0.00000000000E+00 -0.00000000000E+00  0.00000000000E+00  0.93800000000E+00  0.93800000000E+00 0.  1.
         11    1    1    2    0    0 -0.21750691940E+00  0.64412375899E-01  0.61366687197E+00  0.65425186666E+00  0.51100000000E-03 0.  1.
    9000002    1    1    2    0    0 -0.23195335536E-01  0.20199044636E+00  0.85651601193E-01  0.96359657575E+00  0.93800000000E+00 0.  1.
         22    1    1    2    0    0  0.24070225493E+00 -0.26640282226E+00  0.33006814942E+01  0.33201515576E+01  0.00000000000E+00 0.  1.
</event>
<event>
 5    1  0.3005426E+001  0.1599541E+01  0.7818608E-02  0.3353862E+00
         11   -1    0    0    0    0  0.00000000000E+00  0.00000000000E+00  0.39999999674E+01  0.40000000000E+01  0.51100000000E-03 0. -1.
    9000002   -1    0    0    0    0 -0.00000000000E+00 -0.00000000000E+00  0.00000000000E+00  0.93800000000E+00  0.93800000000E+00 0. -1.
         11    1    1    2    0    0 -0.10897485021E+00  0.11069529747E+00  0.71898311351E+00  0.73557184930E+00  0.51100000000E-03 0. -1.
    9000002    1    1    2    0    0  0.49028556972E+00 -0.54923984409E+00  0.39150319115E+00  0.12550550167E+01  0.93800000000E+00 0. -1.
         22    1    1    2    0    0 -0.38131071951E+00  0.43854454662E+00  0.28895136627E+01  0.29473731340E+01  0.00000000000E+00 0. -1.
</event>
<event>
 5    1  0.3005426E+001  0.1459341E+01  0.7818608E-02  0.3521771E+00
         11   -1    0    0    0    0  0.00000000000E+00  0.00000000000E+00  0.39999999674E+01  0.40000000000E+01  0.51100000000E-03 0.  1.
    9000002   -1    0    0    0    0 -0.00000000000E+00 -0.00000000000E+00  0.00000000000E+00  0.93800000000E+00  0.93800000000E+00 0. -1.
         11    1    1    2    0    0  0.31789688088E+00 -0.22639979036E+00  0.85056214091E+00  0.93582664454E+00  0.51100000000E-03 0.  1.
    9000002    1    1    2    0    0  0.84307184323E-01  0.23447052041E+00  0.15739738431E+00  0.98321008073E+00  0.93800000000E+00 0. -1.
         22    1    1    2    0    0 -0.40220406521E+00 -0.80707300412E-02  0.29920404421E+01  0.30189632747E+01  0.00000000000E+00 0.  1.
</event>
<event>
 5    1  0.3005426E+001  0.1598880E+01  0.7818608E-02  0.3354580E+00
         11   -1    0    0    0    0  0.00000000000E+00  0.00000000000E+00  0.39999999674E+01  0.40000000000E+01  0.51100000000E-03 0.  1.
    9000002   -1    0    0    0    0 -0.00000000000E+00 -0.00000000000E+00  0.00000000000E+00  0.93800000000E+00  0.93800000000E+00 0.  1.
         11    1    1    2    0    0  0.43713677312E-01 -0.33145225680E-01  0.85822074365E+00  0.85997243998E+00  0.51100000000E-03 0.  1.
    9000002    1    1    2    0    0 -0.32387271489E+00  0.11837704843E+00  0.80322972960E-01  0.10025978461E+01  0.93800000000E+00 0.  1.
         22    1    1    2    0    0  0.28015903757E+00 -0.85231822752E-01  0.30614562508E+01  0.30754297139E+01  0.00000000000E+00 0.  1.
</event>
<event>
 5    1  0.3005426E+001  0.1599676E+01  0.7818608E-02  0.3353715E+00
         11   -1    0    0    0    0  0.00000000000E+00  0.00000000000E+00  0.39999999674E+01  0.40000000000E+01  0.51100000000E-03 0. -1.
    9000002   -1    0    0    0    0 -0.00000000000E+00 -0.00000000000E+00  0.00000000000E+00  0.93800000000E+00  0.93800000000E+00 0.  1.
         11    1    1    2    0    0 -0.69367247436E-01  0.11149135166E+00  0.12001651118E+01  0.12073270863E+01  0.51100000000E-03 0. -1.
    9000002    1    1    2    0    0  0.22448754440E+00 -0.35726472525E+00  0.12043680523E+00  0.10355586732E+01  0.93800000000E+00 0.  1.
         22    1    1    2    0    0 -0.15512029696E+00  0.24577337358E+00  0.26793980503E+01  0.26951142406E+01  0.00000000000E+00 0. -1.
</event>
<event>
 5    1  0.3005426E+001  0.1595756E+01  0.7818608E-02  0.3357983E+00
         11   -1    0    0    0    0  0.00000000000E+00  0.00000000000E+00  0.39999999674E+01  0.40000000000E+01  0.51100000000E-03 0. -1.
    9000002   -1    0    0    0    0 -0.00000000000E+00 -0.00000000000E+00  0.00000000000E+00  0.93800000000E+00  0.93800000000E+00 0.  1.
         11    1    1    2    0    0 -0.44893898810E-01  0.69796382476E-01  0.10429857268E+01  0.10462822203E+01  0.51100000000E-03 0. -1.
    9000002    1    1    2    0    0 -0.70920507702E-01 -0.33452876639E+00  0.81488774561E-01  0.10017103545E+01  0.93800000000E+00 0.  1.
         22    1    1    2    0    0  0.11581440651E+00  0.26473238391E+00  0.28755254660E+01  0.28900074252E+01  0.00000000000E+00 0. -1.
</event>
<event>
 5    1  0.3005426E+001  0.1599644E+01  0.7818608E-02  0.3353749E+00
         11   -1    0    0    0    0  0.00000000000E+00  0.00000000000E+00  0.39999999674E+01  0.40000000000E+01  0.51100000000E-03 0. -1.
    9000002   -1    0    0    0    0 -0.00000000000E+00 -0.00000000000E+00  0.00000000000E+00  0.93800000000E+00  0.93800000000E+00 0. -1.
         11    1    1    2    0    0  0.32070720878E-01  0.19199495741E-02  0.26784584034E+00  0.26976632972E+00  0.51100000000E-03 0. -1.
    9000002    1    1    2    0    0 -0.50770996584E+00 -0.24074312194E-01  0.17713260159E+00  0.10814661069E+01  0.93800000000E+00 0. -1.
         22    1    1    2    0    0  0.47563924496E+00  0.22154362620E-01  0.35550215254E+01  0.35867675633E+01  0.00000000000E+00 0. -1.
</event>
<event>
 5    1  0.3005426E+001  0.1599672E+01  0.7818608E-02  0.3353719E+00
         11   -1    0    0    0    0  0.00000000000E+00  0.00000000000E+00  0.39999999674E+01  0.40000000000E+01  0.51100000000E-03 0. -1.
    9000002   -1    0    0    0    0 -0.00000000000E+00 -0.00000000000E+00  0.00000000000E+00  0.93800000000E+00  0.93800000000E+00 0. -1.
         11    1    1    2    0    0  0.11976098658E+00 -0.52651503028E-01  0.40817985494E+00  0.42863262799E+00  0.51100000000E-03 0. -1.
    9000002    1    1    2    0    0 -0.93551878424E+00  0.41288459889E+00  0.85256550549E+00  0.16286132226E+01  0.93800000000E+00 0. -1.
         22    1    1    2    0    0  0.81575779765E+00 -0.36023309586E+00  0.27392546069E+01  0.28807541494E+01  0.00000000000E+00 0. -1.
</event>
<event>
 5    1  0.3005426E+001  0.1559930E+01  0.7818608E-02  0.3398037E+00
         11   -1    0    0    0    0  0.00000000000E+00  0.00000000000E+00  0.39999999674E+01  0.40000000000E+01  0.51100000000E-03 0.  1.
    9000002   -1    0    0    0    0 -0.00000000000E+00 -0.00000000000E+00  0.00000000000E+00  0.93800000000E+00  0.93800000000E+00 0. -1.
         11    1    1    2    0    0 -0.63780011059E-01  0.16504906654E+00  0.89821147443E+00  0.91547430226E+00  0.51100000000E-03 0.  1.
    9000002    1    1    2    0    0  0.20693211678E+00  0.15740004834E+00  0.76096720290E-01  0.97633518169E+00  0.93800000000E+00 0. -1.
         22    1    1    2    0    0 -0.14315210572E+00 -0.32244911487E+00  0.30256917726E+01  0.30461905161E+01  0.00000000000E+00 0.  1.
</event>
<event>
 5    1  0.3005426E+001  0.1599654E+01  0.7818608E-02  0.3353739E+00
         11   -1    0    0    0    0  0.00000000000E+00  0.00000000000E+00  0.39999999674E+01  0.40000000000E+01  0.51100000000E-03 0.  1.
    9000002   -1    0    0    0    0 -0.00000000000E+00 -0.00000000000E+00  0.00000000000E+00  0.93800000000E+00  0.93800000000E+00 0. -1.
         11    1    1    2    0    0 -0.44053814208E-01  0.57027596730E-01  0.57786127005E+00  0.58233735401E+00  0.51100000000E-03 0.  1.
    9000002    1    1    2    0    0  0.28252629295E+00 -0.40415455680E+00  0.16628834080E+00  0.10726871978E+01  0.93800000000E+00 0. -1.
         22    1    1    2    0    0 -0.23847247875E+00  0.34712696007E+00  0.32558503565E+01  0.32829754482E+01  0.00000000000E+00 0.  1.
</event>
<event>
 5    1  0.3005426E+001  0.1599674E+01  0.7818608E-02  0.3353717E+00
         11   -1    0    0    0    0  0.00000000000E+00  0.00000000000E+00  0.39999999674E+01  0.40000000000E+01  0.51100000000E-03 0.  1.
    9000002   -1    0    0    0    0 -0.00000000000E+00 -0.00000000000E+00  0.00000000000E+00  0.93800000000E+00  0.93800000000E+00 0.  1.
         11    1    1    2    0    0 -0.81997301530E-02  0.76915489103E-01  0.78122578707E+00  0.78504599836E+00  0.51100000000E-03 0.  1.
    9000002    1    1    2    0    0  0.48386266295E-01 -0.38296749705E+00  0.10033251076E+00  0.10192722636E+01  0.93800000000E+00 0.  1.
         22    1    1    2    0    0 -0.40186536142E-01  0.30605200795E+00  0.31184416695E+01  0.31336817381E+01  0.00000000000E+00 0.  1.
</event>
<event>
 5    1  0.3005426E+001  0.1599674E+01  0.7818608E-02  0.3353717E+00
         11   -1    0    0    0    0  0.00000000000E+00  0.00000000000E+00  0.39999999674E+01  0.40000000000E+01  0.51100000000E-03 0. -1.
    9000002   -1    0    0    0    0 -0.00000000000E+00 -0.00000000000E+00  0.00000000000E+00  0.93800000000E+00  0.93800000000E+00 0.  1.
         11    1    1    2    0    0 -0.61605778522E-02 -0.42307649888E-01  0.36837569612E+00  0.37084876239E+00  0.51100000000E-03 0. -1.
    9000002    1    1    2    0    0  0.65683222203E-01  0.43342465493E+00  0.13030168238E+00  0.10435486312E+01  0.93800000000E+00 0.  1.
         22    1    1    2    0    0 -0.59522644351E-01 -0.39111700504E+00  0.35013225889E+01  0.35236026064E+01  0.00000000000E+00 0. -1.
</event>
<event>
 5    1  0.3005426E+001  0.1599667E+01  0.7818608E-02  0.3353725E+00
         11   -1    0    0    0    0  0.00000000000E+00  0.00000000000E+00  0.39999999674E+01  0.40000000000E+01  0.51100000000E-03 0. -1.
    9000002   -1    0    0    0    0 -0.00000000000E+00 -0.00000000000E+00  0.00000000000E+00  0.93800000000E+00  0.93800000000E+00 0.  1.
         11    1    1    2    0    0 -0.11147414226E+00 -0.12470741706E+00  0.12919991759E+01  0.13027818528E+01  0.51100000000E-03 0. -1.
    9000002    1    1    2    0    0  0.32942765469E+00  0.38011641030E+00  0.17329708084E+00  0.10783723584E+01  0.93800000000E+00 0.  1.
         22    1    1    2    0    0 -0.21795351243E+00 -0.25540899325E+00  0.25347037106E+01  0.25568457889E+01  0.00000000000E+00 0. -1.
</event>
<event>
 5    1  0.3005426E+001  0.1599672E+01  0.7818608E-02  0.3353719E+00
         11   -1    0    0    0    0  0.00000000000E+00  0.00000000000E+00  0.39999999674E+01  0.40000000000E+01  0.51100000000E-03 0. -1.
    9000002   -1    0    0    0    0 -0.00000000000E+00 -0.00000000000E+00  0.00000000000E+00  0.93800000000E+00  0.93800000000E+00 0. -1.
         11    1    1    2    0    0 -0.70499823379E-01 -0.12661397461E+00  0.13517317068E+01  0.13594779115E+01  0.51100000000E-03 0. -1.
    9000002    1    1    2    0    0  0.20302240779E+00  0.35696947433E+00  0.11391666972E+00  0.10302748717E+01  0.93800000000E+00 0. -1.
         22    1    1    2    0    0 -0.13252258441E+00 -0.23035549972E+00  0.25343515908E+01  0.25482472167E+01  0.00000000000E+00 0.  1.
</event>
<event>
 5    1  0.3005426E+001  0.1599677E+01  0.7818608E-02  0.3353714E+00
         11   -1    0    0    0    0  0.00000000000E+00  0.00000000000E+00  0.39999999674E+01  0.40000000000E+01  0.51100000000E-03 0. -1.
    9000002   -1    0    0    0    0 -0.00000000000E+00 -0.00000000000E+00  0.00000000000E+00  0.93800000000E+00  0.93800000000E+00 0. -1.
         11    1    1    2    0    0  0.13722910794E+00 -0.95804765017E-01  0.14887943062E+01  0.14981719289E+01  0.51100000000E-03 0. -1.
    9000002    1    1    2    0    0 -0.35784490717E+00  0.24739821510E+00  0.12826431015E+00  0.10418995094E+01  0.93800000000E+00 0. -1.
         22    1    1    2    0    0  0.22061579923E+00 -0.15159345008E+00  0.23829413510E+01  0.23979285617E+01  0.00000000000E+00 0. -1.
</event>
<event>
 5    1  0.3005426E+001  0.1599665E+01  0.7818608E-02  0.3353727E+00
         11   -1    0    0    0    0  0.00000000000E+00  0.00000000000E+00  0.39999999674E+01  0.40000000000E+01  0.51100000000E-03 0.  1.
    9000002   -1    0    0    0    0 -0.00000000000E+00 -0.00000000000E+00  0.00000000000E+00  0.93800000000E+00  0.93800000000E+00 0.  1.
         11    1    1    2    0    0 -0.61094908984E-01 -0.17737386504E-01  0.36079045668E+00  0.36635668076E+00  0.51100000000E-03 0.  1.
    9000002    1    1    2    0    0  0.61859467666E+00  0.20506685613E+00  0.29983196439E+00  0.11808704401E+01  0.93800000000E+00 0.  1.
         22    1    1    2    0    0 -0.55749976767E+00 -0.18732946962E+00  0.33393775463E+01  0.33907728791E+01  0.00000000000E+00 0.  1.
</event>
<event>
 5    1  0.3005426E+001  0.1599588E+01  0.7818608E-02  0.3353810E+00
         11   -1    0    0    0    0  0.00000000000E+00  0.00000000000E+00  0.39999999674E+01  0.40000000000E+01  0.51100000000E-03 0.  1.
    9000002   -1    0    0    0    0 -0.00000000000E+00 -0.00000000000E+00  0.00000000000E+00  0.93800000000E+00  0.93800000000E+00 0.  1.
         11    1    1    2    0    0 -0.10118999606E+00 -0.87382943868E-01  0.10558764009E+01  0.10643074881E+01  0.51100000000E-03 0.  1.
    9000002    1    1    2    0    0  0.33611796145E+00  0.33568987242E+00  0.15393108608E+00  0.10626390515E+01  0.93800000000E+00 0.  1.
         22    1    1    2    0    0 -0.23492796539E+00 -0.24830692855E+00  0.27901924804E+01  0.28110534604E+01  0.00000000000E+00 0.  1.
</event>
<event>
 5    1  0.3005426E+001  0.1599669E+01  0.7818608E-02  0.3353723E+00
         11   -1    0    0    0    0  0.00000000000E+00  0.00000000000E+00  0.39999999674E+01  0.40000000000E+01  0.51100000000E-03 0.  1.
    9000002   -1    0    0    0    0 -0.00000000000E+00 -0.00000000000E+00  0.00000000000E+00  0.93800000000E+00  0.93800000000E+00 0.  1.
         11    1    1    2    0    0 -0.13198383889E-01 -0.44187553378E-02  0.10274335388E+00  0.10368307781E+00  0.51100000000E-03 0.  1.
    9000002    1    1    2    0    0  0.46049483385E+00  0.14688550890E+00  0.15950359959E+00  0.10672001888E+01  0.93800000000E+00 0.  1.
         22    1    1    2    0    0 -0.44729644996E+00 -0.14246675356E+00  0.37377530139E+01  0.37671167334E+01  0.00000000000E+00 0.  1.
</event>
<event>
 5    1  0.3005426E+001  0.1599676E+01  0.7818608E-02  0.3353715E+00
         11   -1    0    0    0    0  0.00000000000E+00  0.00000000000E+00  0.39999999674E+01  0.40000000000E+01  0.51100000000E-03 0. -1.
    9000002   -1    0    0    0    0 -0.00000000000E+00 -0.00000000000E+00  0.00000000000E+00  0.93800000000E+00  0.93800000000E+00 0.  1.
         11    1    1    2    0    0  0.38801127726E-01  0.15496044252E-01  0.39493526392E+00  0.39713949528E+00  0.51100000000E-03 0. -1.
    9000002    1    1    2    0    0 -0.37735012189E+00 -0.15347368717E+00  0.11204241320E+00  0.10287588588E+01  0.93800000000E+00 0.  1.
         22    1    1    2    0    0  0.33854899416E+00  0.13797764292E+00  0.34930222902E+01  0.35121016460E+01  0.00000000000E+00 0. -1.
</event>
<event>
 5    1  0.3005426E+001  0.1599094E+01  0.7818608E-02  0.3354347E+00
         11   -1    0    0    0    0  0.00000000000E+00  0.00000000000E+00  0.39999999674E+01  0.40000000000E+01  0.51100000000E-03 0. -1.
    9000002   -1    0    0    0    0 -0.00000000000E+00 -0.00000000000E+00  0.00000000000E+00  0.93800000000E+00  0.93800000000E+00 0.  1.
         11    1    1    2    0    0  0.17921736775E+00  0.55220568252E-01  0.12277525192E+01  0.12419922244E+01  0.51100000000E-03 0. -1.
    9000002    1    1    2    0    0 -0.47381643166E+00 -0.16383385750E+00  0.17262326085E+00  0.10774907582E+01  0.93800000000E+00 0.  1.
         22    1    1    2    0    0  0.29459906391E+00  0.10861328925E+00  0.25996241874E+01  0.26185170174E+01  0.00000000000E+00 0. -1.
</event>
<event>
 5    1  0.3005426E+001  0.1599677E+01  0.7818608E-02  0.3353714E+00
         11   -1    0    0    0    0  0.00000000000E+00  0.00000000000E+00  0.39999999674E+01  0.40000000000E+01  0.51100000000E-03 0.  1.
    9000002   -1    0    0    0    0 -0.00000000000E+00 -0.00000000000E+00  0.00000000000E+00  0.93800000000E+00  0.93800000000E+00 0.  1.
         11    1    1    2    0    0 -0.14698224561E+00  0.89421565213E-01  0.14852908569E+01  0.14952221198E+01  0.51100000000E-03 0.  1.
    9000002    1    1    2    0    0  0.38363373087E+00 -0.23393063417E+00  0.13711301815E+00  0.10490673767E+01  0.93800000000E+00 0.  1.
         22    1    1    2    0    0 -0.23665148525E+00  0.14450906896E+00  0.23775960923E+01  0.23937105035E+01  0.00000000000E+00 0. -1.
</event>
<event>
 5    1  0.3005426E+001  0.1596346E+01  0.7818608E-02  0.3357339E+00
         11   -1    0    0    0    0  0.00000000000E+00  0.00000000000E+00  0.39999999674E+01  0.40000000000E+01  0.51100000000E-03 0. -1.
    9000002   -1    0    0    0    0 -0.00000000000E+00 -0.00000000000E+00  0.00000000000E+00  0.93800000000E+00  0.93800000000E+00 0.  1.
         11    1    1    2    0    0 -0.11926520009E+00 -0.40366840918E-02  0.13656014706E+01  0.13708056465E+01  0.51100000000E-03 0. -1.
    9000002    1    1    2    0    0  0.29155081905E+00 -0.17147244272E+00  0.79280019542E-01  0.10002669645E+01  0.93800000000E+00 0.  1.
         22    1    1    2    0    0 -0.17228561896E+00  0.17550912681E+00  0.25551184772E+01  0.25669273891E+01  0.00000000000E+00 0. -1.
</event>
<event>
 5    1  0.3005426E+001  0.1599675E+01  0.7818608E-02  0.3353716E+00
         11   -1    0    0    0    0  0.00000000000E+00  0.00000000000E+00  0.39999999674E+01  0.40000000000E+01  0.51100000000E-03 0. -1.
    9000002   -1    0    0    0    0 -0.00000000000E+00 -0.00000000000E+00  0.00000000000E+00  0.93800000000E+00  0.93800000000E+00 0.  1.
         11    1    1    2    0    0  0.83336438433E-01  0.10258290716E+00  0.11037218961E+01  0.11116071698E+01  0.51100000000E-03 0. -1.
    9000002    1    1    2    0    0 -0.29607072928E+00 -0.35917901561E+00  0.14750208713E+00  0.10574820602E+01  0.93800000000E+00 0.  1.
         22    1    1    2    0    0  0.21273429085E+00  0.25659610845E+00  0.27487759841E+01  0.27689107700E+01  0.00000000000E+00 0. -1.
</event>
<event>
 5    1  0.3005426E+001  0.1580828E+01  0.7818608E-02  0.3374439E+00
         11   -1    0    0    0    0  0.00000000000E+00  0.00000000000E+00  0.39999999674E+01  0.40000000000E+01  0.51100000000E-03 0.  1.
    9000002   -1    0    0    0    0 -0.00000000000E+00 -0.00000000000E+00  0.00000000000E+00  0.93800000000E+00  0.93800000000E+00 0.  1.
         11    1    1    2    0    0 -0.54252450571E-01 -0.73861209866E-01  0.10430506181E+01  0.10470690807E+01  0.51100000000E-03 0.  1.
    9000002    1    1    2    0    0  0.16747843751E+00 -0.26997483200E+00  0.82496404055E-01  0.99377316005E+00  0.93800000000E+00 0.  1.
         22    1    1    2    0    0 -0.11322598694E+00  0.34383604187E+00  0.28744529452E+01  0.28971577592E+01  0.00000000000E+00 0.  1.
</event>
<event>
 5    1  0.3005426E+001  0.1599611E+01  0.7818608E-02  0.3353785E+00
         11   -1    0    0    0    0  0.00000000000E+00  0.00000000000E+00  0.39999999674E+01  0.40000000000E+01  0.51100000000E-03 0. -1.
    9000002   -1    0    0    0    0 -0.00000000000E+00 -0.00000000000E+00  0.00000000000E+00  0.93800000000E+00  0.93800000000E+00 0.  1.
         11    1    1    2    0    0 -0.30910355068E-01  0.40458859234E-01  0.59895510250E+00  0.60111550077E+00  0.51100000000E-03 0. -1.
    9000002    1    1    2    0    0  0.21046922732E+00 -0.30892605924E+00  0.94001690318E-01  0.10141069586E+01  0.93800000000E+00 0.  1.
         22    1    1    2    0    0 -0.17955887226E+00  0.26846720001E+00  0.33070431745E+01  0.33227775406E+01  0.00000000000E+00 0. -1.
</event>
<event>
 5    1  0.3005426E+001  0.1589250E+01  0.7818608E-02  0.3365114E+00
         11   -1    0    0    0    0  0.00000000000E+00  0.00000000000E+00  0.39999999674E+01  0.40000000000E+01  0.51100000000E-03 0.  1.
    9000002   -1    0    0    0    0 -0.00000000000E+00 -0.00000000000E+00  0.00000000000E+00  0.93800000000E+00  0.93800000000E+00 0. -1.
         11    1    1    2    0    0  0.19685628873E+00 -0.54236953161E-01  0.99986378255E+00  0.10205008037E+01  0.51100000000E-03 0.  1.
    9000002    1    1    2    0    0 -0.43660997200E+00 -0.55932677425E-01  0.14039946018E+00  0.10456159622E+01  0.93800000000E+00 0. -1.
         22    1    1    2    0    0  0.23975368328E+00  0.11016963059E+00  0.28597367246E+01  0.28718832341E+01  0.00000000000E+00 0.  1.
</event>
<event>
 5    1  0.3005426E+001  0.1598965E+01  0.7818608E-02  0.3354487E+00
         11   -1    0    0    0    0  0.00000000000E+00  0.00000000000E+00  0.39999999674E+01  0.40000000000E+01  0.51100000000E-03 0.  1.
    9000002   -1    0    0    0    0 -0.00000000000E+00 -0.00000000000E+00  0.00000000000E+00  0.93800000000E+00  0.93800000000E+00 0. -1.
         11    1    1    2    0    0  0.55737031935E-01  0.14652898038E-01  0.92907336037E+00  0.93085922363E+00  0.51100000000E-03 0.  1.
    9000002    1    1    2    0    0 -0.34170428342E+00 -0.17164204189E-01  0.78990851039E-01  0.10015687604E+01  0.93800000000E+00 0. -1.
         22    1    1    2    0    0  0.28596725148E+00  0.25113061509E-02  0.29919357560E+01  0.30055720160E+01  0.00000000000E+00 0.  1.
</event>
<event>
 5    1  0.3005426E+001  0.1599066E+01  0.7818608E-02  0.3354377E+00
         11   -1    0    0    0    0  0.00000000000E+00  0.00000000000E+00  0.39999999674E+01  0.40000000000E+01  0.51100000000E-03 0. -1.
    9000002   -1    0    0    0    0 -0.00000000000E+00 -0.00000000000E+00  0.00000000000E+00  0.93800000000E+00  0.93800000000E+00 0.  1.
         11    1    1    2    0    0  0.76047510833E-01  0.17741095161E-01  0.11155638707E+01  0.11182937812E+01  0.51100000000E-03 0. -1.
    9000002    1    1    2    0    0 -0.32388456698E+00 -0.13767554214E+00  0.83556700356E-01  0.10053265588E+01  0.93800000000E+00 0.  1.
         22    1    1    2    0    0  0.24783705615E+00  0.11993444698E+00  0.28008793963E+01  0.28143796600E+01  0.00000000000E+00 0. -1.
</event>
<event>
 5    1  0.3005426E+001  0.1589038E+01  0.7818608E-02  0.3365348E+00
         11   -1    0    0    0    0  0.00000000000E+00  0.00000000000E+00  0.39999999674E+01  0.40000000000E+01  0.51100000000E-03 0.  1.
    9000002   -1    0    0    0    0 -0.00000000000E+00 -0.00000000000E+00  0.00000000000E+00  0.93800000000E+00  0.93800000000E+00 0. -1.
         11    1    1    2    0    0  0.20066736437E+00 -0.30663809742E-02  0.62634061771E+00  0.65770785637E+00  0.51100000000E-03 0.  1.
    9000002    1    1    2    0    0 -0.67274614769E+00  0.28328012837E+00  0.39651825584E+00  0.12529587932E+01  0.93800000000E+00 0. -1.
         22    1    1    2    0    0  0.47207878332E+00 -0.28021374740E+00  0.29771410938E+01  0.30273333504E+01  0.00000000000E+00 0.  1.
</event>
<event>
 5    1  0.3005426E+001  0.1531928E+01  0.7818608E-02  0.3430731E+00
         11   -1    0    0    0    0  0.00000000000E+00  0.00000000000E+00  0.39999999674E+01  0.40000000000E+01  0.51100000000E-03 0. -1.
    9000002   -1    0    0    0    0 -0.00000000000E+00 -0.00000000000E+00  0.00000000000E+00  0.93800000000E+00  0.93800000000E+00 0.  1.
         11    1    1    2    0    0  0.70958683537E-01  0.16579192520E+00  0.45838701788E+00  0.49258604985E+00  0.51100000000E-03 0. -1.
    9000002    1    1    2    0    0  0.23970139549E+00  0.10200199590E+00  0.99076082717E-01  0.97853014074E+00  0.93800000000E+00 0.  1.
         22    1    1    2    0    0 -0.31066007902E+00 -0.26779392111E+00  0.34425368668E+01  0.34668838094E+01  0.00000000000E+00 0. -1.
</event>
<event>
 5    1  0.3005426E+001  0.1583624E+01  0.7818608E-02  0.3371332E+00
         11   -1    0    0    0    0  0.00000000000E+00  0.00000000000E+00  0.39999999674E+01  0.40000000000E+01  0.51100000000E-03 0.  1.
    9000002   -1    0    0    0    0 -0.00000000000E+00 -0.00000000000E+00  0.00000000000E+00  0.93800000000E+00  0.93800000000E+00 0.  1.
         11    1    1    2    0    0  0.95831998523E-01 -0.49358952766E-01  0.38427442537E+00  0.39910797195E+00  0.51100000000E-03 0.  1.
    9000002    1    1    2    0    0 -0.34385391425E+00 -0.18702709370E+00  0.11663329897E+00  0.10230649904E+01  0.93800000000E+00 0.  1.
         22    1    1    2    0    0  0.24802191572E+00  0.23638604647E+00  0.34990922430E+01  0.35158270377E+01  0.00000000000E+00 0.  1.
</event>
<event>
 5    1  0.3005426E+001  0.1599673E+01  0.7818608E-02  0.3353719E+00
         11   -1    0    0    0    0  0.00000000000E+00  0.00000000000E+00  0.39999999674E+01  0.40000000000E+01  0.51100000000E-03 0. -1.
    9000002   -1    0    0    0    0 -0.00000000000E+00 -0.00000000000E+00  0.00000000000E+00  0.93800000000E+00  0.93800000000E+00 0. -1.
         11    1    1    2    0    0 -0.15691935948E-01 -0.25623814054E-01  0.25819140355E+00  0.25993437381E+00  0.51100000000E-03 0. -1.
    9000002    1    1    2    0    0  0.22601490695E+00  0.36962039331E+00  0.12718023288E+00  0.10410191088E+01  0.93800000000E+00 0. -1.
         22    1    1    2    0    0 -0.21032297101E+00 -0.34399657926E+00  0.36146283309E+01  0.36370465174E+01  0.00000000000E+00 0. -1.
</event>
<event>
 5    1  0.3005426E+001  0.1599661E+01  0.7818608E-02  0.3353731E+00
         11   -1    0    0    0    0  0.00000000000E+00  0.00000000000E+00  0.39999999674E+01  0.40000000000E+01  0.51100000000E-03 0.  1.
    9000002   -1    0    0    0    0 -0.00000000000E+00 -0.00000000000E+00  0.00000000000E+00  0.93800000000E+00  0.93800000000E+00 0.  1.
         11    1    1    2    0    0 -0.38367895268E-01 -0.20546084280E-01  0.44422359834E+00  0.44635087477E+00  0.51100000000E-03 0.  1.
    9000002    1    1    2    0    0  0.32604435587E+00  0.15713039104E+00  0.87964137556E-01  0.10092455456E+01  0.93800000000E+00 0.  1.
         22    1    1    2    0    0 -0.28767646060E+00 -0.13658430676E+00  0.34678122315E+01  0.34824035796E+01  0.00000000000E+00 0.  1.
</event>
<event>
 5    1  0.3005426E+001  0.1596648E+01  0.7818608E-02  0.3357009E+00
         11   -1    0    0    0    0  0.00000000000E+00  0.00000000000E+00  0.39999999674E+01  0.40000000000E+01  0.51100000000E-03 0.  1.
    9000002   -1    0    0    0    0 -0.00000000000E+00 -0.00000000000E+00  0.00000000000E+00  0.93800000000E+00  0.93800000000E+00 0. -1.
         11    1    1    2    0    0 -0.11964297531E+00  0.20791496101E-01  0.13961986778E+01  0.14014698488E+01  0.51100000000E-03 0.  1.
    9000002    1    1    2    0    0  0.45268545982E+00  0.69597584164E-01  0.14527825415E+00  0.10539059353E+01  0.93800000000E+00 0. -1.
         22    1    1    2    0    0 -0.33304248451E+00 -0.90389080265E-01  0.24585230354E+01  0.24826242160E+01  0.00000000000E+00 0.  1.
</event>
<event>
 5    1  0.3005426E+001  0.1597337E+01  0.7818608E-02  0.3356259E+00
         11   -1    0    0    0    0  0.00000000000E+00  0.00000000000E+00  0.39999999674E+01  0.40000000000E+01  0.51100000000E-03 0. -1.
    9000002   -1    0    0    0    0 -0.00000000000E+00 -0.00000000000E+00  0.00000000000E+00  0.93800000000E+00  0.93800000000E+00 0.  1.
         11    1    1    2    0    0 -0.68623341657E-01  0.22970770666E-01  0.46973221064E+00  0.47527405795E+00  0.51100000000E-03 0. -1.
    9000002    1    1    2    0    0  0.39920371893E+00  0.75744057916E-01  0.11341300260E+00  0.10284975842E+01  0.93800000000E+00 0.  1.
         22    1    1    2    0    0 -0.33058037727E+00 -0.98714828582E-01  0.34168547541E+01  0.34342283579E+01  0.00000000000E+00 0. -1.
</event>
<event>
 5    1  0.3005426E+001  0.1599676E+01  0.7818608E-02  0.3353715E+00
         11   -1    0    0    0    0  0.00000000000E+00  0.00000000000E+00  0.39999999674E+01  0.40000000000E+01  0.51100000000E-03 0. -1.
    9000002   -1    0    0    0    0 -0.00000000000E+00 -0.00000000000E+00  0.00000000000E+00  0.93800000000E+00  0.93800000000E+00 0. -1.
         11    1    1    2    0    0 -0.71073033524E-02 -0.16472715857E-01  0.20096959011E+00  0.20176942632E+00  0.51100000000E-03 0.  1.
    9000002    1    1    2    0    0  0.14232940251E+00  0.32485299085E+00  0.84386131774E-01  0.10063558733E+01  0.93800000000E+00 0. -1.
         22    1    1    2    0    0 -0.13522209916E+00 -0.30838027499E+00  0.37146442455E+01  0.37298747004E+01  0.00000000000E+00 0. -1.
</event>
<event>
 5    1  0.3005426E+001  0.1599676E+01  0.7818608E-02  0.3353715E+00
         11   -1    0    0    0    0  0.00000000000E+00  0.00000000000E+00  0.39999999674E+01  0.40000000000E+01  0.51100000000E-03 0. -1.
    9000002   -1    0    0    0    0 -0.00000000000E+00 -0.00000000000E+00  0.00000000000E+00  0.93800000000E+00  0.93800000000E+00 0. -1.
         11    1    1    2    0    0  0.14044171594E+00 -0.11393033221E+00  0.14458400227E+01  0.14571059085E+01  0.51100000000E-03 0. -1.
    9000002    1    1    2    0    0 -0.37228531875E+00  0.30030726423E+00  0.15606012555E+00  0.10644151325E+01  0.93800000000E+00 0. -1.
         22    1    1    2    0    0  0.23184360282E+00 -0.18637693202E+00  0.23980998191E+01  0.24164789590E+01  0.00000000000E+00 0. -1.
</event>
<event>
 5    1  0.3005426E+001  0.1599642E+01  0.7818608E-02  0.3353752E+00
         11   -1    0    0    0    0  0.00000000000E+00  0.00000000000E+00  0.39999999674E+01  0.40000000000E+01  0.51100000000E-03 0.  1.
    9000002   -1    0    0    0    0 -0.00000000000E+00 -0.00000000000E+00  0.00000000000E+00  0.93800000000E+00  0.93800000000E+00 0.  1.
         11    1    1    2    0    0 -0.12299170113E+00 -0.66692633524E-01  0.13631422027E+01  0.13703035400E+01  0.51100000000E-03 0. -1.
    9000002    1    1    2    0    0  0.35256448943E+00  0.20955081128E+00  0.11364275951E+00  0.10300349210E+01  0.93800000000E+00 0.  1.
         22    1    1    2    0    0 -0.22957278830E+00 -0.14285817776E+00  0.25232150052E+01  0.25376615390E+01  0.00000000000E+00 0.  1.
</event>
<event>
 5    1  0.3005426E+001  0.1599675E+01  0.7818608E-02  0.3353717E+00
         11   -1    0    0    0    0  0.00000000000E+00  0.00000000000E+00  0.39999999674E+01  0.40000000000E+01  0.51100000000E-03 0.  1.
    9000002   -1    0    0    0    0 -0.00000000000E+00 -0.00000000000E+00  0.00000000000E+00  0.93800000000E+00  0.93800000000E+00 0. -1.
         11    1    1    2    0    0 -0.35265821643E-01 -0.20411698220E+00  0.14261197040E+01  0.14410846929E+01  0.51100000000E-03 0.  1.
    9000002    1    1    2    0    0  0.95517380396E-01  0.53836102784E+00  0.20636547766E+00  0.11051637329E+01  0.93800000000E+00 0. -1.
         22    1    1    2    0    0 -0.60251558753E-01 -0.33424404563E+00  0.23675147857E+01  0.23917515742E+01  0.00000000000E+00 0.  1.
</event>
<event>
 5    1  0.3005426E+001  0.1532816E+01  0.7818608E-02  0.3429674E+00
         11   -1    0    0    0    0  0.00000000000E+00  0.00000000000E+00  0.39999999674E+01  0.40000000000E+01  0.51100000000E-03 0. -1.
    9000002   -1    0    0    0    0 -0.00000000000E+00 -0.00000000000E+00  0.00000000000E+00  0.93800000000E+00  0.93800000000E+00 0.  1.
         11    1    1    2    0    0 -0.23047072217E+00  0.27056405678E+00  0.14043897019E+01  0.14486657166E+01  0.51100000000E-03 0. -1.
    9000002    1    1    2    0    0 -0.48100937187E-01 -0.28273311385E+00  0.10873231615E+00  0.98687305688E+00  0.93800000000E+00 0.  1.
         22    1    1    2    0    0  0.27857165936E+00  0.12169057075E-01  0.24868779493E+01  0.25024612265E+01  0.00000000000E+00 0. -1.
</event>
<event>
 5    1  0.3005426E+001  0.1599654E+01  0.7818608E-02  0.3353739E+00
         11   -1    0    0    0    0  0.00000000000E+00  0.00000000000E+00  0.39999999674E+01  0.40000000000E+01  0.51100000000E-03 0. -1.
    9000002   -1    0    0    0    0 -0.00000000000E+00 -0.00000000000E+00  0.00000000000E+00  0.93800000000E+00  0.93800000000E+00 0.  1.
         11    1    1    2    0    0  0.19374237039E-02 -0.59410605500E-01  0.45263872223E+00  0.45652540744E+00  0.51100000000E-03 0. -1.
    9000002    1    1    2    0    0 -0.99536509335E-02  0.47418827523E+00  0.15337123073E+00  0.10622242371E+01  0.93800000000E+00 0.  1.
         22    1    1    2    0    0  0.80162272296E-02 -0.41477766973E+00  0.33939900144E+01  0.34192503554E+01  0.00000000000E+00 0. -1.
</event>
<event>
 5    1  0.3005426E+001  0.1599549E+01  0.7818608E-02  0.3353853E+00
         11   -1    0    0    0    0  0.00000000000E+00  0.00000000000E+00  0.39999999674E+01  0.40000000000E+01  0.51100000000E-03 0. -1.
    9000002   -1    0    0    0    0 -0.00000000000E+00 -0.00000000000E+00  0.00000000000E+00  0.93800000000E+00  0.93800000000E+00 0.  1.
         11    1    1    2    0    0  0.71940528651E-01  0.17493341894E-01  0.64340020238E+00  0.64764615201E+00  0.51100000000E-03 0. -1.
    9000002    1    1    2    0    0 -0.43022427089E+00 -0.44419567974E-01  0.12684157001E+00  0.10406722852E+01  0.93800000000E+00 0.  1.
         22    1    1    2    0    0  0.35828374224E+00  0.26926226081E-01  0.32297581950E+01  0.32496815628E+01  0.00000000000E+00 0. -1.
</event>
<event>
 5    1  0.3005426E+001  0.1599639E+01  0.7818608E-02  0.3353755E+00
         11   -1    0    0    0    0  0.00000000000E+00  0.00000000000E+00  0.39999999674E+01  0.40000000000E+01  0.51100000000E-03 0.  1.
    9000002   -1    0    0    0    0 -0.00000000000E+00 -0.00000000000E+00  0.00000000000E+00  0.93800000000E+00  0.93800000000E+00 0.  1.
         11    1    1    2    0    0 -0.47922376886E-01 -0.45431963923E-01  0.70061041434E+00  0.70371573192E+00  0.51100000000E-03 0.  1.
    9000002    1    1    2    0    0  0.27862067823E+00  0.28170010011E+00  0.10586929384E+00  0.10237366537E+01  0.93800000000E+00 0.  1.
         22    1    1    2    0    0 -0.23069830134E+00 -0.23626813619E+00  0.31935202592E+01  0.32105476144E+01  0.00000000000E+00 0.  1.
</event>
<event>
 5    1  0.3005426E+001  0.1599256E+01  0.7818608E-02  0.3354172E+00
         11   -1    0    0    0    0  0.00000000000E+00  0.00000000000E+00  0.39999999674E+01  0.40000000000E+01  0.51100000000E-03 0.  1.
    9000002   -1    0    0    0    0 -0.00000000000E+00 -0.00000000000E+00  0.00000000000E+00  0.93800000000E+00  0.93800000000E+00 0.  1.
         11    1    1    2    0    0  0.76301147218E-01  0.81550803787E-01  0.77014336927E+00  0.77819886213E+00  0.51100000000E-03 0.  1.
    9000002    1    1    2    0    0 -0.36546181201E+00 -0.30896353570E+00  0.15660203854E+00  0.10646074398E+01  0.93800000000E+00 0.  1.
         22    1    1    2    0    0  0.28916066479E+00  0.22741273192E+00  0.30732545596E+01  0.30951936981E+01  0.00000000000E+00 0.  1.
</event>
<event>
 5    1  0.3005426E+001  0.1538169E+01  0.7818608E-02  0.3423334E+00
         11   -1    0    0    0    0  0.00000000000E+00  0.00000000000E+00  0.39999999674E+01  0.40000000000E+01  0.51100000000E-03 0. -1.
    9000002   -1    0    0    0    0 -0.00000000000E+00 -0.00000000000E+00  0.00000000000E+00  0.93800000000E+00  0.93800000000E+00 0. -1.
         11    1    1    2    0    0  0.21938265187E+00 -0.28685935602E+00  0.12556532559E+01  0.13065536339E+01  0.51100000000E-03 0. -1.
    9000002    1    1    2    0    0  0.74834010345E-01  0.44232180094E+00  0.19179738000E+00  0.10572979427E+01  0.93800000000E+00 0. -1.
         22    1    1    2    0    0 -0.29421666222E+00 -0.15546244492E+00  0.25525493315E+01  0.25741484234E+01  0.00000000000E+00 0. -1.
</event>
<event>
 5    1  0.3005426E+001  0.1599621E+01  0.7818608E-02  0.3353775E+00
         11   -1    0    0    0    0  0.00000000000E+00  0.00000000000E+00  0.39999999674E+01  0.40000000000E+01  0.51100000000E-03 0. -1.
    9000002   -1    0    0    0    0 -0.00000000000E+00 -0.00000000000E+00  0.00000000000E+00  0.93800000000E+00  0.93800000000E+00 0.  1.
         11    1    1    2    0    0  0.69408986705E-01  0.67900358757E-01  0.73730993983E+00  0.74367618937E+00  0.51100000000E-03 0. -1.
    9000002    1    1    2    0    0 -0.32467145245E+00 -0.35654256960E+00  0.15876837453E+00  0.10665765574E+01  0.93800000000E+00 0.  1.
         22    1    1    2    0    0  0.25526246574E+00  0.28864221084E+00  0.31039216530E+01  0.31277472533E+01  0.00000000000E+00 0. -1.
</event>
<event>
 5    1  0.3005426E+001  0.1599677E+01  0.7818608E-02  0.3353714E+00
         11   -1    0    0    0    0  0.00000000000E+00  0.00000000000E+00  0.39999999674E+01  0.40000000000E+01  0.51100000000E-03 0.  1.
    9000002   -1    0    0    0    0 -0.00000000000E+00 -0.00000000000E+00  0.00000000000E+00  0.93800000000E+00  0.93800000000E+00 0.  1.
         11    1    1    2    0    0  0.10672235632E+00  0.12302398125E+00  0.10674592744E+01  0.10798120785E+01  0.51100000000E-03 0.  1.
    9000002    1    1    2    0    0 -0.37754663389E+00 -0.43631679861E+00  0.23116438232E+00  0.11252532076E+01  0.93800000000E+00 0.  1.
         22    1    1    2    0    0  0.27082427757E+00  0.31329281735E+00  0.27013763107E+01  0.27329347139E+01  0.00000000000E+00 0.  1.
</event>
<event>
 5    1  0.3005426E+001  0.1599675E+01  0.7818608E-02  0.3353716E+00
         11   -1    0    0    0    0  0.00000000000E+00  0.00000000000E+00  0.39999999674E+01  0.40000000000E+01  0.51100000000E-03 0. -1.
    9000002   -1    0    0    0    0 -0.00000000000E+00 -0.00000000000E+00  0.00000000000E+00  0.93800000000E+00  0.93800000000E+00 0. -1.
         11    1    1    2    0    0 -0.97008920963E-02 -0.11560096719E+00  0.12458306004E+01  0.12512201393E+01  0.51100000000E-03 0. -1.
    9000002    1    1    2    0    0  0.34062673852E-01  0.36557845138E+00  0.90567440934E-01  0.10113626111E+01  0.93800000000E+00 0. -1.
         22    1    1    2    0    0 -0.24361781756E-01 -0.24997748418E+00  0.26636019260E+01  0.26754172495E+01  0.00000000000E+00 0. -1.
</event>
<event>
 5    1  0.3005426E+001  0.1598333E+01  0.7818608E-02  0.3355174E+00
         11   -1    0    0    0    0  0.00000000000E+00  0.00000000000E+00  0.39999999674E+01  0.40000000000E+01  0.51100000000E-03 0. -1.
    9000002   -1    0    0    0    0 -0.00000000000E+00 -0.00000000000E+00  0.00000000000E+00  0.93800000000E+00  0.93800000000E+00 0. -1.
         11    1    1    2    0    0  0.44118502896E+00  0.24405799133E+00  0.97122252660E+00  0.10942952025E+01  0.51100000000E-03 0. -1.
    9000002    1    1    2    0    0 -0.10701208005E+01 -0.56713564769E+00  0.14302012204E+01  0.20957387483E+01  0.93800000000E+00 0. -1.
         22    1    1    2    0    0  0.62893577151E+00  0.32307765636E+00  0.15985762204E+01  0.17479660492E+01  0.00000000000E+00 0. -1.
</event>
<event>
 5    1  0.3005426E+001  0.1479487E+01  0.7818608E-02  0.3495536E+00
         11   -1    0    0    0    0  0.00000000000E+00  0.00000000000E+00  0.39999999674E+01  0.40000000000E+01  0.51100000000E-03 0.  1.
    9000002   -1    0    0    0    0 -0.00000000000E+00 -0.00000000000E+00  0.00000000000E+00  0.93800000000E+00  0.93800000000E+00 0. -1.
         11    1    1    2    0    0  0.39870121397E+00  0.16272093362E+00  0.11528719336E+01  0.12306724652E+01  0.51100000000E-03 0.  1.
    9000002    1    1    2    0    0 -0.14386816266E+00 -0.60587533948E-01  0.11088294123E+00  0.95734420359E+00  0.93800000000E+00 0. -1.
         22    1    1    2    0    0 -0.25483305131E+00 -0.10213339967E+00  0.27362450925E+01  0.27499833312E+01  0.00000000000E+00 0.  1.
</event>
<event>
 5    1  0.3005426E+001  0.1599062E+01  0.7818608E-02  0.3354382E+00
         11   -1    0    0    0    0  0.00000000000E+00  0.00000000000E+00  0.39999999674E+01  0.40000000000E+01  0.51100000000E-03 0.  1.
    9000002   -1    0    0    0    0 -0.00000000000E+00 -0.00000000000E+00  0.00000000000E+00  0.93800000000E+00  0.93800000000E+00 0. -1.
         11    1    1    2    0    0 -0.12818912168E+00  0.97432316836E-02  0.13166882851E+01  0.13229496145E+01  0.51100000000E-03 0.  1.
    9000002    1    1    2    0    0  0.42702148266E+00 -0.95101420761E-01  0.13028018534E+00  0.10431723509E+01  0.93800000000E+00 0. -1.
         22    1    1    2    0    0 -0.29883236099E+00  0.85358189077E-01  0.25530314970E+01  0.25718780346E+01  0.00000000000E+00 0.  1.
</event>
<event>
 5    1  0.3005426E+001  0.1599659E+01  0.7818608E-02  0.3353733E+00
         11   -1    0    0    0    0  0.00000000000E+00  0.00000000000E+00  0.39999999674E+01  0.40000000000E+01  0.51100000000E-03 0.  1.
    9000002   -1    0    0    0    0 -0.00000000000E+00 -0.00000000000E+00  0.00000000000E+00  0.93800000000E+00  0.93800000000E+00 0. -1.
         11    1    1    2    0    0 -0.61523844300E-02 -0.13688384861E-01  0.16878014776E+00  0.16944681500E+00  0.51100000000E-03 0.  1.
    9000002    1    1    2    0    0  0.18894533466E+00  0.31794518400E+00  0.91940667451E-01  0.10124655875E+01  0.93800000000E+00 0. -1.
         22    1    1    2    0    0 -0.18279295023E+00 -0.30425679914E+00  0.37392791521E+01  0.37560875975E+01  0.00000000000E+00 0.  1.
</event>
<event>
 5    1  0.3005426E+001  0.1559249E+01  0.7818608E-02  0.3398817E+00
         11   -1    0    0    0    0  0.00000000000E+00  0.00000000000E+00  0.39999999674E+01  0.40000000000E+01  0.51100000000E-03 0.  1.
    9000002   -1    0    0    0    0 -0.00000000000E+00 -0.00000000000E+00  0.00000000000E+00  0.93800000000E+00  0.93800000000E+00 0. -1.
         11    1    1    2    0    0 -0.88358695049E-01 -0.15336124263E+00  0.14587733280E+01  0.14694716103E+01  0.51100000000E-03 0.  1.
    9000002    1    1    2    0    0  0.63922974666E-01 -0.19220256209E+00  0.58127036869E-01  0.96137959411E+00  0.93800000000E+00 0. -1.
         22    1    1    2    0    0  0.24435720382E-01  0.34556380472E+00  0.24830996025E+01  0.25071487956E+01  0.00000000000E+00 0.  1.
</event>
<event>
 5    1  0.3005426E+001  0.1599677E+01  0.7818608E-02  0.3353714E+00
         11   -1    0    0    0    0  0.00000000000E+00  0.00000000000E+00  0.39999999674E+01  0.40000000000E+01  0.51100000000E-03 0.  1.
    9000002   -1    0    0    0    0 -0.00000000000E+00 -0.00000000000E+00  0.00000000000E+00  0.93800000000E+00  0.93800000000E+00 0. -1.
         11    1    1    2    0    0 -0.53162533803E-01 -0.42425847145E-02  0.36017315366E+00  0.36410055790E+00  0.51100000000E-03 0. -1.
    9000002    1    1    2    0    0  0.55822247655E+00  0.45673635675E-01  0.21709257113E+00  0.11138543885E+01  0.93800000000E+00 0.  1.
         22    1    1    2    0    0 -0.50505994274E+00 -0.41431050961E-01  0.34227342426E+01  0.34600450536E+01  0.00000000000E+00 0.  1.
</event>
<event>
 5    1  0.3005426E+001  0.1565909E+01  0.7818608E-02  0.3391217E+00
         11   -1    0    0    0    0  0.00000000000E+00  0.00000000000E+00  0.39999999674E+01  0.40000000000E+01  0.51100000000E-03 0.  1.
    9000002   -1    0    0    0    0 -0.00000000000E+00 -0.00000000000E+00  0.00000000000E+00  0.93800000000E+00  0.93800000000E+00 0.  1.
         11    1    1    2    0    0  0.10179939945E+00 -0.55320849507E-01  0.41910939324E+00  0.43482922940E+00  0.51100000000E-03 0.  1.
    9000002    1    1    2    0    0  0.28260704382E+00  0.16431973408E+00  0.98804660777E-01  0.99823548184E+00  0.93800000000E+00 0.  1.
         22    1    1    2    0    0 -0.38440644326E+00 -0.10899888457E+00  0.34820859133E+01  0.35049352888E+01  0.00000000000E+00 0.  1.
</event>
<event>
 5    1  0.3005426E+001  0.1599552E+01  0.7818608E-02  0.3353849E+00
         11   -1    0    0    0    0  0.00000000000E+00  0.00000000000E+00  0.39999999674E+01  0.40000000000E+01  0.51100000000E-03 0.  1.
    9000002   -1    0    0    0    0 -0.00000000000E+00 -0.00000000000E+00  0.00000000000E+00  0.93800000000E+00  0.93800000000E+00 0.  1.
         11    1    1    2    0    0  0.21763726840E-01 -0.10732251257E+00  0.11227843124E+01  0.11281119868E+01  0.51100000000E-03 0.  1.
    9000002    1    1    2    0    0 -0.37348462851E-01  0.39048522344E+00  0.10379213049E+00  0.10220031427E+01  0.93800000000E+00 0.  1.
         22    1    1    2    0    0  0.15584736011E-01 -0.28316271086E+00  0.27734235245E+01  0.27878848704E+01  0.00000000000E+00 0.  1.
</event>
<event>
 5    1  0.3005426E+001  0.1508717E+01  0.7818608E-02  0.3458816E+00
         11   -1    0    0    0    0  0.00000000000E+00  0.00000000000E+00  0.39999999674E+01  0.40000000000E+01  0.51100000000E-03 0. -1.
    9000002   -1    0    0    0    0 -0.00000000000E+00 -0.00000000000E+00  0.00000000000E+00  0.93800000000E+00  0.93800000000E+00 0. -1.
         11    1    1    2    0    0 -0.46042360720E-01 -0.48598988228E+00  0.12837200238E+01  0.13734057759E+01  0.51100000000E-03 0. -1.
    9000002    1    1    2    0    0  0.35941076255E+00  0.41957461183E+00  0.30277889348E+00  0.11299283205E+01  0.93800000000E+00 0. -1.
         22    1    1    2    0    0 -0.31336840183E+00  0.66415270454E-01  0.24135010501E+01  0.24346659036E+01  0.00000000000E+00 0. -1.
</event>
<event>
 5    1  0.3005426E+001  0.1599677E+01  0.7818608E-02  0.3353714E+00
         11   -1    0    0    0    0  0.00000000000E+00  0.00000000000E+00  0.39999999674E+01  0.40000000000E+01  0.51100000000E-03 0. -1.
    9000002   -1    0    0    0    0 -0.00000000000E+00 -0.00000000000E+00  0.00000000000E+00  0.93800000000E+00  0.93800000000E+00 0. -1.
         11    1    1    2    0    0 -0.80659133692E-01  0.25859574807E-01  0.58559682535E+00  0.59169123404E+00  0.51100000000E-03 0.  1.
    9000002    1    1    2    0    0  0.52124499860E+00 -0.16651824479E+00  0.20670346740E+00  0.11054388259E+01  0.93800000000E+00 0. -1.
         22    1    1    2    0    0 -0.44058586491E+00  0.14065866998E+00  0.32076996746E+01  0.32408699400E+01  0.00000000000E+00 0. -1.
</event>
<event>
 5    1  0.3005426E+001  0.1599651E+01  0.7818608E-02  0.3353743E+00
         11   -1    0    0    0    0  0.00000000000E+00  0.00000000000E+00  0.39999999674E+01  0.40000000000E+01  0.51100000000E-03 0.  1.
    9000002   -1    0    0    0    0 -0.00000000000E+00 -0.00000000000E+00  0.00000000000E+00  0.93800000000E+00  0.93800000000E+00 0.  1.
         11    1    1    2    0    0  0.55757116383E-01  0.29041613639E-01  0.52822586564E+00  0.53195403711E+00  0.51100000000E-03 0.  1.
    9000002    1    1    2    0    0 -0.38255846666E+00 -0.23024015316E+00  0.13535634052E+00  0.10476291555E+01  0.93800000000E+00 0.  1.
         22    1    1    2    0    0  0.32680135028E+00  0.20119853952E+00  0.33364177612E+01  0.33584168074E+01  0.00000000000E+00 0.  1.
</event>
<event>
 5    1  0.3005426E+001  0.1599472E+01  0.7818608E-02  0.3353937E+00
         11   -1    0    0    0    0  0.00000000000E+00  0.00000000000E+00  0.39999999674E+01  0.40000000000E+01  0.51100000000E-03 0. -1.
    9000002   -1    0    0    0    0 -0.00000000000E+00 -0.00000000000E+00  0.00000000000E+00  0.93800000000E+00  0.93800000000E+00 0.  1.
         11    1    1    2    0    0  0.54832618961E-01 -0.27604749776E-01  0.63226738182E+00  0.63524085317E+00  0.51100000000E-03 0. -1.
    9000002    1    1    2    0    0 -0.35852264932E+00  0.94676388494E-01  0.92582949062E-01  0.10128759604E+01  0.93800000000E+00 0.  1.
         22    1    1    2    0    0  0.30369003036E+00 -0.67071638719E-01  0.32751496365E+01  0.32898831865E+01  0.00000000000E+00 0. -1.
</event>
<event>
 5    1  0.3005426E+001  0.1599677E+01  0.7818608E-02  0.3353714E+00
         11   -1    0    0    0    0  0.00000000000E+00  0.00000000000E+00  0.39999999674E+01  0.40000000000E+01  0.51100000000E-03 0.  1.
    9000002   -1    0    0    0    0 -0.00000000000E+00 -0.00000000000E+00  0.00000000000E+00  0.93800000000E+00  0.93800000000E+00 0. -1.
         11    1    1    2    0    0 -0.17407645591E+00  0.11298290960E-01  0.12095987014E+01  0.12221127376E+01  0.51100000000E-03 0.  1.
    9000002    1    1    2    0    0  0.54558834747E+00 -0.37148363362E-01  0.20642907377E+00  0.11052165436E+01  0.93800000000E+00 0. -1.
         22    1    1    2    0    0 -0.37151189156E+00  0.25850072402E-01  0.25839721922E+01  0.26106707188E+01  0.00000000000E+00 0.  1.
</event>
<event>
 5    1  0.3005426E+001  0.1599657E+01  0.7818608E-02  0.3353736E+00
         11   -1    0    0    0    0  0.00000000000E+00  0.00000000000E+00  0.39999999674E+01  0.40000000000E+01  0.51100000000E-03 0.  1.
    9000002   -1    0    0    0    0 -0.00000000000E+00 -0.00000000000E+00  0.00000000000E+00  0.93800000000E+00  0.93800000000E+00 0.  1.
         11    1    1    2    0    0 -0.51455505282E+00  0.16355426868E-01  0.13175100074E+01  0.14145201600E+01  0.51100000000E-03 0.  1.
    9000002    1    1    2    0    0  0.11210254538E+01 -0.43262180260E-01  0.11039867968E+01  0.18322665013E+01  0.93800000000E+00 0.  1.
         22    1    1    2    0    0 -0.60647040103E+00  0.26906753392E-01  0.15785031632E+01  0.16912133387E+01  0.00000000000E+00 0.  1.
</event>
<event>
 5    1  0.3005426E+001  0.1579003E+01  0.7818608E-02  0.3376473E+00
         11   -1    0    0    0    0  0.00000000000E+00  0.00000000000E+00  0.39999999674E+01  0.40000000000E+01  0.51100000000E-03 0.  1.
    9000002   -1    0    0    0    0 -0.00000000000E+00 -0.00000000000E+00  0.00000000000E+00  0.93800000000E+00  0.93800000000E+00 0. -1.
         11    1    1    2    0    0 -0.58672812763E-01  0.60584875894E-01  0.71611034455E+00  0.72105985386E+00  0.51100000000E-03 0.  1.
    9000002    1    1    2    0    0 -0.25803960262E+00  0.11569069572E+00  0.69482173190E-01  0.98216116090E+00  0.93800000000E+00 0. -1.
         22    1    1    2    0    0  0.31671241538E+00 -0.17627557161E+00  0.32144074496E+01  0.32347789852E+01  0.00000000000E+00 0.  1.
</event>
<event>
 5    1  0.3005426E+001  0.1599507E+01  0.7818608E-02  0.3353899E+00
         11   -1    0    0    0    0  0.00000000000E+00  0.00000000000E+00  0.39999999674E+01  0.40000000000E+01  0.51100000000E-03 0.  1.
    9000002   -1    0    0    0    0 -0.00000000000E+00 -0.00000000000E+00  0.00000000000E+00  0.93800000000E+00  0.93800000000E+00 0.  1.
         11    1    1    2    0    0 -0.70937412232E-01  0.13475087436E+00  0.11742990497E+01  0.11841319327E+01  0.51100000000E-03 0.  1.
    9000002    1    1    2    0    0  0.22335579828E+00 -0.39605311896E+00  0.14066412097E+00  0.10518442283E+01  0.93800000000E+00 0.  1.
         22    1    1    2    0    0 -0.15241838605E+00  0.26130224460E+00  0.26850367966E+01  0.27020238390E+01  0.00000000000E+00 0.  1.
</event>
<event>
 5    1  0.3005426E+001  0.1595728E+01  0.7818608E-02  0.3358013E+00
         11   -1    0    0    0    0  0.00000000000E+00  0.00000000000E+00  0.39999999674E+01  0.40000000000E+01  0.51100000000E-03 0.  1.
    9000002   -1    0    0    0    0 -0.00000000000E+00 -0.00000000000E+00  0.00000000000E+00  0.93800000000E+00  0.93800000000E+00 0. -1.
         11    1    1    2    0    0  0.60914627657E-02  0.10986474950E-02  0.71223605454E+00  0.71226313358E+00  0.51100000000E-03 0.  1.
    9000002    1    1    2    0    0 -0.27866579622E+00 -0.21345054498E+00  0.85814899078E-01  0.10051984670E+01  0.93800000000E+00 0. -1.
         22    1    1    2    0    0  0.27257433346E+00  0.21235189748E+00  0.32019490137E+01  0.32205383994E+01  0.00000000000E+00 0.  1.
</event>
<event>
 5    1  0.3005426E+001  0.1552779E+01  0.7818608E-02  0.3406266E+00
         11   -1    0    0    0    0  0.00000000000E+00  0.00000000000E+00  0.39999999674E+01  0.40000000000E+01  0.51100000000E-03 0.  1.
    9000002   -1    0    0    0    0 -0.00000000000E+00 -0.00000000000E+00  0.00000000000E+00  0.93800000000E+00  0.93800000000E+00 0. -1.
         11    1    1    2    0    0  0.73651315324E-01  0.17907275156E+00  0.10380841224E+01  0.10559879132E+01  0.51100000000E-03 0.  1.
    9000002    1    1    2    0    0 -0.32283388426E-01  0.15612033491E+00  0.52329231395E-01  0.95288935591E+00  0.93800000000E+00 0. -1.
         22    1    1    2    0    0 -0.41367926898E-01 -0.33519308647E+00  0.29095866136E+01  0.29291227309E+01  0.00000000000E+00 0.  1.
</event>
<event>
 5    1  0.3005426E+001  0.1599674E+01  0.7818608E-02  0.3353717E+00
         11   -1    0    0    0    0  0.00000000000E+00  0.00000000000E+00  0.39999999674E+01  0.40000000000E+01  0.51100000000E-03 0. -1.
    9000002   -1    0    0    0    0 -0.00000000000E+00 -0.00000000000E+00  0.00000000000E+00  0.93800000000E+00  0.93800000000E+00 0.  1.
         11    1    1    2    0    0  0.11929153936E-01  0.47748133521E-02  0.66153747332E-01  0.67392009640E-01  0.51100000000E-03 0.  1.
    9000002    1    1    2    0    0 -0.65816814305E+00 -0.27626771368E+00  0.36551255483E+00  0.12340796497E+01  0.93800000000E+00 0.  1.
         22    1    1    2    0    0  0.64623898912E+00  0.27149290033E+00  0.35683336652E+01  0.36365283406E+01  0.00000000000E+00 0. -1.
</event>
<event>
 5    1  0.3005426E+001  0.1599676E+01  0.7818608E-02  0.3353715E+00
         11   -1    0    0    0    0  0.00000000000E+00  0.00000000000E+00  0.39999999674E+01  0.40000000000E+01  0.51100000000E-03 0. -1.
    9000002   -1    0    0    0    0 -0.00000000000E+00 -0.00000000000E+00  0.00000000000E+00  0.93800000000E+00  0.93800000000E+00 0.  1.
         11    1    1    2    0    0  0.19095143773E+00 -0.37504309210E-02  0.99236131125E+00  0.10105729813E+01  0.51100000000E-03 0. -1.
    9000002    1    1    2    0    0 -0.70370712572E+00  0.15521177798E-01  0.35445360790E+00  0.12251228452E+01  0.93800000000E+00 0.  1.
         22    1    1    2    0    0  0.51275568799E+00 -0.11770746877E-01  0.26531850482E+01  0.27023041735E+01  0.00000000000E+00 0. -1.
</event>
<event>
 5    1  0.3005426E+001  0.1593831E+01  0.7818608E-02  0.3360087E+00
         11   -1    0    0    0    0  0.00000000000E+00  0.00000000000E+00  0.39999999674E+01  0.40000000000E+01  0.51100000000E-03 0. -1.
    9000002   -1    0    0    0    0 -0.00000000000E+00 -0.00000000000E+00  0.00000000000E+00  0.93800000000E+00  0.93800000000E+00 0.  1.
         11    1    1    2    0    0 -0.62885083884E-01  0.11214969753E-01  0.24828995919E+00  0.25637565071E+00  0.51100000000E-03 0. -1.
    9000002    1    1    2    0    0  0.36913082588E+00  0.18346333895E+00  0.11971799225E+00  0.10315487197E+01  0.93800000000E+00 0.  1.
         22    1    1    2    0    0 -0.30624574199E+00 -0.19467830871E+00  0.36319920159E+01  0.36500756296E+01  0.00000000000E+00 0. -1.
</event>
<event>
 5    1  0.3005426E+001  0.1596513E+01  0.7818608E-02  0.3357157E+00
         11   -1    0    0    0    0  0.00000000000E+00  0.00000000000E+00  0.39999999674E+01  0.40000000000E+01  0.51100000000E-03 0.  1.
    9000002   -1    0    0    0    0 -0.00000000000E+00 -0.00000000000E+00  0.00000000000E+00  0.93800000000E+00  0.93800000000E+00 0. -1.
         11    1    1    2    0    0 -0.14602522239E+00 -0.32574355802E-01  0.13629778176E+01  0.13711649232E+01  0.51100000000E-03 0.  1.
    9000002    1    1    2    0    0  0.37555075433E+00 -0.86614377048E-01  0.10262092955E+00  0.10192720317E+01  0.93800000000E+00 0. -1.
         22    1    1    2    0    0 -0.22952553194E+00  0.11918873285E+00  0.25344012202E+01  0.25475630451E+01  0.00000000000E+00 0.  1.
</event>
<event>
 5    1  0.3005426E+001  0.1597251E+01  0.7818608E-02  0.3356353E+00
         11   -1    0    0    0    0  0.00000000000E+00  0.00000000000E+00  0.39999999674E+01  0.40000000000E+01  0.51100000000E-03 0. -1.
    9000002   -1    0    0    0    0 -0.00000000000E+00 -0.00000000000E+00  0.00000000000E+00  0.93800000000E+00  0.93800000000E+00 0. -1.
         11    1    1    2    0    0  0.71589510694E-01  0.10194186367E+00  0.86949132048E+00  0.87836929542E+00  0.51100000000E-03 0. -1.
    9000002    1    1    2    0    0 -0.34763985840E+00 -0.23552983701E+00  0.12130056091E+00  0.10348360263E+01  0.93800000000E+00 0. -1.
         22    1    1    2    0    0  0.27605034771E+00  0.13358797334E+00  0.30092080860E+01  0.30247946783E+01  0.00000000000E+00 0. -1.
</event>
<event>
 5    1  0.3005426E+001  0.1599632E+01  0.7818608E-02  0.3353763E+00
         11   -1    0    0    0    0  0.00000000000E+00  0.00000000000E+00  0.39999999674E+01  0.40000000000E+01  0.51100000000E-03 0. -1.
    9000002   -1    0    0    0    0 -0.00000000000E+00 -0.00000000000E+00  0.00000000000E+00  0.93800000000E+00  0.93800000000E+00 0. -1.
         11    1    1    2    0    0 -0.89323296199E-01 -0.22162408454E-01  0.70445564602E+00  0.71044200462E+00  0.51100000000E-03 0. -1.
    9000002    1    1    2    0    0  0.46886733422E+00  0.92179183497E-01  0.15578268157E+00  0.10641643777E+01  0.93800000000E+00 0. -1.
         22    1    1    2    0    0 -0.37954403802E+00 -0.70016775043E-01  0.31397616398E+01  0.31633936176E+01  0.00000000000E+00 0. -1.
</event>
<event>
 5    1  0.3005426E+001  0.1590749E+01  0.7818608E-02  0.3363466E+00
         11   -1    0    0    0    0  0.00000000000E+00  0.00000000000E+00  0.39999999674E+01  0.40000000000E+01  0.51100000000E-03 0.  1.
    9000002   -1    0    0    0    0 -0.00000000000E+00 -0.00000000000E+00  0.00000000000E+00  0.93800000000E+00  0.93800000000E+00 0.  1.
         11    1    1    2    0    0  0.20690372625E-01 -0.61491433602E-01  0.10119257545E+01  0.10140035905E+01  0.51100000000E-03 0.  1.
    9000002    1    1    2    0    0 -0.35599591779E+00 -0.30724164469E-01  0.92935265542E-01  0.10080466415E+01  0.93800000000E+00 0.  1.
         22    1    1    2    0    0  0.33530554516E+00  0.92215598071E-01  0.28951389474E+01  0.29159497680E+01  0.00000000000E+00 0. -1.
</event>
<event>
 5    1  0.3005426E+001  0.1599676E+01  0.7818608E-02  0.3353715E+00
         11   -1    0    0    0    0  0.00000000000E+00  0.00000000000E+00  0.39999999674E+01  0.40000000000E+01  0.51100000000E-03 0. -1.
    9000002   -1    0    0    0    0 -0.00000000000E+00 -0.00000000000E+00  0.00000000000E+00  0.93800000000E+00  0.93800000000E+00 0.  1.
         11    1    1    2    0    0 -0.77112127625E-01 -0.84704661172E-01  0.10590505754E+01  0.10652274603E+01  0.51100000000E-03 0.  1.
    9000002    1    1    2    0    0  0.28160959305E+00  0.31424537010E+00  0.12045195026E+00  0.10355707546E+01  0.93800000000E+00 0.  1.
         22    1    1    2    0    0 -0.20449746542E+00 -0.22954070892E+00  0.28204974417E+01  0.28372017850E+01  0.00000000000E+00 0. -1.
</event>
<event>
 5    1  0.3005426E+001  0.1591617E+01  0.7818608E-02  0.3362513E+00
         11   -1    0    0    0    0  0.00000000000E+00  0.00000000000E+00  0.39999999674E+01  0.40000000000E+01  0.51100000000E-03 0. -1.
    9000002   -1    0    0    0    0 -0.00000000000E+00 -0.00000000000E+00  0.00000000000E+00  0.93800000000E+00  0.93800000000E+00 0.  1.
         11    1    1    2    0    0 -0.21641525724E-01 -0.11562608010E+00  0.64561578175E+00  0.65624518650E+00  0.51100000000E-03 0. -1.
    9000002    1    1    2    0    0  0.40900102920E+00  0.29529275894E+00  0.18166207993E+00  0.10804280479E+01  0.93800000000E+00 0.  1.
         22    1    1    2    0    0 -0.38735950348E+00 -0.17966667884E+00  0.31727221057E+01  0.32013267656E+01  0.00000000000E+00 0. -1.
</event>
<event>
 5    1  0.3005426E+001  0.1597007E+01  0.7818608E-02  0.3356619E+00
         11   -1    0    0    0    0  0.00000000000E+00  0.00000000000E+00  0.39999999674E+01  0.40000000000E+01  0.51100000000E-03 0. -1.
    9000002   -1    0    0    0    0 -0.00000000000E+00 -0.00000000000E+00  0.00000000000E+00  0.93800000000E+00  0.93800000000E+00 0. -1.
         11    1    1    2    0    0  0.19467266269E+00 -0.71119996588E-01  0.14139278429E+01  0.14290373353E+01  0.51100000000E-03 0. -1.
    9000002    1    1    2    0    0 -0.37191422475E+00  0.22986408620E+00  0.13187760665E+00  0.10432609414E+01  0.93800000000E+00 0. -1.
         22    1    1    2    0    0  0.17724156206E+00 -0.15874408961E+00  0.24541945178E+01  0.24657017233E+01  0.00000000000E+00 0. -1.
</event>
<event>
 5    1  0.3005426E+001  0.1599669E+01  0.7818608E-02  0.3353722E+00
         11   -1    0    0    0    0  0.00000000000E+00  0.00000000000E+00  0.39999999674E+01  0.40000000000E+01  0.51100000000E-03 0. -1.
    9000002   -1    0    0    0    0 -0.00000000000E+00 -0.00000000000E+00  0.00000000000E+00  0.93800000000E+00  0.93800000000E+00 0. -1.
         11    1    1    2    0    0 -0.40264411809E-01  0.67693592400E-01  0.85366199297E+00  0.85728799401E+00  0.51100000000E-03 0. -1.
    9000002    1    1    2    0    0  0.19686441894E+00 -0.31028903269E+00  0.90727990825E-01  0.10114892246E+01  0.93800000000E+00 0. -1.
         22    1    1    2    0    0 -0.15660000713E+00  0.24259544029E+00  0.30556099836E+01  0.30692227814E+01  0.00000000000E+00 0. -1.
</event>
<event>
 5    1  0.3005426E+001  0.1529673E+01  0.7818608E-02  0.3433419E+00
         11   -1    0    0    0    0  0.00000000000E+00  0.00000000000E+00  0.39999999674E+01  0.40000000000E+01  0.51100000000E-03 0. -1.
    9000002   -1    0    0    0    0 -0.00000000000E+00 -0.00000000000E+00  0.00000000000E+00  0.93800000000E+00  0.93800000000E+00 0. -1.
         11    1    1    2    0    0 -0.17914930545E+00 -0.18887509386E+00  0.96934946525E+00  0.10036966283E+01  0.51100000000E-03 0. -1.
    9000002    1    1    2    0    0 -0.76796307325E-01 -0.78711165827E-02  0.56694949246E-01  0.94287748121E+00  0.93800000000E+00 0. -1.
         22    1    1    2    0    0  0.25594561277E+00  0.19674621044E+00  0.29739555529E+01  0.29914258905E+01  0.00000000000E+00 0. -1.
</event>
<event>
 5    1  0.3005426E+001  0.1599653E+01  0.7818608E-02  0.3353741E+00
         11   -1    0    0    0    0  0.00000000000E+00  0.00000000000E+00  0.39999999674E+01  0.40000000000E+01  0.51100000000E-03 0.  1.
    9000002   -1    0    0    0    0 -0.00000000000E+00 -0.00000000000E+00  0.00000000000E+00  0.93800000000E+00  0.93800000000E+00 0.  1.
         11    1    1    2    0    0  0.62596861272E-01  0.47954202201E-01  0.51595854007E+00  0.52194966112E+00  0.51100000000E-03 0.  1.
    9000002    1    1    2    0    0 -0.43676039143E+00 -0.37184787344E+00  0.22833582515E+00  0.11229477858E+01  0.93800000000E+00 0.  1.
         22    1    1    2    0    0  0.37416353016E+00  0.32389367124E+00  0.32557056021E+01  0.32931025531E+01  0.00000000000E+00 0.  1.
</event>
<event>
 5    1  0.3005426E+001  0.1599677E+01  0.7818608E-02  0.3353714E+00
         11   -1    0    0    0    0  0.00000000000E+00  0.00000000000E+00  0.39999999674E+01  0.40000000000E+01  0.51100000000E-03 0. -1.
    9000002   -1    0    0    0    0 -0.00000000000E+00 -0.00000000000E+00  0.00000000000E+00  0.93800000000E+00  0.93800000000E+00 0. -1.
         11    1    1    2    0    0  0.41591202433E-01 -0.44451745183E-01  0.43499039743E+00  0.43922965832E+00  0.51100000000E-03 0.  1.
    9000002    1    1    2    0    0 -0.36240105976E+00  0.38889571892E+00  0.19450817987E+00  0.10955600578E+01  0.93800000000E+00 0. -1.
         22    1    1    2    0    0  0.32080985733E+00 -0.34444397374E+00  0.33705013901E+01  0.34032102838E+01  0.00000000000E+00 0. -1.
</event>
<event>
 5    1  0.3005426E+001  0.1599677E+01  0.7818608E-02  0.3353714E+00
         11   -1    0    0    0    0  0.00000000000E+00  0.00000000000E+00  0.39999999674E+01  0.40000000000E+01  0.51100000000E-03 0.  1.
    9000002   -1    0    0    0    0 -0.00000000000E+00 -0.00000000000E+00  0.00000000000E+00  0.93800000000E+00  0.93800000000E+00 0. -1.
         11    1    1    2    0    0  0.59332531107E-02 -0.19262464025E+00  0.12428804191E+01  0.12577326635E+01  0.51100000000E-03 0.  1.
    9000002    1    1    2    0    0 -0.17870713916E-01  0.58124851449E+00  0.23503058350E+00  0.11283849402E+01  0.93800000000E+00 0. -1.
         22    1    1    2    0    0  0.11937460805E-01 -0.38862387423E+00  0.25220889647E+01  0.25518823963E+01  0.00000000000E+00 0.  1.
</event>
<event>
 5    1  0.3005426E+001  0.1580425E+01  0.7818608E-02  0.3374887E+00
         11   -1    0    0    0    0  0.00000000000E+00  0.00000000000E+00  0.39999999674E+01  0.40000000000E+01  0.51100000000E-03 0.  1.
    9000002   -1    0    0    0    0 -0.00000000000E+00 -0.00000000000E+00  0.00000000000E+00  0.93800000000E+00  0.93800000000E+00 0.  1.
         11    1    1    2    0    0 -0.95430900025E-01  0.60003592711E-01  0.10272095638E+01  0.10333766191E+01  0.51100000000E-03 0.  1.
    9000002    1    1    2    0    0 -0.18559228648E+00 -0.12170284404E+00  0.47341634447E-01  0.96506026206E+00  0.93800000000E+00 0.  1.
         22    1    1    2    0    0  0.28102318650E+00  0.61699251332E-01  0.29254487691E+01  0.29395631188E+01  0.00000000000E+00 0.  1.
</event>
<event>
 5    1  0.3005426E+001  0.1593577E+01  0.7818608E-02  0.3360364E+00
         11   -1    0    0    0    0  0.00000000000E+00  0.00000000000E+00  0.39999999674E+01  0.40000000000E+01  0.51100000000E-03 0.  1.
    9000002   -1    0    0    0    0 -0.00000000000E+00 -0.00000000000E+00  0.00000000000E+00  0.93800000000E+00  0.93800000000E+00 0.  1.
         11    1    1    2    0    0  0.87665979979E-01 -0.60081628725E-01  0.14177537511E+01  0.14217317209E+01  0.51100000000E-03 0.  1.
    9000002    1    1    2    0    0 -0.15907085417E+00  0.39845901275E+00  0.12984606443E+00  0.10396043103E+01  0.93800000000E+00 0.  1.
         22    1    1    2    0    0  0.71404874195E-01 -0.33837738403E+00  0.24524001518E+01  0.24766639689E+01  0.00000000000E+00 0.  1.
</event>
<event>
 5    1  0.3005426E+001  0.1574823E+01  0.7818608E-02  0.3381151E+00
         11   -1    0    0    0    0  0.00000000000E+00  0.00000000000E+00  0.39999999674E+01  0.40000000000E+01  0.51100000000E-03 0.  1.
    9000002   -1    0    0    0    0 -0.00000000000E+00 -0.00000000000E+00  0.00000000000E+00  0.93800000000E+00  0.93800000000E+00 0. -1.
         11    1    1    2    0    0 -0.12072809577E+00  0.16366131009E-02  0.13001620637E+01  0.13057563343E+01  0.51100000000E-03 0.  1.
    9000002    1    1    2    0    0 -0.16681557957E+00 -0.98336931567E-01  0.43635119825E-01  0.95877297280E+00  0.93800000000E+00 0. -1.
         22    1    1    2    0    0  0.28754367533E+00  0.96700318466E-01  0.26562027838E+01  0.26734706929E+01  0.00000000000E+00 0.  1.
</event>
<event>
 5    1  0.3005426E+001  0.1599674E+01  0.7818608E-02  0.3353717E+00
         11   -1    0    0    0    0  0.00000000000E+00  0.00000000000E+00  0.39999999674E+01  0.40000000000E+01  0.51100000000E-03 0.  1.
    9000002   -1    0    0    0    0 -0.00000000000E+00 -0.00000000000E+00  0.00000000000E+00  0.93800000000E+00  0.93800000000E+00 0.  1.
         11    1    1    2    0    0 -0.30814286275E-01 -0.19191873743E-01  0.38353303494E+00  0.38524758048E+00  0.51100000000E-03 0.  1.
    9000002    1    1    2    0    0  0.32148059989E+00  0.18741777243E+00  0.93086111452E-01  0.10134023000E+01  0.93800000000E+00 0.  1.
         22    1    1    2    0    0 -0.29066631361E+00 -0.16822589869E+00  0.35233808210E+01  0.35393501195E+01  0.00000000000E+00 0.  1.
</event>
<event>
 5    1  0.3005426E+001  0.1545040E+01  0.7818608E-02  0.3415264E+00
         11   -1    0    0    0    0  0.00000000000E+00  0.00000000000E+00  0.39999999674E+01  0.40000000000E+01  0.51100000000E-03 0.  1.
    9000002   -1    0    0    0    0 -0.00000000000E+00 -0.00000000000E+00  0.00000000000E+00  0.93800000000E+00  0.93800000000E+00 0.  1.
         11    1    1    2    0    0  0.12661070727E+00  0.11239601560E+00  0.61211353023E+00  0.63509556016E+00  0.51100000000E-03 0.  1.
    9000002    1    1    2    0    0  0.17119633850E+00  0.14908484255E+00  0.76740528237E-01  0.96812581066E+00  0.93800000000E+00 0.  1.
         22    1    1    2    0    0 -0.29780704577E+00 -0.26148085815E+00  0.33111459089E+01  0.33347786292E+01  0.00000000000E+00 0.  1.
</event>
<event>
 5    1  0.3005426E+001  0.1569216E+01  0.7818608E-02  0.3387468E+00
         11   -1    0    0    0    0  0.00000000000E+00  0.00000000000E+00  0.39999999674E+01  0.40000000000E+01  0.51100000000E-03 0.  1.
    9000002   -1    0    0    0    0 -0.00000000000E+00 -0.00000000000E+00  0.00000000000E+00  0.93800000000E+00  0.93800000000E+00 0.  1.
         11    1    1    2    0    0  0.41105780230E-01 -0.16721826022E+00  0.47663379843E+00  0.50678562593E+00  0.51100000000E-03 0.  1.
    9000002    1    1    2    0    0  0.21484107246E+00  0.35759112145E+00  0.14377375209E+00  0.10366016536E+01  0.93800000000E+00 0.  1.
         22    1    1    2    0    0 -0.25594685269E+00 -0.19037286123E+00  0.33795924168E+01  0.33946127204E+01  0.00000000000E+00 0.  1.
</event>
<event>
 5    1  0.3005426E+001  0.1598652E+01  0.7818608E-02  0.3354828E+00
         11   -1    0    0    0    0  0.00000000000E+00  0.00000000000E+00  0.39999999674E+01  0.40000000000E+01  0.51100000000E-03 0.  1.
    9000002   -1    0    0    0    0 -0.00000000000E+00 -0.00000000000E+00  0.00000000000E+00  0.93800000000E+00  0.93800000000E+00 0.  1.
         11    1    1    2    0    0 -0.12794419657E+00  0.11678431043E+00  0.95353656954E+00  0.96914423238E+00  0.51100000000E-03 0.  1.
    9000002    1    1    2    0    0  0.59748271992E+00 -0.37545107382E+00  0.35757493254E+00  0.12270505050E+01  0.93800000000E+00 0.  1.
         22    1    1    2    0    0 -0.46953852335E+00  0.25866676338E+00  0.26888884653E+01  0.27418052626E+01  0.00000000000E+00 0.  1.
</event>
<event>
 5    1  0.3005426E+001  0.1599676E+01  0.7818608E-02  0.3353715E+00
         11   -1    0    0    0    0  0.00000000000E+00  0.00000000000E+00  0.39999999674E+01  0.40000000000E+01  0.51100000000E-03 0. -1.
    9000002   -1    0    0    0    0 -0.00000000000E+00 -0.00000000000E+00  0.00000000000E+00  0.93800000000E+00  0.93800000000E+00 0.  1.
         11    1    1    2    0    0 -0.16832229892E+00  0.53937084555E-01  0.11372734444E+01  0.11509269107E+01  0.51100000000E-03 0. -1.
    9000002    1    1    2    0    0  0.55643238643E+00 -0.18183102793E+00  0.23835508931E+00  0.11310776596E+01  0.93800000000E+00 0.  1.
         22    1    1    2    0    0 -0.38811008751E+00  0.12789394337E+00  0.26243714337E+01  0.26559954297E+01  0.00000000000E+00 0. -1.
</event>
<event>
 5    1  0.3005426E+001  0.1599330E+01  0.7818608E-02  0.3354091E+00
         11   -1    0    0    0    0  0.00000000000E+00  0.00000000000E+00  0.39999999674E+01  0.40000000000E+01  0.51100000000E-03 0. -1.
    9000002   -1    0    0    0    0 -0.00000000000E+00 -0.00000000000E+00  0.00000000000E+00  0.93800000000E+00  0.93800000000E+00 0. -1.
         11    1    1    2    0    0 -0.32462345667E-01  0.23869042374E-01  0.39731502008E+00  0.39935325386E+00  0.51100000000E-03 0. -1.
    9000002    1    1    2    0    0  0.22680761086E+00 -0.33054013677E+00  0.10869561666E+00  0.10258446332E+01  0.93800000000E+00 0. -1.
         22    1    1    2    0    0 -0.19434526519E+00  0.30667109439E+00  0.34939893306E+01  0.35128021130E+01  0.00000000000E+00 0. -1.
</event>
<event>
 5    1  0.3005426E+001  0.1557525E+01  0.7818608E-02  0.3400795E+00
         11   -1    0    0    0    0  0.00000000000E+00  0.00000000000E+00  0.39999999674E+01  0.40000000000E+01  0.51100000000E-03 0.  1.
    9000002   -1    0    0    0    0 -0.00000000000E+00 -0.00000000000E+00  0.00000000000E+00  0.93800000000E+00  0.93800000000E+00 0.  1.
         11    1    1    2    0    0 -0.55513906854E-02 -0.67642824550E-01  0.44237058683E-01  0.81015727693E-01  0.51100000000E-03 0.  1.
    9000002    1    1    2    0    0  0.31222239083E+00  0.31984925406E+00  0.17289934346E+00  0.10533397124E+01  0.93800000000E+00 0.  1.
         22    1    1    2    0    0 -0.30667100014E+00 -0.25220642951E+00  0.37828635652E+01  0.38036445600E+01  0.00000000000E+00 0.  1.
</event>
<event>
 5    1  0.3005426E+001  0.1599242E+01  0.7818608E-02  0.3354186E+00
         11   -1    0    0    0    0  0.00000000000E+00  0.00000000000E+00  0.39999999674E+01  0.40000000000E+01  0.51100000000E-03 0. -1.
    9000002   -1    0    0    0    0 -0.00000000000E+00 -0.00000000000E+00  0.00000000000E+00  0.93800000000E+00  0.93800000000E+00 0.  1.
         11    1    1    2    0    0  0.46234055095E-01 -0.35477487804E-01  0.52628169879E+00  0.52949875126E+00  0.51100000000E-03 0. -1.
    9000002    1    1    2    0    0 -0.35401061510E+00  0.13641131464E+00  0.97192495620E-01  0.10164752548E+01  0.93800000000E+00 0.  1.
         22    1    1    2    0    0  0.30777656000E+00 -0.10093382684E+00  0.33765257730E+01  0.33920259940E+01  0.00000000000E+00 0. -1.
</event>
<event>
 5    1  0.3005426E+001  0.1599677E+01  0.7818608E-02  0.3353714E+00
         11   -1    0    0    0    0  0.00000000000E+00  0.00000000000E+00  0.39999999674E+01  0.40000000000E+01  0.51100000000E-03 0.  1.
    9000002   -1    0    0    0    0 -0.00000000000E+00 -0.00000000000E+00  0.00000000000E+00  0.93800000000E+00  0.93800000000E+00 0.  1.
         11    1    1    2    0    0  0.16669713441E+00 -0.29067528726E-01  0.13390696191E+01  0.13497186973E+01  0.51100000000E-03 0.  1.
    9000002    1    1    2    0    0 -0.47690899615E+00  0.82974714652E-01  0.15999026789E+00  0.10675991194E+01  0.93800000000E+00 0.  1.
         22    1    1    2    0    0  0.31021186174E+00 -0.53907185926E-01  0.25009400803E+01  0.25206821833E+01  0.00000000000E+00 0.  1.
</event>
<event>
 5    1  0.3005426E+001  0.1471067E+01  0.7818608E-02  0.3506406E+00
         11   -1    0    0    0    0  0.00000000000E+00  0.00000000000E+00  0.39999999674E+01  0.40000000000E+01  0.51100000000E-03 0. -1.
    9000002   -1    0    0    0    0 -0.00000000000E+00 -0.00000000000E+00  0.00000000000E+00  0.93800000000E+00  0.93800000000E+00 0.  1.
         11    1    1    2    0    0  0.23182819778E-01  0.17799145255E+00  0.15047552754E+00  0.23422541669E+00  0.51100000000E-03 0. -1.
    9000002    1    1    2    0    0 -0.13692897838E+00  0.15794737351E+00  0.13277289492E+00  0.97013893827E+00  0.93800000000E+00 0.  1.
         22    1    1    2    0    0  0.11374615860E+00 -0.33593882605E+00  0.37167515449E+01  0.37336356450E+01  0.00000000000E+00 0. -1.
</event>
<event>
 5    1  0.3005426E+001  0.1599670E+01  0.7818608E-02  0.3353722E+00
         11   -1    0    0    0    0  0.00000000000E+00  0.00000000000E+00  0.39999999674E+01  0.40000000000E+01  0.51100000000E-03 0.  1.
    9000002   -1    0    0    0    0 -0.00000000000E+00 -0.00000000000E+00  0.00000000000E+00  0.93800000000E+00  0.93800000000E+00 0.  1.
         11    1    1    2    0    0 -0.95168887373E-01  0.80532850844E-01  0.12163184198E+01  0.12226910553E+01  0.51100000000E-03 0.  1.
    9000002    1    1    2    0    0  0.31155597032E+00 -0.25111597359E+00  0.10801669143E+00  0.10254940080E+01  0.93800000000E+00 0.  1.
         22    1    1    2    0    0 -0.21638708295E+00  0.17058312275E+00  0.26756648561E+01  0.26898149367E+01  0.00000000000E+00 0. -1.
</event>
<event>
 5    1  0.3005426E+001  0.1599557E+01  0.7818608E-02  0.3353844E+00
         11   -1    0    0    0    0  0.00000000000E+00  0.00000000000E+00  0.39999999674E+01  0.40000000000E+01  0.51100000000E-03 0.  1.
    9000002   -1    0    0    0    0 -0.00000000000E+00 -0.00000000000E+00  0.00000000000E+00  0.93800000000E+00  0.93800000000E+00 0. -1.
         11    1    1    2    0    0 -0.65093307990E-01  0.25444693019E-01  0.60007501231E+00  0.60413148624E+00  0.51100000000E-03 0.  1.
    9000002    1    1    2    0    0  0.36070198119E+00 -0.15940356236E+00  0.10492245103E+00  0.10229213732E+01  0.93800000000E+00 0. -1.
         22    1    1    2    0    0 -0.29560867320E+00  0.13395886934E+00  0.32950025040E+01  0.33109471406E+01  0.00000000000E+00 0.  1.
</event>
<event>
 5    1  0.3005426E+001  0.1599590E+01  0.7818608E-02  0.3353809E+00
         11   -1    0    0    0    0  0.00000000000E+00  0.00000000000E+00  0.39999999674E+01  0.40000000000E+01  0.51100000000E-03 0.  1.
    9000002   -1    0    0    0    0 -0.00000000000E+00 -0.00000000000E+00  0.00000000000E+00  0.93800000000E+00  0.93800000000E+00 0.  1.
         11    1    1    2    0    0 -0.13132681345E+00 -0.10177698417E-01  0.10844707096E+01  0.10924409817E+01  0.51100000000E-03 0.  1.
    9000002    1    1    2    0    0  0.44872584288E+00  0.56308784358E-02  0.13682909633E+00  0.10487863417E+01  0.93800000000E+00 0.  1.
         22    1    1    2    0    0 -0.31739902943E+00  0.45468199816E-02  0.27787001615E+01  0.27967726766E+01  0.00000000000E+00 0.  1.
</event>
<event>
 5    1  0.3195573E+001  0.1598252E+01  0.7818608E-02  0.3355262E+00
         11   -1    0    0    0    0  0.00000000000E+00  0.00000000000E+00  0.39999999674E+01  0.40000000000E+01  0.51100000000E-03 0. -1.
    9000002   -1    0    0    0    0 -0.00000000000E+00 -0.00000000000E+00  0.00000000000E+00  0.93800000000E+00  0.93800000000E+00 0.  1.
         11    1    1    2    0    0  0.12128049793E-02 -0.44365324384E-01  0.10960322672E+01  0.10969306016E+01  0.51100000000E-03 0. -1.
    9000002    1    1    2    0    0 -0.36771545305E-01  0.30228083546E+00  0.63003267701E-01  0.98820001102E+00  0.93800000000E+00 0.  1.
         22    1    1    2    0    0  0.35558740326E-01 -0.25791551108E+00  0.28409644324E+01  0.28528693873E+01  0.00000000000E+00 0. -1.
</event>
<event>
 5    1  0.3005426E+001  0.1452195E+01  0.7818608E-02  0.3531267E+00
         11   -1    0    0    0    0  0.00000000000E+00  0.00000000000E+00  0.39999999674E+01  0.40000000000E+01  0.51100000000E-03 0.  1.
    9000002   -1    0    0    0    0 -0.00000000000E+00 -0.00000000000E+00  0.00000000000E+00  0.93800000000E+00  0.93800000000E+00 0.  1.
         11    1    1    2    0    0 -0.35655667277E+00 -0.19063541438E+00  0.10235907354E+01  0.11005511241E+01  0.51100000000E-03 0.  1.
    9000002    1    1    2    0    0 -0.11565710346E+00  0.81389343113E-01  0.13875151689E+00  0.95869535004E+00  0.93800000000E+00 0.  1.
         22    1    1    2    0    0  0.47221377623E+00  0.10924607126E+00  0.28376577151E+01  0.28787535259E+01  0.00000000000E+00 0.  1.
</event>
<event>
 5    1  0.3005426E+001  0.1599676E+01  0.7818608E-02  0.3353715E+00
         11   -1    0    0    0    0  0.00000000000E+00  0.00000000000E+00  0.39999999674E+01  0.40000000000E+01  0.51100000000E-03 0. -1.
    9000002   -1    0    0    0    0 -0.00000000000E+00 -0.00000000000E+00  0.00000000000E+00  0.93800000000E+00  0.93800000000E+00 0. -1.
         11    1    1    2    0    0  0.92471549568E-01 -0.11897969003E+00  0.13529357014E+01  0.13613017400E+01  0.51100000000E-03 0. -1.
    9000002    1    1    2    0    0 -0.26390689912E+00  0.33821702149E+00  0.12462019272E+00  0.10389474469E+01  0.93800000000E+00 0. -1.
         22    1    1    2    0    0  0.17143534956E+00 -0.21923733146E+00  0.25224440732E+01  0.25377508131E+01  0.00000000000E+00 0. -1.
</event>
<event>
 5    1  0.3005426E+001  0.1599657E+01  0.7818608E-02  0.3353736E+00
         11   -1    0    0    0    0  0.00000000000E+00  0.00000000000E+00  0.39999999674E+01  0.40000000000E+01  0.51100000000E-03 0.  1.
    9000002   -1    0    0    0    0 -0.00000000000E+00 -0.00000000000E+00  0.00000000000E+00  0.93800000000E+00  0.93800000000E+00 0. -1.
         11    1    1    2    0    0 -0.92981133671E-03 -0.39255216218E-01  0.42198801494E+00  0.42381125801E+00  0.51100000000E-03 0.  1.
    9000002    1    1    2    0    0  0.12516657570E-01  0.39329679908E+00  0.10437264412E+00  0.10225344433E+01  0.93800000000E+00 0. -1.
         22    1    1    2    0    0 -0.11586846233E-01 -0.35404158286E+00  0.34736393083E+01  0.34916542987E+01  0.00000000000E+00 0.  1.
</event>
<event>
 5    1  0.3005426E+001  0.1599496E+01  0.7818608E-02  0.3353911E+00
         11   -1    0    0    0    0  0.00000000000E+00  0.00000000000E+00  0.39999999674E+01  0.40000000000E+01  0.51100000000E-03 0.  1.
    9000002   -1    0    0    0    0 -0.00000000000E+00 -0.00000000000E+00  0.00000000000E+00  0.93800000000E+00  0.93800000000E+00 0.  1.
         11    1    1    2    0    0  0.55884607895E-01 -0.81883588182E-01  0.84703845116E+00  0.85282026845E+00  0.51100000000E-03 0.  1.
    9000002    1    1    2    0    0 -0.26175107681E+00  0.31442740477E+00  0.11318564740E+00  0.10295791421E+01  0.93800000000E+00 0.  1.
         22    1    1    2    0    0  0.20586646892E+00 -0.23254381659E+00  0.30397758688E+01  0.30556005894E+01  0.00000000000E+00 0.  1.
</event>
<event>
 5    1  0.3005426E+001  0.1599676E+01  0.7818608E-02  0.3353715E+00
         11   -1    0    0    0    0  0.00000000000E+00  0.00000000000E+00  0.39999999674E+01  0.40000000000E+01  0.51100000000E-03 0.  1.
    9000002   -1    0    0    0    0 -0.00000000000E+00 -0.00000000000E+00  0.00000000000E+00  0.93800000000E+00  0.93800000000E+00 0. -1.
         11    1    1    2    0    0 -0.29748179830E-01 -0.67002399760E-01  0.80779753649E+00  0.81111737551E+00  0.51100000000E-03 0.  1.
    9000002    1    1    2    0    0  0.14715872833E+00  0.32200782226E+00  0.84083317063E-01  0.10061106963E+01  0.93800000000E+00 0. -1.
         22    1    1    2    0    0 -0.11741054850E+00 -0.25500542250E+00  0.31081191138E+01  0.31207719282E+01  0.00000000000E+00 0.  1.
</event>
<event>
 5    1  0.3005426E+001  0.1598730E+01  0.7818608E-02  0.3354743E+00
         11   -1    0    0    0    0  0.00000000000E+00  0.00000000000E+00  0.39999999674E+01  0.40000000000E+01  0.51100000000E-03 0. -1.
    9000002   -1    0    0    0    0 -0.00000000000E+00 -0.00000000000E+00  0.00000000000E+00  0.93800000000E+00  0.93800000000E+00 0. -1.
         11    1    1    2    0    0  0.29064409843E-02  0.48498194719E-01  0.44378854341E+00  0.44644042679E+00  0.51100000000E-03 0. -1.
    9000002    1    1    2    0    0 -0.38289705214E-01 -0.61147740864E+00  0.26357136310E+00  0.11509494282E+01  0.93800000000E+00 0. -1.
         22    1    1    2    0    0  0.35383264230E-01  0.56297921393E+00  0.32926400608E+01  0.33406101450E+01  0.00000000000E+00 0. -1.
</event>
<event>
 5    1  0.3005426E+001  0.1595796E+01  0.7818608E-02  0.3357939E+00
         11   -1    0    0    0    0  0.00000000000E+00  0.00000000000E+00  0.39999999674E+01  0.40000000000E+01  0.51100000000E-03 0. -1.
    9000002   -1    0    0    0    0 -0.00000000000E+00 -0.00000000000E+00  0.00000000000E+00  0.93800000000E+00  0.93800000000E+00 0.  1.
         11    1    1    2    0    0 -0.15731623335E-01 -0.48800249767E-01  0.73917206622E+00  0.74094841450E+00  0.51100000000E-03 0. -1.
    9000002    1    1    2    0    0  0.30969348328E+00  0.45066312237E-01  0.68483174200E-01  0.99119875466E+00  0.93800000000E+00 0.  1.
         22    1    1    2    0    0 -0.29396185995E+00  0.37339375301E-02  0.31923447269E+01  0.32058528308E+01  0.00000000000E+00 0. -1.
</event>
<event>
 5    1  0.3005426E+001  0.1501422E+01  0.7818608E-02  0.3467836E+00
         11   -1    0    0    0    0  0.00000000000E+00  0.00000000000E+00  0.39999999674E+01  0.40000000000E+01  0.51100000000E-03 0. -1.
    9000002   -1    0    0    0    0 -0.00000000000E+00 -0.00000000000E+00  0.00000000000E+00  0.93800000000E+00  0.93800000000E+00 0. -1.
         11    1    1    2    0    0  0.10825045079E+00 -0.36301242180E+00  0.10143281981E+01  0.10827548813E+01  0.51100000000E-03 0. -1.
    9000002    1    1    2    0    0  0.41445889827E+00  0.38871807751E+00  0.32534073835E+00  0.11439267976E+01  0.93800000000E+00 0. -1.
         22    1    1    2    0    0 -0.52270934906E+00 -0.25705655717E-01  0.26603310309E+01  0.27113183211E+01  0.00000000000E+00 0. -1.
</event>
<event>
 5    1  0.3005426E+001  0.1599672E+01  0.7818608E-02  0.3353719E+00
         11   -1    0    0    0    0  0.00000000000E+00  0.00000000000E+00  0.39999999674E+01  0.40000000000E+01  0.51100000000E-03 0. -1.
    9000002   -1    0    0    0    0 -0.00000000000E+00 -0.00000000000E+00  0.00000000000E+00  0.93800000000E+00  0.93800000000E+00 0.  1.
         11    1    1    2    0    0 -0.71565069735E-01  0.50671699716E-01  0.84277764931E+00  0.84732733206E+00  0.51100000000E-03 0. -1.
    9000002    1    1    2    0    0  0.32366690570E+00 -0.24158593437E+00  0.11008982809E+00  0.10271746686E+01  0.93800000000E+00 0.  1.
         22    1    1    2    0    0 -0.25210183596E+00  0.19091423465E+00  0.30471324900E+01  0.30634979994E+01  0.00000000000E+00 0. -1.
</event>
<event>
 5    1  0.3005426E+001  0.1599319E+01  0.7818608E-02  0.3354103E+00
         11   -1    0    0    0    0  0.00000000000E+00  0.00000000000E+00  0.39999999674E+01  0.40000000000E+01  0.51100000000E-03 0.  1.
    9000002   -1    0    0    0    0 -0.00000000000E+00 -0.00000000000E+00  0.00000000000E+00  0.93800000000E+00  0.93800000000E+00 0. -1.
         11    1    1    2    0    0 -0.84097776556E-01  0.20171587531E-01  0.77203292445E+00  0.77686190956E+00  0.51100000000E-03 0.  1.
    9000002    1    1    2    0    0  0.37587525887E+00 -0.17980423226E+00  0.11766299776E+00  0.10331022956E+01  0.93800000000E+00 0. -1.
         22    1    1    2    0    0 -0.29177748231E+00  0.15963264473E+00  0.31103040451E+01  0.31280357948E+01  0.00000000000E+00 0.  1.
</event>
<event>
 5    1  0.3005426E+001  0.1599419E+01  0.7818608E-02  0.3353994E+00
         11   -1    0    0    0    0  0.00000000000E+00  0.00000000000E+00  0.39999999674E+01  0.40000000000E+01  0.51100000000E-03 0. -1.
    9000002   -1    0    0    0    0 -0.00000000000E+00 -0.00000000000E+00  0.00000000000E+00  0.93800000000E+00  0.93800000000E+00 0. -1.
         11    1    1    2    0    0  0.39943525545E-02  0.25839494605E-02  0.55874624703E-01  0.56079108890E-01  0.51100000000E-03 0. -1.
    9000002    1    1    2    0    0 -0.40084726673E+00  0.11387489779E+00  0.11760278936E+00  0.10331120170E+01  0.93800000000E+00 0. -1.
         22    1    1    2    0    0  0.39685291418E+00 -0.11645884725E+00  0.38265225533E+01  0.38488088741E+01  0.00000000000E+00 0. -1.
</event>
<event>
 5    1  0.3005426E+001  0.1598652E+01  0.7818608E-02  0.3354828E+00
         11   -1    0    0    0    0  0.00000000000E+00  0.00000000000E+00  0.39999999674E+01  0.40000000000E+01  0.51100000000E-03 0. -1.
    9000002   -1    0    0    0    0 -0.00000000000E+00 -0.00000000000E+00  0.00000000000E+00  0.93800000000E+00  0.93800000000E+00 0.  1.
         11    1    1    2    0    0 -0.25901513087E-01  0.77762417316E-01  0.11668083289E+01  0.11696836408E+01  0.51100000000E-03 0. -1.
    9000002    1    1    2    0    0  0.41791468902E-01 -0.36985955845E+00  0.93967915153E-01  0.10135169406E+01  0.93800000000E+00 0.  1.
         22    1    1    2    0    0 -0.15889955815E-01  0.29209714113E+00  0.27392237233E+01  0.27547994186E+01  0.00000000000E+00 0. -1.
</event>
<event>
 5    1  0.3005426E+001  0.1599595E+01  0.7818608E-02  0.3353803E+00
         11   -1    0    0    0    0  0.00000000000E+00  0.00000000000E+00  0.39999999674E+01  0.40000000000E+01  0.51100000000E-03 0. -1.
    9000002   -1    0    0    0    0 -0.00000000000E+00 -0.00000000000E+00  0.00000000000E+00  0.93800000000E+00  0.93800000000E+00 0. -1.
         11    1    1    2    0    0  0.11716525963E-01  0.99811556723E-01  0.84144655129E+00  0.84742680135E+00  0.51100000000E-03 0. -1.
    9000002    1    1    2    0    0 -0.28683316980E-01 -0.42678418285E+00  0.12394310922E+00  0.10383512728E+01  0.93800000000E+00 0. -1.
         22    1    1    2    0    0  0.16966791017E-01  0.32697262613E+00  0.30346103068E+01  0.30522219259E+01  0.00000000000E+00 0. -1.
</event>
<event>
 5    1  0.3005426E+001  0.1577808E+01  0.7818608E-02  0.3377807E+00
         11   -1    0    0    0    0  0.00000000000E+00  0.00000000000E+00  0.39999999674E+01  0.40000000000E+01  0.51100000000E-03 0. -1.
    9000002   -1    0    0    0    0 -0.00000000000E+00 -0.00000000000E+00  0.00000000000E+00  0.93800000000E+00  0.93800000000E+00 0. -1.
         11    1    1    2    0    0  0.15173566052E+00 -0.20894568991E+00  0.12153601084E+01  0.12424904290E+01  0.51100000000E-03 0. -1.
    9000002    1    1    2    0    0  0.12153702906E-01  0.47444699986E+00  0.17309101042E+00  0.10653882701E+01  0.93800000000E+00 0. -1.
         22    1    1    2    0    0 -0.16388936343E+00 -0.26550130996E+00  0.26115488486E+01  0.26301213009E+01  0.00000000000E+00 0. -1.
</event>
<event>
 5    1  0.3005426E+001  0.1599668E+01  0.7818608E-02  0.3353724E+00
         11   -1    0    0    0    0  0.00000000000E+00  0.00000000000E+00  0.39999999674E+01  0.40000000000E+01  0.51100000000E-03 0.  1.
    9000002   -1    0    0    0    0 -0.00000000000E+00 -0.00000000000E+00  0.00000000000E+00  0.93800000000E+00  0.93800000000E+00 0.  1.
         11    1    1    2    0    0  0.63718624675E-01 -0.68640334489E-01  0.48739694949E+00  0.49631401969E+00  0.51100000000E-03 0.  1.
    9000002    1    1    2    0    0 -0.46461156988E+00  0.50413598954E+00  0.33464005243E+00  0.12090678110E+01  0.93800000000E+00 0.  1.
         22    1    1    2    0    0  0.40089294521E+00 -0.43549565505E+00  0.31779629654E+01  0.32326181693E+01  0.00000000000E+00 0.  1.
</event>
<event>
 5    1  0.3005426E+001  0.1598968E+01  0.7818608E-02  0.3354485E+00
         11   -1    0    0    0    0  0.00000000000E+00  0.00000000000E+00  0.39999999674E+01  0.40000000000E+01  0.51100000000E-03 0. -1.
    9000002   -1    0    0    0    0 -0.00000000000E+00 -0.00000000000E+00  0.00000000000E+00  0.93800000000E+00  0.93800000000E+00 0.  1.
         11    1    1    2    0    0 -0.26476262916E-01  0.28082388086E-01  0.61481440518E+00  0.61602485904E+00  0.51100000000E-03 0. -1.
    9000002    1    1    2    0    0  0.31618229557E+00 -0.16034003231E+00  0.84885029307E-01  0.10063446915E+01  0.93800000000E+00 0.  1.
         22    1    1    2    0    0 -0.28970603266E+00  0.13225764423E+00  0.33003005329E+01  0.33156304494E+01  0.00000000000E+00 0. -1.
</event>
<event>
 5    1  0.3005426E+001  0.1599541E+01  0.7818608E-02  0.3353862E+00
         11   -1    0    0    0    0  0.00000000000E+00  0.00000000000E+00  0.39999999674E+01  0.40000000000E+01  0.51100000000E-03 0. -1.
    9000002   -1    0    0    0    0 -0.00000000000E+00 -0.00000000000E+00  0.00000000000E+00  0.93800000000E+00  0.93800000000E+00 0.  1.
         11    1    1    2    0    0 -0.95990406743E-01 -0.10778065615E+00  0.13385581278E+01  0.13463168092E+01  0.51100000000E-03 0. -1.
    9000002    1    1    2    0    0  0.25459225196E+00  0.34287232087E+00  0.12357824162E+00  0.10380241929E+01  0.93800000000E+00 0.  1.
         22    1    1    2    0    0 -0.15860184522E+00 -0.23509166472E+00  0.25378635979E+01  0.25536589980E+01  0.00000000000E+00 0. -1.
</event>
<event>
 5    1  0.3153482E+001  0.1599668E+01  0.7818608E-02  0.3353724E+00
         11   -1    0    0    0    0  0.00000000000E+00  0.00000000000E+00  0.39999999674E+01  0.40000000000E+01  0.51100000000E-03 0.  1.
    9000002   -1    0    0    0    0 -0.00000000000E+00 -0.00000000000E+00  0.00000000000E+00  0.93800000000E+00  0.93800000000E+00 0.  1.
         11    1    1    2    0    0  0.16689923965E-01 -0.12611335629E+00  0.14356095697E+01  0.14412349670E+01  0.51100000000E-03 0.  1.
    9000002    1    1    2    0    0 -0.44750214917E-01  0.35340761292E+00  0.85153793438E-01  0.10069730340E+01  0.93800000000E+00 0.  1.
         22    1    1    2    0    0  0.28060290952E-01 -0.22729425663E+00  0.24792366042E+01  0.24897919991E+01  0.00000000000E+00 0.  1.
</event>
<event>
 5    1  0.3005426E+001  0.1598922E+01  0.7818608E-02  0.3354534E+00
         11   -1    0    0    0    0  0.00000000000E+00  0.00000000000E+00  0.39999999674E+01  0.40000000000E+01  0.51100000000E-03 0. -1.
    9000002   -1    0    0    0    0 -0.00000000000E+00 -0.00000000000E+00  0.00000000000E+00  0.93800000000E+00  0.93800000000E+00 0. -1.
         11    1    1    2    0    0  0.17693268743E+00 -0.15205722143E+00  0.12242858099E+01  0.12463156021E+01  0.51100000000E-03 0. -1.
    9000002    1    1    2    0    0 -0.44212847612E+00  0.47840057419E+00  0.30033647828E+00  0.11808432152E+01  0.93800000000E+00 0. -1.
         22    1    1    2    0    0  0.26519578869E+00 -0.32634335276E+00  0.24753776791E+01  0.25108411827E+01  0.00000000000E+00 0. -1.
</event>
<event>
 5    1  0.3005426E+001  0.1599339E+01  0.7818608E-02  0.3354081E+00
         11   -1    0    0    0    0  0.00000000000E+00  0.00000000000E+00  0.39999999674E+01  0.40000000000E+01  0.51100000000E-03 0.  1.
    9000002   -1    0    0    0    0 -0.00000000000E+00 -0.00000000000E+00  0.00000000000E+00  0.93800000000E+00  0.93800000000E+00 0.  1.
         11    1    1    2    0    0  0.70903319436E-01 -0.43293412999E-01  0.35875252890E+00  0.36824616553E+00  0.51100000000E-03 0.  1.
    9000002    1    1    2    0    0 -0.62715477213E+00  0.33756927255E+00  0.36413469652E+00  0.12327668876E+01  0.93800000000E+00 0.  1.
         22    1    1    2    0    0  0.55625145269E+00 -0.29427585955E+00  0.32771127419E+01  0.33369869469E+01  0.00000000000E+00 0.  1.
</event>
<event>
 5    1  0.3005426E+001  0.1599676E+01  0.7818608E-02  0.3353715E+00
         11   -1    0    0    0    0  0.00000000000E+00  0.00000000000E+00  0.39999999674E+01  0.40000000000E+01  0.51100000000E-03 0.  1.
    9000002   -1    0    0    0    0 -0.00000000000E+00 -0.00000000000E+00  0.00000000000E+00  0.93800000000E+00  0.93800000000E+00 0. -1.
         11    1    1    2    0    0  0.18014177590E-02  0.18523359694E-01  0.18258191630E+00  0.18352868234E+00  0.51100000000E-03 0. -1.
    9000002    1    1    2    0    0 -0.37710513559E-01 -0.39524018726E+00  0.10628965220E+00  0.10240988129E+01  0.93800000000E+00 0. -1.
         22    1    1    2    0    0  0.35909095800E-01  0.37671682757E+00  0.37111283989E+01  0.37303725047E+01  0.00000000000E+00 0.  1.
</event>
<event>
 5    1  0.3005426E+001  0.1599666E+01  0.7818608E-02  0.3353726E+00
         11   -1    0    0    0    0  0.00000000000E+00  0.00000000000E+00  0.39999999674E+01  0.40000000000E+01  0.51100000000E-03 0. -1.
    9000002   -1    0    0    0    0 -0.00000000000E+00 -0.00000000000E+00  0.00000000000E+00  0.93800000000E+00  0.93800000000E+00 0. -1.
         11    1    1    2    0    0 -0.38389256259E-01 -0.24293884964E-01  0.43943966889E+00  0.44178208606E+00  0.51100000000E-03 0. -1.
    9000002    1    1    2    0    0  0.33216969679E+00  0.19516635561E+00  0.99940544614E-01  0.10189498154E+01  0.93800000000E+00 0. -1.
         22    1    1    2    0    0 -0.29378044053E+00 -0.17087247064E+00  0.34606197539E+01  0.34772680986E+01  0.00000000000E+00 0. -1.
</event>
<event>
 5    1  0.3005426E+001  0.1599677E+01  0.7818608E-02  0.3353714E+00
         11   -1    0    0    0    0  0.00000000000E+00  0.00000000000E+00  0.39999999674E+01  0.40000000000E+01  0.51100000000E-03 0. -1.
    9000002   -1    0    0    0    0 -0.00000000000E+00 -0.00000000000E+00  0.00000000000E+00  0.93800000000E+00  0.93800000000E+00 0. -1.
         11    1    1    2    0    0 -0.76662802553E-01  0.71057030371E-01  0.10878760987E+01  0.10928865239E+01  0.51100000000E-03 0. -1.
    9000002    1    1    2    0    0  0.27327375402E+00 -0.25619737239E+00  0.94348991911E-01  0.10144266216E+01  0.93800000000E+00 0. -1.
         22    1    1    2    0    0 -0.19661095146E+00  0.18514034202E+00  0.28177748768E+01  0.28306868546E+01  0.00000000000E+00 0. -1.
</event>
<event>
 5    1  0.3005426E+001  0.1583293E+01  0.7818608E-02  0.3371699E+00
         11   -1    0    0    0    0  0.00000000000E+00  0.00000000000E+00  0.39999999674E+01  0.40000000000E+01  0.51100000000E-03 0. -1.
    9000002   -1    0    0    0    0 -0.00000000000E+00 -0.00000000000E+00  0.00000000000E+00  0.93800000000E+00  0.93800000000E+00 0.  1.
         11    1    1    2    0    0  0.77810699614E-01 -0.34286527505E-01  0.91361823197E+00  0.91756667652E+00  0.51100000000E-03 0. -1.
    9000002    1    1    2    0    0  0.20291393790E+00 -0.81666960561E-02  0.39701152579E-01  0.96055241535E+00  0.93800000000E+00 0.  1.
         22    1    1    2    0    0 -0.28072463751E+00  0.42453223561E-01  0.30466805828E+01  0.30598809081E+01  0.00000000000E+00 0. -1.
</event>
<event>
 5    1  0.3005426E+001  0.1587530E+01  0.7818608E-02  0.3367010E+00
         11   -1    0    0    0    0  0.00000000000E+00  0.00000000000E+00  0.39999999674E+01  0.40000000000E+01  0.51100000000E-03 0. -1.
    9000002   -1    0    0    0    0 -0.00000000000E+00 -0.00000000000E+00  0.00000000000E+00  0.93800000000E+00  0.93800000000E+00 0. -1.
         11    1    1    2    0    0  0.10178735456E+00 -0.72412319937E-02  0.10200110417E+01  0.10251028667E+01  0.51100000000E-03 0. -1.
    9000002    1    1    2    0    0 -0.74558881234E-01  0.34348428498E+00  0.92703610934E-01  0.10059713914E+01  0.93800000000E+00 0. -1.
         22    1    1    2    0    0 -0.27228473327E-01 -0.33624305299E+00  0.28872853147E+01  0.29069257419E+01  0.00000000000E+00 0. -1.
</event>
<event>
 5    1  0.3005426E+001  0.1599255E+01  0.7818608E-02  0.3354172E+00
         11   -1    0    0    0    0  0.00000000000E+00  0.00000000000E+00  0.39999999674E+01  0.40000000000E+01  0.51100000000E-03 0.  1.
    9000002   -1    0    0    0    0 -0.00000000000E+00 -0.00000000000E+00  0.00000000000E+00  0.93800000000E+00  0.93800000000E+00 0.  1.
         11    1    1    2    0    0  0.11129630249E-01 -0.77967964049E-02  0.25012341286E+00  0.25049279728E+00  0.51100000000E-03 0.  1.
    9000002    1    1    2    0    0 -0.25167805826E+00  0.29373057597E+00  0.10110159252E+00  0.10196494634E+01  0.93800000000E+00 0.  1.
         22    1    1    2    0    0  0.24054842801E+00 -0.28593377956E+00  0.36487749620E+01  0.36678577393E+01  0.00000000000E+00 0.  1.
</event>
<event>
 5    1  0.3005426E+001  0.1599639E+01  0.7818608E-02  0.3353756E+00
         11   -1    0    0    0    0  0.00000000000E+00  0.00000000000E+00  0.39999999674E+01  0.40000000000E+01  0.51100000000E-03 0.  1.
    9000002   -1    0    0    0    0 -0.00000000000E+00 -0.00000000000E+00  0.00000000000E+00  0.93800000000E+00  0.93800000000E+00 0.  1.
         11    1    1    2    0    0 -0.59724890816E-01 -0.11526770015E+00  0.10785363019E+01  0.10863215551E+01  0.51100000000E-03 0.  1.
    9000002    1    1    2    0    0  0.18982499906E+00  0.41256148267E+00  0.14019439694E+00  0.10515412385E+01  0.93800000000E+00 0.  1.
         22    1    1    2    0    0 -0.13010010824E+00 -0.29729378252E+00  0.27812692685E+01  0.28001372065E+01  0.00000000000E+00 0.  1.
</event>
<event>
 5    1  0.3005426E+001  0.1598983E+01  0.7818608E-02  0.3354468E+00
         11   -1    0    0    0    0  0.00000000000E+00  0.00000000000E+00  0.39999999674E+01  0.40000000000E+01  0.51100000000E-03 0.  1.
    9000002   -1    0    0    0    0 -0.00000000000E+00 -0.00000000000E+00  0.00000000000E+00  0.93800000000E+00  0.93800000000E+00 0. -1.
         11    1    1    2    0    0  0.13456792615E-01 -0.75389086265E-01  0.67391557003E+00  0.67825294414E+00  0.51100000000E-03 0.  1.
    9000002    1    1    2    0    0 -0.21139737383E+00  0.45394621189E+00  0.17230414427E+00  0.10771669931E+01  0.93800000000E+00 0. -1.
         22    1    1    2    0    0  0.19794058122E+00 -0.37855712563E+00  0.31537802531E+01  0.31825800627E+01  0.00000000000E+00 0.  1.
</event>
<event>
 5    1  0.3005426E+001  0.1598712E+01  0.7818608E-02  0.3354762E+00
         11   -1    0    0    0    0  0.00000000000E+00  0.00000000000E+00  0.39999999674E+01  0.40000000000E+01  0.51100000000E-03 0. -1.
    9000002   -1    0    0    0    0 -0.00000000000E+00 -0.00000000000E+00  0.00000000000E+00  0.93800000000E+00  0.93800000000E+00 0.  1.
         11    1    1    2    0    0 -0.30562972064E-01  0.59124668588E-01  0.57538531455E+00  0.57922218795E+00  0.51100000000E-03 0. -1.
    9000002    1    1    2    0    0  0.26523153002E+00 -0.54834705735E+00  0.26034876722E+00  0.11483282372E+01  0.93800000000E+00 0.  1.
         22    1    1    2    0    0 -0.23466855795E+00  0.48922238876E+00  0.31642658856E+01  0.32104495748E+01  0.00000000000E+00 0.  1.
</event>
<event>
 5    1  0.3005426E+001  0.1599442E+01  0.7818608E-02  0.3353969E+00
         11   -1    0    0    0    0  0.00000000000E+00  0.00000000000E+00  0.39999999674E+01  0.40000000000E+01  0.51100000000E-03 0. -1.
    9000002   -1    0    0    0    0 -0.00000000000E+00 -0.00000000000E+00  0.00000000000E+00  0.93800000000E+00  0.93800000000E+00 0. -1.
         11    1    1    2    0    0  0.22777404622E+00  0.49482383889E-01  0.69609402022E+00  0.73408219469E+00  0.51100000000E-03 0. -1.
    9000002    1    1    2    0    0 -0.10451992789E+01 -0.25659228089E+00  0.97966791681E+00  0.17314370790E+01  0.93800000000E+00 0. -1.
         22    1    1    2    0    0  0.81742523268E+00  0.20710989700E+00  0.23242380303E+01  0.24724807263E+01  0.00000000000E+00 0. -1.
</event>
<event>
 5    1  0.3005426E+001  0.1598396E+01  0.7818608E-02  0.3355107E+00
         11   -1    0    0    0    0  0.00000000000E+00  0.00000000000E+00  0.39999999674E+01  0.40000000000E+01  0.51100000000E-03 0. -1.
    9000002   -1    0    0    0    0 -0.00000000000E+00 -0.00000000000E+00  0.00000000000E+00  0.93800000000E+00  0.93800000000E+00 0.  1.
         11    1    1    2    0    0 -0.75158409097E-01 -0.42460170640E-01  0.47065117793E+00  0.47850229357E+00  0.51100000000E-03 0. -1.
    9000002    1    1    2    0    0  0.38877343599E+00  0.28474429772E+00  0.15963579342E+00  0.10665606810E+01  0.93800000000E+00 0.  1.
         22    1    1    2    0    0 -0.31361502690E+00 -0.24228412708E+00  0.33697129960E+01  0.33929370255E+01  0.00000000000E+00 0. -1.
</event>
<event>
 5    1  0.3005426E+001  0.1597706E+01  0.7818608E-02  0.3355857E+00
         11   -1    0    0    0    0  0.00000000000E+00  0.00000000000E+00  0.39999999674E+01  0.40000000000E+01  0.51100000000E-03 0. -1.
    9000002   -1    0    0    0    0 -0.00000000000E+00 -0.00000000000E+00  0.00000000000E+00  0.93800000000E+00  0.93800000000E+00 0.  1.
         11    1    1    2    0    0 -0.96247693588E-02 -0.63068321891E-01  0.11400426861E+01  0.11418265353E+01  0.51100000000E-03 0. -1.
    9000002    1    1    2    0    0  0.17902251053E+00  0.29804207312E+00  0.82615446128E-01  0.10037666305E+01  0.93800000000E+00 0.  1.
         22    1    1    2    0    0 -0.16939774118E+00 -0.23497375122E+00  0.27773418351E+01  0.27924068342E+01  0.00000000000E+00 0. -1.
</event>
<event>
 5    1  0.3005426E+001  0.1576739E+01  0.7818608E-02  0.3379003E+00
         11   -1    0    0    0    0  0.00000000000E+00  0.00000000000E+00  0.39999999674E+01  0.40000000000E+01  0.51100000000E-03 0. -1.
    9000002   -1    0    0    0    0 -0.00000000000E+00 -0.00000000000E+00  0.00000000000E+00  0.93800000000E+00  0.93800000000E+00 0. -1.
         11    1    1    2    0    0  0.27052461858E-01 -0.99178753688E-01  0.11517877572E+01  0.11563665334E+01  0.51100000000E-03 0. -1.
    9000002    1    1    2    0    0  0.11124468049E+00 -0.19009512318E+00  0.49678541163E-01  0.96479194247E+00  0.93800000000E+00 0. -1.
         22    1    1    2    0    0 -0.13829714235E+00  0.28927387687E+00  0.27985336690E+01  0.28168415241E+01  0.00000000000E+00 0. -1.
</event>
<event>
 5    1  0.3005426E+001  0.1598734E+01  0.7818608E-02  0.3354739E+00
         11   -1    0    0    0    0  0.00000000000E+00  0.00000000000E+00  0.39999999674E+01  0.40000000000E+01  0.51100000000E-03 0. -1.
    9000002   -1    0    0    0    0 -0.00000000000E+00 -0.00000000000E+00  0.00000000000E+00  0.93800000000E+00  0.93800000000E+00 0.  1.
         11    1    1    2    0    0 -0.12272876149E-01 -0.25173034436E-01  0.14031536679E+00  0.14308378116E+00  0.51100000000E-03 0. -1.
    9000002    1    1    2    0    0  0.26581885897E+00  0.31855036511E+00  0.11712808648E+00  0.10323260093E+01  0.93800000000E+00 0.  1.
         22    1    1    2    0    0 -0.25354598282E+00 -0.29337733068E+00  0.37425565141E+01  0.37625902095E+01  0.00000000000E+00 0. -1.
</event>
<event>
 5    1  0.3005426E+001  0.1599676E+01  0.7818608E-02  0.3353715E+00
         11   -1    0    0    0    0  0.00000000000E+00  0.00000000000E+00  0.39999999674E+01  0.40000000000E+01  0.51100000000E-03 0. -1.
    9000002   -1    0    0    0    0 -0.00000000000E+00 -0.00000000000E+00  0.00000000000E+00  0.93800000000E+00  0.93800000000E+00 0. -1.
         11    1    1    2    0    0  0.61549511264E-01 -0.11402860594E+00  0.58257949882E+00  0.59681655379E+00  0.51100000000E-03 0.  1.
    9000002    1    1    2    0    0 -0.37450504033E+00  0.69825064115E+00  0.46127016750E+00  0.13116486384E+01  0.93800000000E+00 0. -1.
         22    1    1    2    0    0  0.31295552907E+00 -0.58422203522E+00  0.29561503010E+01  0.30295348078E+01  0.00000000000E+00 0. -1.
</event>
<event>
 5    1  0.3005426E+001  0.1599404E+01  0.7818608E-02  0.3354010E+00
         11   -1    0    0    0    0  0.00000000000E+00  0.00000000000E+00  0.39999999674E+01  0.40000000000E+01  0.51100000000E-03 0.  1.
    9000002   -1    0    0    0    0 -0.00000000000E+00 -0.00000000000E+00  0.00000000000E+00  0.93800000000E+00  0.93800000000E+00 0.  1.
         11    1    1    2    0    0  0.48297307629E-03 -0.62308465780E-02  0.86771342039E-01  0.86997607050E-01  0.51100000000E-03 0.  1.
    9000002    1    1    2    0    0 -0.28415725147E+00  0.26852522006E+00  0.10320888425E+00  0.10214436897E+01  0.93800000000E+00 0.  1.
         22    1    1    2    0    0  0.28367427839E+00 -0.26229437348E+00  0.38100197411E+01  0.38295587033E+01  0.00000000000E+00 0.  1.
</event>
<event>
 5    1  0.3005426E+001  0.1572693E+01  0.7818608E-02  0.3383546E+00
         11   -1    0    0    0    0  0.00000000000E+00  0.00000000000E+00  0.39999999674E+01  0.40000000000E+01  0.51100000000E-03 0.  1.
    9000002   -1    0    0    0    0 -0.00000000000E+00 -0.00000000000E+00  0.00000000000E+00  0.93800000000E+00  0.93800000000E+00 0. -1.
         11    1    1    2    0    0  0.43612186437E-01 -0.23325471803E+00  0.10512461865E+01  0.10776959645E+01  0.51100000000E-03 0.  1.
    9000002    1    1    2    0    0  0.23774581870E+00  0.34429551752E+00  0.14148382703E+00  0.10367854894E+01  0.93800000000E+00 0. -1.
         22    1    1    2    0    0 -0.28135800514E+00 -0.11104079948E+00  0.28072699539E+01  0.28235185461E+01  0.00000000000E+00 0.  1.
</event>
<event>
 5    1  0.3005426E+001  0.1598709E+01  0.7818608E-02  0.3354766E+00
         11   -1    0    0    0    0  0.00000000000E+00  0.00000000000E+00  0.39999999674E+01  0.40000000000E+01  0.51100000000E-03 0.  1.
    9000002   -1    0    0    0    0 -0.00000000000E+00 -0.00000000000E+00  0.00000000000E+00  0.93800000000E+00  0.93800000000E+00 0. -1.
         11    1    1    2    0    0 -0.60825191221E-01  0.36055174301E-01  0.49082908075E+00  0.49589628665E+00  0.51100000000E-03 0.  1.
    9000002    1    1    2    0    0  0.28890583452E+00 -0.24763417090E+00  0.98221314902E-01  0.10169959147E+01  0.93800000000E+00 0. -1.
         22    1    1    2    0    0 -0.22808064330E+00  0.21157899660E+00  0.34109495717E+01  0.34251077986E+01  0.00000000000E+00 0.  1.
</event>
<event>
 5    1  0.3005426E+001  0.1599662E+01  0.7818608E-02  0.3353730E+00
         11   -1    0    0    0    0  0.00000000000E+00  0.00000000000E+00  0.39999999674E+01  0.40000000000E+01  0.51100000000E-03 0.  1.
    9000002   -1    0    0    0    0 -0.00000000000E+00 -0.00000000000E+00  0.00000000000E+00  0.93800000000E+00  0.93800000000E+00 0. -1.
         11    1    1    2    0    0  0.58781238447E-01 -0.47517727866E-01  0.56410392185E+00  0.56914555627E+00  0.51100000000E-03 0.  1.
    9000002    1    1    2    0    0 -0.41523269882E+00  0.30834358055E+00  0.18366899498E+00  0.10867714836E+01  0.93800000000E+00 0. -1.
         22    1    1    2    0    0  0.35645146037E+00 -0.26082585268E+00  0.32522270505E+01  0.32820829601E+01  0.00000000000E+00 0.  1.
</event>
<event>
 5    1  0.3005426E+001  0.1590231E+01  0.7818608E-02  0.3364035E+00
         11   -1    0    0    0    0  0.00000000000E+00  0.00000000000E+00  0.39999999674E+01  0.40000000000E+01  0.51100000000E-03 0.  1.
    9000002   -1    0    0    0    0 -0.00000000000E+00 -0.00000000000E+00  0.00000000000E+00  0.93800000000E+00  0.93800000000E+00 0. -1.
         11    1    1    2    0    0  0.14596320736E-01  0.72529630543E-01  0.92326159299E+00  0.92622126411E+00  0.51100000000E-03 0.  1.
    9000002    1    1    2    0    0  0.32578183980E+00 -0.44496905808E+00  0.21910703739E+00  0.11099473698E+01  0.93800000000E+00 0. -1.
         22    1    1    2    0    0 -0.34037816054E+00  0.37243942754E+00  0.28576313370E+01  0.29018313661E+01  0.00000000000E+00 0.  1.
</event>
<event>
 5    1  0.3005426E+001  0.1275752E+01  0.7818608E-02  0.3829405E+00
         11   -1    0    0    0    0  0.00000000000E+00  0.00000000000E+00  0.39999999674E+01  0.40000000000E+01  0.51100000000E-03 0. -1.
    9000002   -1    0    0    0    0 -0.00000000000E+00 -0.00000000000E+00  0.00000000000E+00  0.93800000000E+00  0.93800000000E+00 0. -1.
         11    1    1    2    0    0 -0.56577913933E+00 -0.54960268795E+00  0.11269856417E+01  0.13755966149E+01  0.51100000000E-03 0. -1.
    9000002    1    1    2    0    0  0.12441846984E+00  0.46250665049E+00  0.53461344945E+00  0.11811214576E+01  0.93800000000E+00 0. -1.
         22    1    1    2    0    0  0.44136066949E+00  0.87096037463E-01  0.23384008762E+01  0.23812819275E+01  0.00000000000E+00 0. -1.
</event>
<event>
 5    1  0.3005426E+001  0.1596985E+01  0.7818608E-02  0.3356643E+00
         11   -1    0    0    0    0  0.00000000000E+00  0.00000000000E+00  0.39999999674E+01  0.40000000000E+01  0.51100000000E-03 0. -1.
    9000002   -1    0    0    0    0 -0.00000000000E+00 -0.00000000000E+00  0.00000000000E+00  0.93800000000E+00  0.93800000000E+00 0.  1.
         11    1    1    2    0    0 -0.16590533180E+00 -0.94578315836E-01  0.12419293642E+01  0.12565263403E+01  0.51100000000E-03 0. -1.
    9000002    1    1    2    0    0  0.49487730104E+00  0.11148328070E+00  0.17882041878E+00  0.10812736967E+01  0.93800000000E+00 0.  1.
         22    1    1    2    0    0 -0.32897196924E+00 -0.16904964863E-01  0.25792501843E+01  0.26001999630E+01  0.00000000000E+00 0. -1.
</event>
<event>
 5    1  0.3005426E+001  0.1599568E+01  0.7818608E-02  0.3353832E+00
         11   -1    0    0    0    0  0.00000000000E+00  0.00000000000E+00  0.39999999674E+01  0.40000000000E+01  0.51100000000E-03 0. -1.
    9000002   -1    0    0    0    0 -0.00000000000E+00 -0.00000000000E+00  0.00000000000E+00  0.93800000000E+00  0.93800000000E+00 0. -1.
         11    1    1    2    0    0  0.95450569913E-01 -0.14067898894E+00  0.93541264573E+00  0.95073575095E+00  0.51100000000E-03 0. -1.
    9000002    1    1    2    0    0 -0.39730813476E+00  0.51791491222E+00  0.30098372116E+00  0.11817465086E+01  0.93800000000E+00 0. -1.
         22    1    1    2    0    0  0.30185756485E+00 -0.37723592328E+00  0.27636036005E+01  0.28055177404E+01  0.00000000000E+00 0. -1.
</event>
<event>
 5    1  0.3005426E+001  0.1596193E+01  0.7818608E-02  0.3357506E+00
         11   -1    0    0    0    0  0.00000000000E+00  0.00000000000E+00  0.39999999674E+01  0.40000000000E+01  0.51100000000E-03 0.  1.
    9000002   -1    0    0    0    0 -0.00000000000E+00 -0.00000000000E+00  0.00000000000E+00  0.93800000000E+00  0.93800000000E+00 0.  1.
         11    1    1    2    0    0 -0.91446434659E-01  0.63444632138E-01  0.12794757957E+01  0.12843076908E+01  0.51100000000E-03 0.  1.
    9000002    1    1    2    0    0  0.34893923045E+00 -0.22964461163E-02  0.84443518744E-01  0.10043597802E+01  0.93800000000E+00 0.  1.
         22    1    1    2    0    0 -0.25749279579E+00 -0.61148186022E-01  0.26360806529E+01  0.26493325290E+01  0.00000000000E+00 0.  1.
</event>
<event>
 5    1  0.3005426E+001  0.1596776E+01  0.7818608E-02  0.3356870E+00
         11   -1    0    0    0    0  0.00000000000E+00  0.00000000000E+00  0.39999999674E+01  0.40000000000E+01  0.51100000000E-03 0. -1.
    9000002   -1    0    0    0    0 -0.00000000000E+00 -0.00000000000E+00  0.00000000000E+00  0.93800000000E+00  0.93800000000E+00 0.  1.
         11    1    1    2    0    0 -0.11951802411E+00 -0.13619207529E-01  0.14909835948E+01  0.14958283264E+01  0.51100000000E-03 0. -1.
    9000002    1    1    2    0    0  0.35935392139E+00 -0.12258111976E+00  0.99377773477E-01  0.10167995445E+01  0.93800000000E+00 0.  1.
         22    1    1    2    0    0 -0.23983589728E+00  0.13620032729E+00  0.24096385991E+01  0.24253721292E+01  0.00000000000E+00 0. -1.
</event>
<event>
 5    1  0.3005426E+001  0.1599645E+01  0.7818608E-02  0.3353748E+00
         11   -1    0    0    0    0  0.00000000000E+00  0.00000000000E+00  0.39999999674E+01  0.40000000000E+01  0.51100000000E-03 0. -1.
    9000002   -1    0    0    0    0 -0.00000000000E+00 -0.00000000000E+00  0.00000000000E+00  0.93800000000E+00  0.93800000000E+00 0. -1.
         11    1    1    2    0    0  0.17567843548E+00  0.45337447941E-02  0.14579303281E+01  0.14684837658E+01  0.51100000000E-03 0. -1.
    9000002    1    1    2    0    0 -0.45421257096E+00 -0.25626048437E-01  0.14069829141E+00  0.10519533085E+01  0.93800000000E+00 0. -1.
         22    1    1    2    0    0  0.27853413548E+00  0.21092303643E-01  0.24013713478E+01  0.24175629258E+01  0.00000000000E+00 0. -1.
</event>
<event>
 5    1  0.3005426E+001  0.1598671E+01  0.7818608E-02  0.3354807E+00
         11   -1    0    0    0    0  0.00000000000E+00  0.00000000000E+00  0.39999999674E+01  0.40000000000E+01  0.51100000000E-03 0.  1.
    9000002   -1    0    0    0    0 -0.00000000000E+00 -0.00000000000E+00  0.00000000000E+00  0.93800000000E+00  0.93800000000E+00 0.  1.
         11    1    1    2    0    0  0.17057897735E+00  0.15733697092E-01  0.12354676067E+01  0.12472871382E+01  0.51100000000E-03 0.  1.
    9000002    1    1    2    0    0 -0.44751465194E+00  0.22411098245E-01  0.13719006948E+00  0.10485402883E+01  0.93800000000E+00 0.  1.
         22    1    1    2    0    0  0.27693567459E+00 -0.38144795337E-01  0.26273422911E+01  0.26421725735E+01  0.00000000000E+00 0.  1.
</event>
<event>
 5    1  0.3005426E+001  0.1598233E+01  0.7818608E-02  0.3355283E+00
         11   -1    0    0    0    0  0.00000000000E+00  0.00000000000E+00  0.39999999674E+01  0.40000000000E+01  0.51100000000E-03 0.  1.
    9000002   -1    0    0    0    0 -0.00000000000E+00 -0.00000000000E+00  0.00000000000E+00  0.93800000000E+00  0.93800000000E+00 0. -1.
         11    1    1    2    0    0 -0.18361590873E+00 -0.71100185842E-01  0.34924517085E+00  0.40092703681E+00  0.51100000000E-03 0.  1.
    9000002    1    1    2    0    0  0.11396705372E+01  0.60159952029E+00  0.20080297345E+01  0.25637469319E+01  0.93800000000E+00 0. -1.
         22    1    1    2    0    0 -0.95605462846E+00 -0.53049933445E+00  0.16427250620E+01  0.19733260313E+01  0.00000000000E+00 0.  1.
</event>
<event>
 5    1  0.3005426E+001  0.1580485E+01  0.7818608E-02  0.3374821E+00
         11   -1    0    0    0    0  0.00000000000E+00  0.00000000000E+00  0.39999999674E+01  0.40000000000E+01  0.51100000000E-03 0. -1.
    9000002   -1    0    0    0    0 -0.00000000000E+00 -0.00000000000E+00  0.00000000000E+00  0.93800000000E+00  0.93800000000E+00 0. -1.
         11    1    1    2    0    0 -0.81531634258E-01  0.69187952259E-02  0.11175107967E+01  0.11205025296E+01  0.51100000000E-03 0. -1.
    9000002    1    1    2    0    0 -0.24243218900E+00 -0.10817607948E-01  0.53865020757E-01  0.97037921833E+00  0.93800000000E+00 0. -1.
         22    1    1    2    0    0  0.32396382326E+00  0.38988127224E-02  0.28286241499E+01  0.28471182521E+01  0.00000000000E+00 0. -1.
</event>
<event>
 5    1  0.3005426E+001  0.1599623E+01  0.7818608E-02  0.3353773E+00
         11   -1    0    0    0    0  0.00000000000E+00  0.00000000000E+00  0.39999999674E+01  0.40000000000E+01  0.51100000000E-03 0.  1.
    9000002   -1    0    0    0    0 -0.00000000000E+00 -0.00000000000E+00  0.00000000000E+00  0.93800000000E+00  0.93800000000E+00 0. -1.
         11    1    1    2    0    0  0.55202614460E-01 -0.19004565231E-01  0.51731851484E+00  0.52060273632E+00  0.51100000000E-03 0.  1.
    9000002    1    1    2    0    0 -0.41517183335E+00  0.97355298747E-01  0.12313757750E+00  0.10377150709E+01  0.93800000000E+00 0. -1.
         22    1    1    2    0    0  0.35996921889E+00 -0.78350733516E-01  0.33595438750E+01  0.33796821928E+01  0.00000000000E+00 0.  1.
</event>
<event>
 5    1  0.3005426E+001  0.1496420E+01  0.7818608E-02  0.3474075E+00
         11   -1    0    0    0    0  0.00000000000E+00  0.00000000000E+00  0.39999999674E+01  0.40000000000E+01  0.51100000000E-03 0.  1.
    9000002   -1    0    0    0    0 -0.00000000000E+00 -0.00000000000E+00  0.00000000000E+00  0.93800000000E+00  0.93800000000E+00 0.  1.
         11    1    1    2    0    0  0.58645626262E-01  0.63218371391E-01  0.17831071671E-01  0.88057255232E-01  0.51100000000E-03 0.  1.
    9000002    1    1    2    0    0  0.33672355905E-01  0.29101943512E+00  0.14261791221E+00  0.99298036640E+00  0.93800000000E+00 0.  1.
         22    1    1    2    0    0 -0.92317982167E-01 -0.35423780651E+00  0.38395509835E+01  0.38569623784E+01  0.00000000000E+00 0.  1.
</event>
<event>
 5    1  0.3005426E+001  0.1599677E+01  0.7818608E-02  0.3353714E+00
         11   -1    0    0    0    0  0.00000000000E+00  0.00000000000E+00  0.39999999674E+01  0.40000000000E+01  0.51100000000E-03 0. -1.
    9000002   -1    0    0    0    0 -0.00000000000E+00 -0.00000000000E+00  0.00000000000E+00  0.93800000000E+00  0.93800000000E+00 0.  1.
         11    1    1    2    0    0  0.10215206960E+00 -0.15378924622E+00  0.11619753175E+01  0.11765513492E+01  0.51100000000E-03 0. -1.
    9000002    1    1    2    0    0 -0.32922901873E+00  0.49740715020E+00  0.24806007522E+00  0.11389396037E+01  0.93800000000E+00 0.  1.
         22    1    1    2    0    0  0.22707694913E+00 -0.34361790399E+00  0.25899645746E+01  0.26225090472E+01  0.00000000000E+00 0. -1.
</event>
<event>
 5    1  0.3005426E+001  0.1599661E+01  0.7818608E-02  0.3353732E+00
         11   -1    0    0    0    0  0.00000000000E+00  0.00000000000E+00  0.39999999674E+01  0.40000000000E+01  0.51100000000E-03 0. -1.
    9000002   -1    0    0    0    0 -0.00000000000E+00 -0.00000000000E+00  0.00000000000E+00  0.93800000000E+00  0.93800000000E+00 0.  1.
         11    1    1    2    0    0 -0.89254648744E-01 -0.68377981829E-01  0.75956094215E+00  0.76783789088E+00  0.51100000000E-03 0. -1.
    9000002    1    1    2    0    0  0.42693558200E+00  0.33791253407E+00  0.20456651226E+00  0.11036984778E+01  0.93800000000E+00 0.  1.
         22    1    1    2    0    0 -0.33768093325E+00 -0.26953455224E+00  0.30358725130E+01  0.30664636314E+01  0.00000000000E+00 0. -1.
</event>
<event>
 5    1  0.3005426E+001  0.1599676E+01  0.7818608E-02  0.3353715E+00
         11   -1    0    0    0    0  0.00000000000E+00  0.00000000000E+00  0.39999999674E+01  0.40000000000E+01  0.51100000000E-03 0. -1.
    9000002   -1    0    0    0    0 -0.00000000000E+00 -0.00000000000E+00  0.00000000000E+00  0.93800000000E+00  0.93800000000E+00 0.  1.
         11    1    1    2    0    0  0.10108012904E-01 -0.36146769860E-01  0.37619134557E+00  0.37805945365E+00  0.51100000000E-03 0. -1.
    9000002    1    1    2    0    0 -0.10861023551E+00  0.37134142865E+00  0.10080355163E+00  0.10196548416E+01  0.93800000000E+00 0.  1.
         22    1    1    2    0    0  0.98502222603E-01 -0.33519465879E+00  0.35230050702E+01  0.35402857048E+01  0.00000000000E+00 0. -1.
</event>
<event>
 5    1  0.3005426E+001  0.1599576E+01  0.7818608E-02  0.3353824E+00
         11   -1    0    0    0    0  0.00000000000E+00  0.00000000000E+00  0.39999999674E+01  0.40000000000E+01  0.51100000000E-03 0. -1.
    9000002   -1    0    0    0    0 -0.00000000000E+00 -0.00000000000E+00  0.00000000000E+00  0.93800000000E+00  0.93800000000E+00 0.  1.
         11    1    1    2    0    0 -0.27449317092E-01 -0.12714464517E-01  0.32359546049E+00  0.32500677807E+00  0.51100000000E-03 0. -1.
    9000002    1    1    2    0    0  0.28059322313E+00  0.21550217626E+00  0.84047105919E-01  0.10060226940E+01  0.93800000000E+00 0.  1.
         22    1    1    2    0    0 -0.25314390604E+00 -0.20278771175E+00  0.35923574009E+01  0.36069705279E+01  0.00000000000E+00 0. -1.
</event>
<event>
 5    1  0.3005426E+001  0.1596694E+01  0.7818608E-02  0.3356959E+00
         11   -1    0    0    0    0  0.00000000000E+00  0.00000000000E+00  0.39999999674E+01  0.40000000000E+01  0.51100000000E-03 0.  1.
    9000002   -1    0    0    0    0 -0.00000000000E+00 -0.00000000000E+00  0.00000000000E+00  0.93800000000E+00  0.93800000000E+00 0.  1.
         11    1    1    2    0    0 -0.19732270428E+00  0.19799207861E-01  0.14087366387E+01  0.14226269492E+01  0.51100000000E-03 0.  1.
    9000002    1    1    2    0    0  0.56456140574E+00  0.11327808213E+00  0.23306551223E+00  0.11250444603E+01  0.93800000000E+00 0.  1.
         22    1    1    2    0    0 -0.36723870147E+00 -0.13307728999E+00  0.23581978164E+01  0.23903285905E+01  0.00000000000E+00 0.  1.
</event>
<event>
 5    1  0.3005426E+001  0.1599648E+01  0.7818608E-02  0.3353746E+00
         11   -1    0    0    0    0  0.00000000000E+00  0.00000000000E+00  0.39999999674E+01  0.40000000000E+01  0.51100000000E-03 0. -1.
    9000002   -1    0    0    0    0 -0.00000000000E+00 -0.00000000000E+00  0.00000000000E+00  0.93800000000E+00  0.93800000000E+00 0. -1.
         11    1    1    2    0    0 -0.19921487733E+00 -0.49610763567E-02  0.13325129156E+01  0.13473314778E+01  0.51100000000E-03 0. -1.
    9000002    1    1    2    0    0  0.57919490314E+00  0.65095422017E-02  0.23310061209E+00  0.11268047769E+01  0.93800000000E+00 0. -1.
         22    1    1    2    0    0 -0.37998002581E+00 -0.15484658450E-02  0.24343864396E+01  0.24638637453E+01  0.00000000000E+00 0. -1.
</event>
<event>
 5    1  0.3005426E+001  0.1599666E+01  0.7818608E-02  0.3353726E+00
         11   -1    0    0    0    0  0.00000000000E+00  0.00000000000E+00  0.39999999674E+01  0.40000000000E+01  0.51100000000E-03 0.  1.
    9000002   -1    0    0    0    0 -0.00000000000E+00 -0.00000000000E+00  0.00000000000E+00  0.93800000000E+00  0.93800000000E+00 0. -1.
         11    1    1    2    0    0 -0.15820117525E-02  0.38637725546E-02  0.35308981335E-01  0.35558638661E-01  0.51100000000E-03 0.  1.
    9000002    1    1    2    0    0  0.11055123368E+00 -0.42015413583E+00  0.12791873185E+00  0.10416133040E+01  0.93800000000E+00 0. -1.
         22    1    1    2    0    0 -0.10896922193E+00  0.41629036327E+00  0.38367722542E+01  0.38608280573E+01  0.00000000000E+00 0.  1.
</event>
<event>
 5    1  0.3005426E+001  0.1599573E+01  0.7818608E-02  0.3353826E+00
         11   -1    0    0    0    0  0.00000000000E+00  0.00000000000E+00  0.39999999674E+01  0.40000000000E+01  0.51100000000E-03 0.  1.
    9000002   -1    0    0    0    0 -0.00000000000E+00 -0.00000000000E+00  0.00000000000E+00  0.93800000000E+00  0.93800000000E+00 0. -1.
         11    1    1    2    0    0  0.25939696733E-01 -0.12640306124E+00  0.12580583949E+01  0.12646587634E+01  0.51100000000E-03 0.  1.
    9000002    1    1    2    0    0 -0.11539911047E+00  0.39369112281E+00  0.11376679857E+00  0.10300954030E+01  0.93800000000E+00 0. -1.
         22    1    1    2    0    0  0.89459413737E-01 -0.26728806157E+00  0.26281747739E+01  0.26432458335E+01  0.00000000000E+00 0.  1.
</event>
<event>
 5    1  0.3005426E+001  0.1598490E+01  0.7818608E-02  0.3355003E+00
         11   -1    0    0    0    0  0.00000000000E+00  0.00000000000E+00  0.39999999674E+01  0.40000000000E+01  0.51100000000E-03 0.  1.
    9000002   -1    0    0    0    0 -0.00000000000E+00 -0.00000000000E+00  0.00000000000E+00  0.93800000000E+00  0.93800000000E+00 0.  1.
         11    1    1    2    0    0  0.25719153376E-01 -0.50075559406E-01  0.28471327885E+00  0.29022568593E+00  0.51100000000E-03 0.  1.
    9000002    1    1    2    0    0 -0.17304171911E+00  0.43704189250E+00  0.15156386568E+00  0.10600776659E+01  0.93800000000E+00 0.  1.
         22    1    1    2    0    0  0.14732256574E+00 -0.38696633309E+00  0.35637228228E+01  0.35876966482E+01  0.00000000000E+00 0.  1.
</event>
<event>
 5    1  0.3005426E+001  0.1599580E+01  0.7818608E-02  0.3353819E+00
         11   -1    0    0    0    0  0.00000000000E+00  0.00000000000E+00  0.39999999674E+01  0.40000000000E+01  0.51100000000E-03 0. -1.
    9000002   -1    0    0    0    0 -0.00000000000E+00 -0.00000000000E+00  0.00000000000E+00  0.93800000000E+00  0.93800000000E+00 0. -1.
         11    1    1    2    0    0 -0.46316865364E-01  0.77904159318E-01  0.43499089161E+00  0.44433281103E+00  0.51100000000E-03 0. -1.
    9000002    1    1    2    0    0  0.40703482785E+00 -0.58916977891E+00  0.36821500988E+00  0.12362138460E+01  0.93800000000E+00 0. -1.
         22    1    1    2    0    0 -0.36071796249E+00  0.51126561959E+00  0.31967940659E+01  0.32574533430E+01  0.00000000000E+00 0. -1.
</event>
<event>
 5    1  0.3005426E+001  0.1599377E+01  0.7818608E-02  0.3354040E+00
         11   -1    0    0    0    0  0.00000000000E+00  0.00000000000E+00  0.39999999674E+01  0.40000000000E+01  0.51100000000E-03 0.  1.
    9000002   -1    0    0    0    0 -0.00000000000E+00 -0.00000000000E+00  0.00000000000E+00  0.93800000000E+00  0.93800000000E+00 0. -1.
         11    1    1    2    0    0 -0.18476240602E+00 -0.13293876561E+00  0.13873574085E+01  0.14059056519E+01  0.51100000000E-03 0.  1.
    9000002    1    1    2    0    0  0.54301835509E+00  0.33127217343E+00  0.28488736595E+00  0.11685953098E+01  0.93800000000E+00 0. -1.
         22    1    1    2    0    0 -0.35825594907E+00 -0.19833340782E+00  0.23277551929E+01  0.23634990382E+01  0.00000000000E+00 0.  1.
</event>
<event>
 5    1  0.3013216E+001  0.1595649E+01  0.7818608E-02  0.3358099E+00
         11   -1    0    0    0    0  0.00000000000E+00  0.00000000000E+00  0.39999999674E+01  0.40000000000E+01  0.51100000000E-03 0.  1.
    9000002   -1    0    0    0    0 -0.00000000000E+00 -0.00000000000E+00  0.00000000000E+00  0.93800000000E+00  0.93800000000E+00 0.  1.
         11    1    1    2    0    0 -0.30854529202E+00  0.11949963489E+00  0.13178360305E+01  0.13587392776E+01  0.51100000000E-03 0.  1.
    9000002    1    1    2    0    0  0.94217135026E+00 -0.24246476496E+00  0.75746006186E+00  0.15492145625E+01  0.93800000000E+00 0.  1.
         22    1    1    2    0    0 -0.63362605824E+00  0.12296513006E+00  0.19247038750E+01  0.20300461599E+01  0.00000000000E+00 0.  1.
</event>
<event>
 5    1  0.3005426E+001  0.1598846E+01  0.7818608E-02  0.3354617E+00
         11   -1    0    0    0    0  0.00000000000E+00  0.00000000000E+00  0.39999999674E+01  0.40000000000E+01  0.51100000000E-03 0.  1.
    9000002   -1    0    0    0    0 -0.00000000000E+00 -0.00000000000E+00  0.00000000000E+00  0.93800000000E+00  0.93800000000E+00 0.  1.
         11    1    1    2    0    0 -0.65858439298E-01 -0.16017881191E+00  0.97024170484E+00  0.98557790800E+00  0.51100000000E-03 0.  1.
    9000002    1    1    2    0    0  0.14521211200E+00  0.57566375204E+00  0.24641340548E+00  0.11371186742E+01  0.93800000000E+00 0.  1.
         22    1    1    2    0    0 -0.79353672701E-01 -0.41548494014E+00  0.27833448570E+01  0.28153034178E+01  0.00000000000E+00 0.  1.
</event>
<event>
 5    1  0.3005426E+001  0.1598620E+01  0.7818608E-02  0.3354863E+00
         11   -1    0    0    0    0  0.00000000000E+00  0.00000000000E+00  0.39999999674E+01  0.40000000000E+01  0.51100000000E-03 0.  1.
    9000002   -1    0    0    0    0 -0.00000000000E+00 -0.00000000000E+00  0.00000000000E+00  0.93800000000E+00  0.93800000000E+00 0.  1.
         11    1    1    2    0    0 -0.72217174003E-01 -0.37859652509E-01  0.10945371927E+01  0.10975703171E+01  0.51100000000E-03 0.  1.
    9000002    1    1    2    0    0  0.34013541934E+00  0.39708846973E-01  0.79413246863E-01  0.10017082209E+01  0.93800000000E+00 0.  1.
         22    1    1    2    0    0 -0.26791824534E+00 -0.18491944642E-02  0.28260495278E+01  0.28387214621E+01  0.00000000000E+00 0.  1.
</event>
<event>
 5    1  0.3005426E+001  0.1589551E+01  0.7818608E-02  0.3364783E+00
         11   -1    0    0    0    0  0.00000000000E+00  0.00000000000E+00  0.39999999674E+01  0.40000000000E+01  0.51100000000E-03 0.  1.
    9000002   -1    0    0    0    0 -0.00000000000E+00 -0.00000000000E+00  0.00000000000E+00  0.93800000000E+00  0.93800000000E+00 0.  1.
         11    1    1    2    0    0  0.65098095523E-01 -0.17657820622E+00  0.68961425993E+00  0.71483264725E+00  0.51100000000E-03 0.  1.
    9000002    1    1    2    0    0 -0.15245370722E+00  0.49362181670E+00  0.19255072734E+00  0.10880369540E+01  0.93800000000E+00 0.  1.
         22    1    1    2    0    0  0.87355611697E-01 -0.31704361049E+00  0.31178349801E+01  0.31351303987E+01  0.00000000000E+00 0.  1.
</event>
<event>
 5    1  0.3005426E+001  0.1198391E+01  0.7818608E-02  0.3996912E+00
         11   -1    0    0    0    0  0.00000000000E+00  0.00000000000E+00  0.39999999674E+01  0.40000000000E+01  0.51100000000E-03 0. -1.
    9000002   -1    0    0    0    0 -0.00000000000E+00 -0.00000000000E+00  0.00000000000E+00  0.93800000000E+00  0.93800000000E+00 0. -1.
         11    1    1    2    0    0 -0.64924027653E-01  0.10330141303E-01 -0.18532504380E+00  0.19664046930E+00  0.51100000000E-03 0. -1.
    9000002    1    1    2    0    0 -0.29879916477E+00  0.64528209269E+00  0.12718016768E+01  0.17329147195E+01  0.93800000000E+00 0. -1.
         22    1    1    2    0    0  0.36372319242E+00 -0.65561223400E+00  0.29135233343E+01  0.30084448112E+01  0.00000000000E+00 0. -1.
</event>
<event>
 5    1  0.3005426E+001  0.1597916E+01  0.7818608E-02  0.3355628E+00
         11   -1    0    0    0    0  0.00000000000E+00  0.00000000000E+00  0.39999999674E+01  0.40000000000E+01  0.51100000000E-03 0. -1.
    9000002   -1    0    0    0    0 -0.00000000000E+00 -0.00000000000E+00  0.00000000000E+00  0.93800000000E+00  0.93800000000E+00 0.  1.
         11    1    1    2    0    0 -0.73294455086E-01 -0.64041998676E-01  0.60072559318E+00  0.60855973755E+00  0.51100000000E-03 0. -1.
    9000002    1    1    2    0    0  0.42426281074E+00  0.17944427765E+00  0.14588728605E+00  0.10551427778E+01  0.93800000000E+00 0.  1.
         22    1    1    2    0    0 -0.35096835566E+00 -0.11540227897E+00  0.32533870881E+01  0.32742974846E+01  0.00000000000E+00 0. -1.
</event>
<event>
 5    1  0.3005426E+001  0.1586851E+01  0.7818608E-02  0.3367759E+00
         11   -1    0    0    0    0  0.00000000000E+00  0.00000000000E+00  0.39999999674E+01  0.40000000000E+01  0.51100000000E-03 0.  1.
    9000002   -1    0    0    0    0 -0.00000000000E+00 -0.00000000000E+00  0.00000000000E+00  0.93800000000E+00  0.93800000000E+00 0. -1.
         11    1    1    2    0    0 -0.44655244825E-01 -0.13760325831E-01  0.63304052164E+00  0.63476294837E+00  0.51100000000E-03 0.  1.
    9000002    1    1    2    0    0 -0.10684634076E-03 -0.46750593038E+00  0.16015910538E+00  0.10602154241E+01  0.93800000000E+00 0. -1.
         22    1    1    2    0    0  0.44762091166E-01  0.48126625621E+00  0.32068003403E+01  0.32430216276E+01  0.00000000000E+00 0.  1.
</event>
<event>
 5    1  0.3005426E+001  0.1599241E+01  0.7818608E-02  0.3354188E+00
         11   -1    0    0    0    0  0.00000000000E+00  0.00000000000E+00  0.39999999674E+01  0.40000000000E+01  0.51100000000E-03 0.  1.
    9000002   -1    0    0    0    0 -0.00000000000E+00 -0.00000000000E+00  0.00000000000E+00  0.93800000000E+00  0.93800000000E+00 0.  1.
         11    1    1    2    0    0  0.76915574174E-01 -0.17107400680E-01  0.99098293880E+00  0.99411071558E+00  0.51100000000E-03 0.  1.
    9000002    1    1    2    0    0 -0.38281253977E+00  0.98508709494E-01  0.10569196367E+00  0.10233592710E+01  0.93800000000E+00 0.  1.
         22    1    1    2    0    0  0.30589696559E+00 -0.81401308814E-01  0.29033250649E+01  0.29205300134E+01  0.00000000000E+00 0.  1.
</event>
<event>
 5    1  0.3005426E+001  0.1599324E+01  0.7818608E-02  0.3354097E+00
         11   -1    0    0    0    0  0.00000000000E+00  0.00000000000E+00  0.39999999674E+01  0.40000000000E+01  0.51100000000E-03 0.  1.
    9000002   -1    0    0    0    0 -0.00000000000E+00 -0.00000000000E+00  0.00000000000E+00  0.93800000000E+00  0.93800000000E+00 0. -1.
         11    1    1    2    0    0  0.47107687608E-01  0.74164746348E-01  0.11142416971E+01  0.11177004807E+01  0.51100000000E-03 0.  1.
    9000002    1    1    2    0    0 -0.21609233853E+00 -0.31026521977E+00  0.96456503885E-01  0.10159272919E+01  0.93800000000E+00 0. -1.
         22    1    1    2    0    0  0.16898465092E+00  0.23610047342E+00  0.27893017664E+01  0.28043722274E+01  0.00000000000E+00 0.  1.
</event>
<event>
 5    1  0.3005426E+001  0.1599662E+01  0.7818608E-02  0.3353730E+00
         11   -1    0    0    0    0  0.00000000000E+00  0.00000000000E+00  0.39999999674E+01  0.40000000000E+01  0.51100000000E-03 0.  1.
    9000002   -1    0    0    0    0 -0.00000000000E+00 -0.00000000000E+00  0.00000000000E+00  0.93800000000E+00  0.93800000000E+00 0.  1.
         11    1    1    2    0    0  0.41147788494E-01  0.29515561990E+00  0.12739541150E+01  0.13083460279E+01  0.51100000000E-03 0.  1.
    9000002    1    1    2    0    0 -0.12502772815E+00 -0.81229838837E+00  0.50137730483E+00  0.13441293860E+01  0.93800000000E+00 0.  1.
         22    1    1    2    0    0  0.83879939658E-01  0.51714276847E+00  0.22246685475E+01  0.22855245861E+01  0.00000000000E+00 0.  1.
</event>
<event>
 5    1  0.3005426E+001  0.1599550E+01  0.7818608E-02  0.3353852E+00
         11   -1    0    0    0    0  0.00000000000E+00  0.00000000000E+00  0.39999999674E+01  0.40000000000E+01  0.51100000000E-03 0. -1.
    9000002   -1    0    0    0    0 -0.00000000000E+00 -0.00000000000E+00  0.00000000000E+00  0.93800000000E+00  0.93800000000E+00 0.  1.
         11    1    1    2    0    0 -0.41021517066E-02  0.12067057227E+00  0.14151681833E+01  0.14203096362E+01  0.51100000000E-03 0. -1.
    9000002    1    1    2    0    0 -0.72597657214E-02 -0.36450020602E+00  0.89369867864E-01  0.10103188000E+01  0.93800000000E+00 0.  1.
         22    1    1    2    0    0  0.11361917428E-01  0.24382963375E+00  0.24954619162E+01  0.25073715638E+01  0.00000000000E+00 0. -1.
</event>
<event>
 5    1  0.3005426E+001  0.1599271E+01  0.7818608E-02  0.3354155E+00
         11   -1    0    0    0    0  0.00000000000E+00  0.00000000000E+00  0.39999999674E+01  0.40000000000E+01  0.51100000000E-03 0. -1.
    9000002   -1    0    0    0    0 -0.00000000000E+00 -0.00000000000E+00  0.00000000000E+00  0.93800000000E+00  0.93800000000E+00 0.  1.
         11    1    1    2    0    0  0.53233691612E-01  0.89113288089E-02  0.77597490847E+00  0.77784995815E+00  0.51100000000E-03 0. -1.
    9000002    1    1    2    0    0 -0.36500950816E+00 -0.57474508385E-01  0.92082509213E-01  0.10123529269E+01  0.93800000000E+00 0.  1.
         22    1    1    2    0    0  0.31177581655E+00  0.48563179576E-01  0.31319425497E+01  0.31477971149E+01  0.00000000000E+00 0. -1.
</event>
<event>
 5    1  0.3005426E+001  0.1568967E+01  0.7818608E-02  0.3387749E+00
         11   -1    0    0    0    0  0.00000000000E+00  0.00000000000E+00  0.39999999674E+01  0.40000000000E+01  0.51100000000E-03 0.  1.
    9000002   -1    0    0    0    0 -0.00000000000E+00 -0.00000000000E+00  0.00000000000E+00  0.93800000000E+00  0.93800000000E+00 0. -1.
         11    1    1    2    0    0 -0.26478022590E+00 -0.13073478754E+00  0.11299891180E+01  0.11679365653E+01  0.51100000000E-03 0.  1.
    9000002    1    1    2    0    0  0.50421282948E+00 -0.86752080063E-01  0.20805286482E+00  0.10885249172E+01  0.93800000000E+00 0. -1.
         22    1    1    2    0    0 -0.23943260359E+00  0.21748686760E+00  0.26619579846E+01  0.26815385175E+01  0.00000000000E+00 0.  1.
</event>
<event>
 5    1  0.3005426E+001  0.1599654E+01  0.7818608E-02  0.3353739E+00
         11   -1    0    0    0    0  0.00000000000E+00  0.00000000000E+00  0.39999999674E+01  0.40000000000E+01  0.51100000000E-03 0. -1.
    9000002   -1    0    0    0    0 -0.00000000000E+00 -0.00000000000E+00  0.00000000000E+00  0.93800000000E+00  0.93800000000E+00 0.  1.
         11    1    1    2    0    0 -0.11717546600E+00  0.48495455202E-01  0.13871608263E+01  0.13929455546E+01  0.51100000000E-03 0. -1.
    9000002    1    1    2    0    0  0.32424221598E+00 -0.15091301897E+00  0.85854996436E-01  0.10075330438E+01  0.93800000000E+00 0.  1.
         22    1    1    2    0    0 -0.20706674998E+00  0.10241756377E+00  0.25269841446E+01  0.25375214016E+01  0.00000000000E+00 0. -1.
</event>
<event>
 5    1  0.3005426E+001  0.1520682E+01  0.7818608E-02  0.3444224E+00
         11   -1    0    0    0    0  0.00000000000E+00  0.00000000000E+00  0.39999999674E+01  0.40000000000E+01  0.51100000000E-03 0. -1.
    9000002   -1    0    0    0    0 -0.00000000000E+00 -0.00000000000E+00  0.00000000000E+00  0.93800000000E+00  0.93800000000E+00 0. -1.
         11    1    1    2    0    0 -0.46241095165E-01 -0.25713551598E+00  0.92574876961E+00  0.96190849773E+00  0.51100000000E-03 0. -1.
    9000002    1    1    2    0    0 -0.98401612082E-01 -0.94548722847E-01  0.72820616552E-01  0.95066775503E+00  0.93800000000E+00 0. -1.
         22    1    1    2    0    0  0.14464270725E+00  0.35168423883E+00  0.30014305812E+01  0.30254237472E+01  0.00000000000E+00 0. -1.
</event>
<event>
 5    1  0.3005426E+001  0.1598935E+01  0.7818608E-02  0.3354520E+00
         11   -1    0    0    0    0  0.00000000000E+00  0.00000000000E+00  0.39999999674E+01  0.40000000000E+01  0.51100000000E-03 0. -1.
    9000002   -1    0    0    0    0 -0.00000000000E+00 -0.00000000000E+00  0.00000000000E+00  0.93800000000E+00  0.93800000000E+00 0. -1.
         11    1    1    2    0    0 -0.72875074290E-01 -0.99701076006E-01  0.90894525494E+00  0.91729647258E+00  0.51100000000E-03 0. -1.
    9000002    1    1    2    0    0  0.31806023680E+00  0.52499820985E+00  0.26442252936E+00  0.11517589629E+01  0.93800000000E+00 0. -1.
         22    1    1    2    0    0 -0.24518516251E+00 -0.42529713385E+00  0.28266321831E+01  0.28689445645E+01  0.00000000000E+00 0. -1.
</event>
<event>
 5    1  0.3005426E+001  0.1569172E+01  0.7818608E-02  0.3387518E+00
         11   -1    0    0    0    0  0.00000000000E+00  0.00000000000E+00  0.39999999674E+01  0.40000000000E+01  0.51100000000E-03 0. -1.
    9000002   -1    0    0    0    0 -0.00000000000E+00 -0.00000000000E+00  0.00000000000E+00  0.93800000000E+00  0.93800000000E+00 0.  1.
         11    1    1    2    0    0  0.42287820410E+00  0.36045912627E+00  0.85114124354E+00  0.10164636908E+01  0.51100000000E-03 0. -1.
    9000002    1    1    2    0    0  0.80674693847E-01 -0.20682471859E+00  0.27856272459E+00  0.10033573949E+01  0.93800000000E+00 0.  1.
         22    1    1    2    0    0 -0.50355289794E+00 -0.15363440768E+00  0.28702959992E+01  0.29181789142E+01  0.00000000000E+00 0. -1.
</event>
<event>
 5    1  0.3005426E+001  0.1599662E+01  0.7818608E-02  0.3353731E+00
         11   -1    0    0    0    0  0.00000000000E+00  0.00000000000E+00  0.39999999674E+01  0.40000000000E+01  0.51100000000E-03 0. -1.
    9000002   -1    0    0    0    0 -0.00000000000E+00 -0.00000000000E+00  0.00000000000E+00  0.93800000000E+00  0.93800000000E+00 0. -1.
         11    1    1    2    0    0 -0.35845424247E-01  0.13054265485E+00  0.10795065822E+01  0.10879618565E+01  0.51100000000E-03 0. -1.
    9000002    1    1    2    0    0  0.11600186121E+00 -0.45599672602E+00  0.15084605053E+00  0.10601829922E+01  0.93800000000E+00 0. -1.
         22    1    1    2    0    0 -0.80156436967E-01  0.32545407117E+00  0.27696473347E+01  0.27898551513E+01  0.00000000000E+00 0. -1.
</event>
<event>
 5    1  0.3005426E+001  0.1599669E+01  0.7818608E-02  0.3353723E+00
         11   -1    0    0    0    0  0.00000000000E+00  0.00000000000E+00  0.39999999674E+01  0.40000000000E+01  0.51100000000E-03 0.  1.
    9000002   -1    0    0    0    0 -0.00000000000E+00 -0.00000000000E+00  0.00000000000E+00  0.93800000000E+00  0.93800000000E+00 0. -1.
         11    1    1    2    0    0 -0.16227296051E-01  0.31364555249E+00  0.14627037499E+01  0.14960412356E+01  0.51100000000E-03 0.  1.
    9000002    1    1    2    0    0  0.47796710394E-01 -0.76538634663E+00  0.42856262628E+00  0.12851500729E+01  0.93800000000E+00 0. -1.
         22    1    1    2    0    0 -0.31569414343E-01  0.45174079415E+00  0.21087335912E+01  0.21568086915E+01  0.00000000000E+00 0.  1.
</event>
<event>
 5    1  0.3005426E+001  0.1599672E+01  0.7818608E-02  0.3353720E+00
         11   -1    0    0    0    0  0.00000000000E+00  0.00000000000E+00  0.39999999674E+01  0.40000000000E+01  0.51100000000E-03 0.  1.
    9000002   -1    0    0    0    0 -0.00000000000E+00 -0.00000000000E+00  0.00000000000E+00  0.93800000000E+00  0.93800000000E+00 0. -1.
         11    1    1    2    0    0 -0.94332255218E-01 -0.28912439948E-01  0.10565710129E+01  0.10611677860E+01  0.51100000000E-03 0.  1.
    9000002    1    1    2    0    0  0.34609007477E+00  0.98520535204E-01  0.86920913478E-01  0.10084066050E+01  0.93800000000E+00 0. -1.
         22    1    1    2    0    0 -0.25175781955E+00 -0.69608095256E-01  0.28565080409E+01  0.28684256090E+01  0.00000000000E+00 0.  1.
</event>
<event>
 5    1  0.3005426E+001  0.1564964E+01  0.7818608E-02  0.3392291E+00
         11   -1    0    0    0    0  0.00000000000E+00  0.00000000000E+00  0.39999999674E+01  0.40000000000E+01  0.51100000000E-03 0. -1.
    9000002   -1    0    0    0    0 -0.00000000000E+00 -0.00000000000E+00  0.00000000000E+00  0.93800000000E+00  0.93800000000E+00 0. -1.
         11    1    1    2    0    0  0.71210662180E-01  0.14001447713E+00  0.13426604524E+01  0.13518181697E+01  0.51100000000E-03 0. -1.
    9000002    1    1    2    0    0  0.89088424062E-01  0.13694450995E+00  0.43803692032E-01  0.95312817057E+00  0.93800000000E+00 0. -1.
         22    1    1    2    0    0 -0.16029908624E+00 -0.27695898708E+00  0.26135358229E+01  0.26330536598E+01  0.00000000000E+00 0. -1.
</event>
<event>
 5    1  0.3005426E+001  0.1589946E+01  0.7818608E-02  0.3364349E+00
         11   -1    0    0    0    0  0.00000000000E+00  0.00000000000E+00  0.39999999674E+01  0.40000000000E+01  0.51100000000E-03 0. -1.
    9000002   -1    0    0    0    0 -0.00000000000E+00 -0.00000000000E+00  0.00000000000E+00  0.93800000000E+00  0.93800000000E+00 0. -1.
         11    1    1    2    0    0  0.49659853864E-01  0.35127223269E-01  0.72146897072E+00  0.72402883902E+00  0.51100000000E-03 0. -1.
    9000002    1    1    2    0    0 -0.53288946138E+00  0.22141771601E+00  0.24072696862E+00  0.11272934207E+01  0.93800000000E+00 0. -1.
         22    1    1    2    0    0  0.48322960752E+00 -0.25654493928E+00  0.30378040280E+01  0.30866777402E+01  0.00000000000E+00 0. -1.
</event>
<event>
 5    1  0.3005426E+001  0.1599573E+01  0.7818608E-02  0.3353827E+00
         11   -1    0    0    0    0  0.00000000000E+00  0.00000000000E+00  0.39999999674E+01  0.40000000000E+01  0.51100000000E-03 0. -1.
    9000002   -1    0    0    0    0 -0.00000000000E+00 -0.00000000000E+00  0.00000000000E+00  0.93800000000E+00  0.93800000000E+00 0. -1.
         11    1    1    2    0    0  0.94115777333E-01 -0.11558793136E+00  0.88817186351E+00  0.90059306552E+00  0.51100000000E-03 0. -1.
    9000002    1    1    2    0    0 -0.39788580571E+00  0.44391194236E+00  0.24784082768E+00  0.11387010156E+01  0.93800000000E+00 0. -1.
         22    1    1    2    0    0  0.30377002837E+00 -0.32832401100E+00  0.28639872762E+01  0.28987059189E+01  0.00000000000E+00 0. -1.
</event>
<event>
 5    1  0.3005426E+001  0.1599568E+01  0.7818608E-02  0.3353833E+00
         11   -1    0    0    0    0  0.00000000000E+00  0.00000000000E+00  0.39999999674E+01  0.40000000000E+01  0.51100000000E-03 0. -1.
    9000002   -1    0    0    0    0 -0.00000000000E+00 -0.00000000000E+00  0.00000000000E+00  0.93800000000E+00  0.93800000000E+00 0.  1.
         11    1    1    2    0    0  0.62646746060E-01 -0.13862618059E+00  0.10323402777E+01  0.10434886405E+01  0.51100000000E-03 0. -1.
    9000002    1    1    2    0    0 -0.18972664232E+00  0.51731602416E+00  0.20984869573E+00  0.11079226249E+01  0.93800000000E+00 0.  1.
         22    1    1    2    0    0  0.12707989626E+00 -0.37868984357E+00  0.27578109940E+01  0.27865887346E+01  0.00000000000E+00 0. -1.
</event>
<event>
 5    1  0.3005426E+001  0.1537385E+01  0.7818608E-02  0.3424259E+00
         11   -1    0    0    0    0  0.00000000000E+00  0.00000000000E+00  0.39999999674E+01  0.40000000000E+01  0.51100000000E-03 0.  1.
    9000002   -1    0    0    0    0 -0.00000000000E+00 -0.00000000000E+00  0.00000000000E+00  0.93800000000E+00  0.93800000000E+00 0. -1.
         11    1    1    2    0    0 -0.32624544330E+00  0.13210151373E+00  0.11251052911E+01  0.11788761921E+01  0.51100000000E-03 0.  1.
    9000002    1    1    2    0    0  0.17980224074E+00 -0.34438364480E+00  0.15500417355E+00  0.10270341934E+01  0.93800000000E+00 0. -1.
         22    1    1    2    0    0  0.14644320256E+00  0.21228213107E+00  0.27198905027E+01  0.27320896145E+01  0.00000000000E+00 0.  1.
</event>
<event>
 5    1  0.3005426E+001  0.1557925E+01  0.7818608E-02  0.3400335E+00
         11   -1    0    0    0    0  0.00000000000E+00  0.00000000000E+00  0.39999999674E+01  0.40000000000E+01  0.51100000000E-03 0.  1.
    9000002   -1    0    0    0    0 -0.00000000000E+00 -0.00000000000E+00  0.00000000000E+00  0.93800000000E+00  0.93800000000E+00 0.  1.
         11    1    1    2    0    0  0.13431189152E+00  0.96679750574E-01  0.74392411788E+00  0.76210892440E+00  0.51100000000E-03 0.  1.
    9000002    1    1    2    0    0  0.87857681853E-01  0.12222240506E+00  0.46438132810E-01  0.95113500027E+00  0.93800000000E+00 0.  1.
         22    1    1    2    0    0 -0.22216957337E+00 -0.21890215563E+00  0.32096377167E+01  0.32247560753E+01  0.00000000000E+00 0.  1.
</event>
<event>
 5    1  0.3005426E+001  0.1599571E+01  0.7818608E-02  0.3353829E+00
         11   -1    0    0    0    0  0.00000000000E+00  0.00000000000E+00  0.39999999674E+01  0.40000000000E+01  0.51100000000E-03 0. -1.
    9000002   -1    0    0    0    0 -0.00000000000E+00 -0.00000000000E+00  0.00000000000E+00  0.93800000000E+00  0.93800000000E+00 0.  1.
         11    1    1    2    0    0 -0.21759130895E-01 -0.31346751503E-01  0.31059599871E+00  0.31293164452E+00  0.51100000000E-03 0. -1.
    9000002    1    1    2    0    0  0.21992154458E+00  0.32728963633E+00  0.10488897523E+00  0.10229025804E+01  0.93800000000E+00 0.  1.
         22    1    1    2    0    0 -0.19816241368E+00 -0.29594288483E+00  0.35845149934E+01  0.36021657751E+01  0.00000000000E+00 0. -1.
</event>
<event>
 5    1  0.3005426E+001  0.1599674E+01  0.7818608E-02  0.3353718E+00
         11   -1    0    0    0    0  0.00000000000E+00  0.00000000000E+00  0.39999999674E+01  0.40000000000E+01  0.51100000000E-03 0. -1.
    9000002   -1    0    0    0    0 -0.00000000000E+00 -0.00000000000E+00  0.00000000000E+00  0.93800000000E+00  0.93800000000E+00 0.  1.
         11    1    1    2    0    0  0.23587838751E+00  0.81581384006E-01  0.10547106269E+01  0.10838398883E+01  0.51100000000E-03 0. -1.
    9000002    1    1    2    0    0 -0.77579912348E+00 -0.27264941795E+00  0.50199350032E+00  0.13446350655E+01  0.93800000000E+00 0.  1.
         22    1    1    2    0    0  0.53992073597E+00  0.19106803394E+00  0.24432958401E+01  0.25095250461E+01  0.00000000000E+00 0. -1.
</event>
<event>
 5    1  0.3005426E+001  0.1599565E+01  0.7818608E-02  0.3353836E+00
         11   -1    0    0    0    0  0.00000000000E+00  0.00000000000E+00  0.39999999674E+01  0.40000000000E+01  0.51100000000E-03 0. -1.
    9000002   -1    0    0    0    0 -0.00000000000E+00 -0.00000000000E+00  0.00000000000E+00  0.93800000000E+00  0.93800000000E+00 0. -1.
         11    1    1    2    0    0  0.60766150699E-01  0.20067559111E-01  0.47591571297E+00  0.48019918676E+00  0.51100000000E-03 0. -1.
    9000002    1    1    2    0    0 -0.54468536207E+00 -0.13232836737E+00  0.21755989294E+00  0.11141675132E+01  0.93800000000E+00 0. -1.
         22    1    1    2    0    0  0.48391921137E+00  0.11226080826E+00  0.33065243614E+01  0.33436333000E+01  0.00000000000E+00 0. -1.
</event>
<event>
 5    1  0.3005426E+001  0.1597684E+01  0.7818608E-02  0.3355881E+00
         11   -1    0    0    0    0  0.00000000000E+00  0.00000000000E+00  0.39999999674E+01  0.40000000000E+01  0.51100000000E-03 0.  1.
    9000002   -1    0    0    0    0 -0.00000000000E+00 -0.00000000000E+00  0.00000000000E+00  0.93800000000E+00  0.93800000000E+00 0. -1.
         11    1    1    2    0    0 -0.26019935744E-02 -0.99965318108E-02  0.68229282872E-01  0.69008674679E-01  0.51100000000E-03 0.  1.
    9000002    1    1    2    0    0 -0.47093572278E+00  0.56613991246E-01  0.15513142832E+00  0.10624948748E+01  0.93800000000E+00 0. -1.
         22    1    1    2    0    0  0.47353771635E+00 -0.46617459435E-01  0.37766392562E+01  0.38064964505E+01  0.00000000000E+00 0.  1.
</event>
<event>
 5    1  0.3005426E+001  0.1599082E+01  0.7818608E-02  0.3354361E+00
         11   -1    0    0    0    0  0.00000000000E+00  0.00000000000E+00  0.39999999674E+01  0.40000000000E+01  0.51100000000E-03 0. -1.
    9000002   -1    0    0    0    0 -0.00000000000E+00 -0.00000000000E+00  0.00000000000E+00  0.93800000000E+00  0.93800000000E+00 0. -1.
         11    1    1    2    0    0  0.46662000473E-01 -0.10624930423E-01  0.62694119900E+00  0.62876526586E+00  0.51100000000E-03 0. -1.
    9000002    1    1    2    0    0 -0.42120860964E+00  0.44449442747E-01  0.12188676366E+00  0.10363844986E+01  0.93800000000E+00 0. -1.
         22    1    1    2    0    0  0.37454660916E+00 -0.33824512324E-01  0.32511720047E+01  0.32728502355E+01  0.00000000000E+00 0. -1.
</event>
<event>
 5    1  0.3005426E+001  0.1597947E+01  0.7818608E-02  0.3355595E+00
         11   -1    0    0    0    0  0.00000000000E+00  0.00000000000E+00  0.39999999674E+01  0.40000000000E+01  0.51100000000E-03 0.  1.
    9000002   -1    0    0    0    0 -0.00000000000E+00 -0.00000000000E+00  0.00000000000E+00  0.93800000000E+00  0.93800000000E+00 0. -1.
         11    1    1    2    0    0  0.88937732605E-01 -0.12162681950E+00  0.67008629213E+00  0.68681795515E+00  0.51100000000E-03 0.  1.
    9000002    1    1    2    0    0 -0.27786712055E+00  0.62212183660E+00  0.33205406770E+00  0.12059641869E+01  0.93800000000E+00 0. -1.
         22    1    1    2    0    0  0.18892938795E+00 -0.50049501710E+00  0.29978596075E+01  0.30452178579E+01  0.00000000000E+00 0.  1.
</event>
<event>
 5    1  0.3005426E+001  0.1599588E+01  0.7818608E-02  0.3353810E+00
         11   -1    0    0    0    0  0.00000000000E+00  0.00000000000E+00  0.39999999674E+01  0.40000000000E+01  0.51100000000E-03 0.  1.
    9000002   -1    0    0    0    0 -0.00000000000E+00 -0.00000000000E+00  0.00000000000E+00  0.93800000000E+00  0.93800000000E+00 0.  1.
         11    1    1    2    0    0 -0.31971404573E-01  0.95523602152E-01  0.92956797594E+00  0.93501005999E+00  0.51100000000E-03 0.  1.
    9000002    1    1    2    0    0  0.96207582570E-01 -0.38519824311E+00  0.10636037922E+00  0.10241045433E+01  0.93800000000E+00 0.  1.
         22    1    1    2    0    0 -0.64236177997E-01  0.28967464096E+00  0.29640716122E+01  0.29788853967E+01  0.00000000000E+00 0.  1.
</event>
<event>
 5    1  0.3005426E+001  0.1599582E+01  0.7818608E-02  0.3353817E+00
         11   -1    0    0    0    0  0.00000000000E+00  0.00000000000E+00  0.39999999674E+01  0.40000000000E+01  0.51100000000E-03 0. -1.
    9000002   -1    0    0    0    0 -0.00000000000E+00 -0.00000000000E+00  0.00000000000E+00  0.93800000000E+00  0.93800000000E+00 0. -1.
         11    1    1    2    0    0 -0.97052969835E-01 -0.61129385032E-02  0.91770933851E+00  0.92284740780E+00  0.51100000000E-03 0. -1.
    9000002    1    1    2    0    0  0.41162574415E+00 -0.16237796691E-01  0.11472392424E+00  0.10308758403E+01  0.93800000000E+00 0. -1.
         22    1    1    2    0    0 -0.31457277432E+00  0.22350735194E-01  0.29675667046E+01  0.29842767519E+01  0.00000000000E+00 0. -1.
</event>
<event>
 5    1  0.3005426E+001  0.1509185E+01  0.7818608E-02  0.3458241E+00
         11   -1    0    0    0    0  0.00000000000E+00  0.00000000000E+00  0.39999999674E+01  0.40000000000E+01  0.51100000000E-03 0. -1.
    9000002   -1    0    0    0    0 -0.00000000000E+00 -0.00000000000E+00  0.00000000000E+00  0.93800000000E+00  0.93800000000E+00 0.  1.
         11    1    1    2    0    0 -0.95500322837E-01  0.52160803423E-02  0.80398668390E+00  0.80965570964E+00  0.51100000000E-03 0. -1.
    9000002    1    1    2    0    0 -0.77199269018E+00 -0.52394693300E+00  0.84648450248E+00  0.15706282549E+01  0.93800000000E+00 0.  1.
         22    1    1    2    0    0  0.86749301302E+00  0.51873085266E+00  0.23495287810E+01  0.25577160354E+01  0.00000000000E+00 0. -1.
</event>
<event>
 5    1  0.3005426E+001  0.1595260E+01  0.7818608E-02  0.3358524E+00
         11   -1    0    0    0    0  0.00000000000E+00  0.00000000000E+00  0.39999999674E+01  0.40000000000E+01  0.51100000000E-03 0.  1.
    9000002   -1    0    0    0    0 -0.00000000000E+00 -0.00000000000E+00  0.00000000000E+00  0.93800000000E+00  0.93800000000E+00 0. -1.
         11    1    1    2    0    0 -0.34011493242E+00  0.20680771712E+00  0.11559095837E+01  0.12225280471E+01  0.51100000000E-03 0.  1.
    9000002    1    1    2    0    0  0.81221249572E+00 -0.44170774265E+00  0.66871259748E+00  0.14770969522E+01  0.93800000000E+00 0. -1.
         22    1    1    2    0    0 -0.47209756330E+00  0.23490002553E+00  0.21753777861E+01  0.22383750007E+01  0.00000000000E+00 0.  1.
</event>
<event>
 5    1  0.3005426E+001  0.1599677E+01  0.7818608E-02  0.3353714E+00
         11   -1    0    0    0    0  0.00000000000E+00  0.00000000000E+00  0.39999999674E+01  0.40000000000E+01  0.51100000000E-03 0. -1.
    9000002   -1    0    0    0    0 -0.00000000000E+00 -0.00000000000E+00  0.00000000000E+00  0.93800000000E+00  0.93800000000E+00 0. -1.
         11    1    1    2    0    0  0.80939333873E-01  0.59716498591E-01  0.73209981920E+00  0.73897743021E+00  0.51100000000E-03 0.  1.
    9000002    1    1    2    0    0 -0.42200958493E+00 -0.30985926166E+00  0.18840600028E+00  0.10906171064E+01  0.93800000000E+00 0. -1.
         22    1    1    2    0    0  0.34107025105E+00  0.25014276307E+00  0.30794941479E+01  0.31084054634E+01  0.00000000000E+00 0. -1.
</event>
<event>
 5    1  0.3005426E+001  0.1599672E+01  0.7818608E-02  0.3353719E+00
         11   -1    0    0    0    0  0.00000000000E+00  0.00000000000E+00  0.39999999674E+01  0.40000000000E+01  0.51100000000E-03 0.  1.
    9000002   -1    0    0    0    0 -0.00000000000E+00 -0.00000000000E+00  0.00000000000E+00  0.93800000000E+00  0.93800000000E+00 0. -1.
         11    1    1    2    0    0 -0.32456785813E-01  0.84381619302E-01  0.55384689357E+00  0.56117763967E+00  0.51100000000E-03 0.  1.
    9000002    1    1    2    0    0  0.23097806838E+00 -0.56880547504E+00  0.26375658747E+00  0.11516518892E+01  0.93800000000E+00 0. -1.
         22    1    1    2    0    0 -0.19852128256E+00  0.48442385573E+00  0.31823964863E+01  0.32251704711E+01  0.00000000000E+00 0.  1.
</event>
<event>
 5    1  0.3005426E+001  0.1599637E+01  0.7818608E-02  0.3353758E+00
         11   -1    0    0    0    0  0.00000000000E+00  0.00000000000E+00  0.39999999674E+01  0.40000000000E+01  0.51100000000E-03 0.  1.
    9000002   -1    0    0    0    0 -0.00000000000E+00 -0.00000000000E+00  0.00000000000E+00  0.93800000000E+00  0.93800000000E+00 0.  1.
         11    1    1    2    0    0  0.58036538652E-01 -0.19526283054E-01  0.70337502363E+00  0.70603555190E+00  0.51100000000E-03 0.  1.
    9000002    1    1    2    0    0 -0.35483449096E+00  0.10354335957E+00  0.91848846527E-01  0.10123778711E+01  0.93800000000E+00 0.  1.
         22    1    1    2    0    0  0.29679795231E+00 -0.84017076516E-01  0.32047760972E+01  0.32195865770E+01  0.00000000000E+00 0.  1.
</event>
<event>
 5    1  0.3005426E+001  0.1599652E+01  0.7818608E-02  0.3353741E+00
         11   -1    0    0    0    0  0.00000000000E+00  0.00000000000E+00  0.39999999674E+01  0.40000000000E+01  0.51100000000E-03 0. -1.
    9000002   -1    0    0    0    0 -0.00000000000E+00 -0.00000000000E+00  0.00000000000E+00  0.93800000000E+00  0.93800000000E+00 0. -1.
         11    1    1    2    0    0  0.37004475291E-01  0.23804869917E-01  0.39773938848E+00  0.40016607215E+00  0.51100000000E-03 0. -1.
    9000002    1    1    2    0    0 -0.33528882947E+00 -0.20970049553E+00  0.10545002761E+00  0.10234044192E+01  0.93800000000E+00 0. -1.
         22    1    1    2    0    0  0.29828435418E+00  0.18589562561E+00  0.34968105513E+01  0.35144295086E+01  0.00000000000E+00 0. -1.
</event>
<event>
 5    1  0.3005426E+001  0.1599667E+01  0.7818608E-02  0.3353725E+00
         11   -1    0    0    0    0  0.00000000000E+00  0.00000000000E+00  0.39999999674E+01  0.40000000000E+01  0.51100000000E-03 0.  1.
    9000002   -1    0    0    0    0 -0.00000000000E+00 -0.00000000000E+00  0.00000000000E+00  0.93800000000E+00  0.93800000000E+00 0.  1.
         11    1    1    2    0    0  0.14281493488E+00 -0.38457560794E-01  0.11388754072E+01  0.11484391773E+01  0.51100000000E-03 0.  1.
    9000002    1    1    2    0    0 -0.47354892244E+00  0.12031250186E+00  0.16312081098E+00  0.10701290011E+01  0.93800000000E+00 0.  1.
         22    1    1    2    0    0  0.33073398756E+00 -0.81854941067E-01  0.26980037492E+01  0.27194318216E+01  0.00000000000E+00 0.  1.
</event>
<event>
 5    1  0.3005426E+001  0.1598051E+01  0.7818608E-02  0.3355482E+00
         11   -1    0    0    0    0  0.00000000000E+00  0.00000000000E+00  0.39999999674E+01  0.40000000000E+01  0.51100000000E-03 0.  1.
    9000002   -1    0    0    0    0 -0.00000000000E+00 -0.00000000000E+00  0.00000000000E+00  0.93800000000E+00  0.93800000000E+00 0. -1.
         11    1    1    2    0    0  0.11567280515E-01 -0.17955829978E-01  0.16268468359E+00  0.16408162970E+00  0.51100000000E-03 0.  1.
    9000002    1    1    2    0    0 -0.35795758063E+00 -0.27341555911E-01  0.87821053391E-01  0.10081853637E+01  0.93800000000E+00 0. -1.
         22    1    1    2    0    0  0.34639030011E+00  0.45297385890E-01  0.37494942304E+01  0.37657330066E+01  0.00000000000E+00 0.  1.
</event>
<event>
 5    1  0.3005426E+001  0.1594973E+01  0.7818608E-02  0.3358837E+00
         11   -1    0    0    0    0  0.00000000000E+00  0.00000000000E+00  0.39999999674E+01  0.40000000000E+01  0.51100000000E-03 0.  1.
    9000002   -1    0    0    0    0 -0.00000000000E+00 -0.00000000000E+00  0.00000000000E+00  0.93800000000E+00  0.93800000000E+00 0.  1.
         11    1    1    2    0    0 -0.48009845698E-01 -0.38728995507E-01  0.13403305328E+01  0.13417492608E+01  0.51100000000E-03 0.  1.
    9000002    1    1    2    0    0 -0.31912870090E-02  0.29298313624E+00  0.60911642283E-01  0.98458292215E+00  0.93800000000E+00 0.  1.
         22    1    1    2    0    0  0.51201132707E-01 -0.25425414073E+00  0.25987577922E+01  0.26116678171E+01  0.00000000000E+00 0.  1.
</event>
<event>
 5    1  0.3005426E+001  0.1599677E+01  0.7818608E-02  0.3353714E+00
         11   -1    0    0    0    0  0.00000000000E+00  0.00000000000E+00  0.39999999674E+01  0.40000000000E+01  0.51100000000E-03 0.  1.
    9000002   -1    0    0    0    0 -0.00000000000E+00 -0.00000000000E+00  0.00000000000E+00  0.93800000000E+00  0.93800000000E+00 0.  1.
         11    1    1    2    0    0  0.10383441000E+00  0.46788243419E-01  0.83407132901E+00  0.84181112337E+00  0.51100000000E-03 0.  1.
    9000002    1    1    2    0    0 -0.47328797399E+00 -0.21241505994E+00  0.18482451637E+00  0.10877158479E+01  0.93800000000E+00 0.  1.
         22    1    1    2    0    0  0.36945356398E+00  0.16562681652E+00  0.29811041220E+01  0.30084730287E+01  0.00000000000E+00 0.  1.
</event>
<event>
 5    1  0.3005426E+001  0.1599624E+01  0.7818608E-02  0.3353771E+00
         11   -1    0    0    0    0  0.00000000000E+00  0.00000000000E+00  0.39999999674E+01  0.40000000000E+01  0.51100000000E-03 0. -1.
    9000002   -1    0    0    0    0 -0.00000000000E+00 -0.00000000000E+00  0.00000000000E+00  0.93800000000E+00  0.93800000000E+00 0.  1.
         11    1    1    2    0    0  0.11877155342E+00 -0.25394812256E-01  0.79803945666E+00  0.80722909629E+00  0.51100000000E-03 0. -1.
    9000002    1    1    2    0    0 -0.54176953967E+00  0.14673332473E+00  0.21812522199E+00  0.11146602689E+01  0.93800000000E+00 0.  1.
         22    1    1    2    0    0  0.42299798626E+00 -0.12133851248E+00  0.29838352887E+01  0.30161106348E+01  0.00000000000E+00 0. -1.
</event>
<event>
 5    1  0.3005426E+001  0.1596042E+01  0.7818608E-02  0.3357671E+00
         11   -1    0    0    0    0  0.00000000000E+00  0.00000000000E+00  0.39999999674E+01  0.40000000000E+01  0.51100000000E-03 0. -1.
    9000002   -1    0    0    0    0 -0.00000000000E+00 -0.00000000000E+00  0.00000000000E+00  0.93800000000E+00  0.93800000000E+00 0. -1.
         11    1    1    2    0    0 -0.15858455507E+00  0.10847029134E+00  0.13339429850E+01  0.13477088015E+01  0.51100000000E-03 0. -1.
    9000002    1    1    2    0    0  0.26077788492E+00 -0.33300984960E+00  0.12412170933E+00  0.10364124970E+01  0.93800000000E+00 0. -1.
         22    1    1    2    0    0 -0.10219332985E+00  0.22453955826E+00  0.25419352730E+01  0.25538787015E+01  0.00000000000E+00 0. -1.
</event>
<event>
 5    1  0.3005426E+001  0.1599673E+01  0.7818608E-02  0.3353718E+00
         11   -1    0    0    0    0  0.00000000000E+00  0.00000000000E+00  0.39999999674E+01  0.40000000000E+01  0.51100000000E-03 0. -1.
    9000002   -1    0    0    0    0 -0.00000000000E+00 -0.00000000000E+00  0.00000000000E+00  0.93800000000E+00  0.93800000000E+00 0. -1.
         11    1    1    2    0    0 -0.45859192356E-01 -0.34649145107E-01  0.41776139521E+00  0.42169713448E+00  0.51100000000E-03 0. -1.
    9000002    1    1    2    0    0  0.40682994075E+00  0.31393165865E+00  0.18119861499E+00  0.10847767628E+01  0.93800000000E+00 0. -1.
         22    1    1    2    0    0 -0.36097074840E+00 -0.27928251354E+00  0.34010399572E+01  0.34315261027E+01  0.00000000000E+00 0. -1.
</event>
<event>
 5    1  0.3005426E+001  0.1596809E+01  0.7818608E-02  0.3356835E+00
         11   -1    0    0    0    0  0.00000000000E+00  0.00000000000E+00  0.39999999674E+01  0.40000000000E+01  0.51100000000E-03 0. -1.
    9000002   -1    0    0    0    0 -0.00000000000E+00 -0.00000000000E+00  0.00000000000E+00  0.93800000000E+00  0.93800000000E+00 0. -1.
         11    1    1    2    0    0  0.33651750412E-01 -0.17524800571E+00  0.10378642516E+01  0.10530939036E+01  0.51100000000E-03 0. -1.
    9000002    1    1    2    0    0 -0.63124332849E-01  0.44647010181E+00  0.14059367007E+00  0.10502051291E+01  0.93800000000E+00 0. -1.
         22    1    1    2    0    0  0.29472582437E-01 -0.27122209610E+00  0.28215420456E+01  0.28347009673E+01  0.00000000000E+00 0. -1.
</event>
<event>
 5    1  0.3005426E+001  0.1557968E+01  0.7818608E-02  0.3400286E+00
         11   -1    0    0    0    0  0.00000000000E+00  0.00000000000E+00  0.39999999674E+01  0.40000000000E+01  0.51100000000E-03 0.  1.
    9000002   -1    0    0    0    0 -0.00000000000E+00 -0.00000000000E+00  0.00000000000E+00  0.93800000000E+00  0.93800000000E+00 0. -1.
         11    1    1    2    0    0  0.13732666482E+00 -0.12546124422E+00  0.10789889315E+01  0.10949047959E+01  0.51100000000E-03 0.  1.
    9000002    1    1    2    0    0  0.19446606660E+00  0.62380307263E-01  0.59602294219E-01  0.96182367785E+00  0.93800000000E+00 0. -1.
         22    1    1    2    0    0 -0.33179273142E+00  0.63080936959E-01  0.28614087417E+01  0.28812715263E+01  0.00000000000E+00 0.  1.
</event>
<event>
 5    1  0.3005426E+001  0.1599671E+01  0.7818608E-02  0.3353721E+00
         11   -1    0    0    0    0  0.00000000000E+00  0.00000000000E+00  0.39999999674E+01  0.40000000000E+01  0.51100000000E-03 0.  1.
    9000002   -1    0    0    0    0 -0.00000000000E+00 -0.00000000000E+00  0.00000000000E+00  0.93800000000E+00  0.93800000000E+00 0.  1.
         11    1    1    2    0    0 -0.26042109184E+00 -0.12746681272E+00  0.11956799552E+01  0.12303323737E+01  0.51100000000E-03 0.  1.
    9000002    1    1    2    0    0  0.74923496247E+00  0.37243922748E+00  0.52243733123E+00  0.13611938775E+01  0.93800000000E+00 0.  1.
         22    1    1    2    0    0 -0.48881387063E+00 -0.24497241477E+00  0.22818826810E+01  0.23464737488E+01  0.00000000000E+00 0.  1.
</event>
<event>
 5    1  0.3005426E+001  0.1599668E+01  0.7818608E-02  0.3353724E+00
         11   -1    0    0    0    0  0.00000000000E+00  0.00000000000E+00  0.39999999674E+01  0.40000000000E+01  0.51100000000E-03 0.  1.
    9000002   -1    0    0    0    0 -0.00000000000E+00 -0.00000000000E+00  0.00000000000E+00  0.93800000000E+00  0.93800000000E+00 0. -1.
         11    1    1    2    0    0 -0.19126840835E-01  0.35039562678E-01  0.29733197550E+00  0.30000028628E+00  0.51100000000E-03 0.  1.
    9000002    1    1    2    0    0  0.22147601796E+00 -0.45326082116E+00  0.17435765664E+00  0.10792319449E+01  0.93800000000E+00 0. -1.
         22    1    1    2    0    0 -0.20234917713E+00  0.41822125848E+00  0.35283103352E+01  0.35587677688E+01  0.00000000000E+00 0.  1.
</event>
<event>
 5    1  0.3005426E+001  0.1597957E+01  0.7818608E-02  0.3355584E+00
         11   -1    0    0    0    0  0.00000000000E+00  0.00000000000E+00  0.39999999674E+01  0.40000000000E+01  0.51100000000E-03 0. -1.
    9000002   -1    0    0    0    0 -0.00000000000E+00 -0.00000000000E+00  0.00000000000E+00  0.93800000000E+00  0.93800000000E+00 0. -1.
         11    1    1    2    0    0  0.24309330446E-01 -0.15282218856E+00  0.11528546920E+01  0.11631937787E+01  0.51100000000E-03 0. -1.
    9000002    1    1    2    0    0 -0.14353594710E+00  0.37414250549E+00  0.10976112290E+00  0.10259028641E+01  0.93800000000E+00 0. -1.
         22    1    1    2    0    0  0.11922661666E+00 -0.22132031693E+00  0.27373841525E+01  0.27489033572E+01  0.00000000000E+00 0.  1.
</event>
<event>
 5    1  0.3005426E+001  0.1599669E+01  0.7818608E-02  0.3353723E+00
         11   -1    0    0    0    0  0.00000000000E+00  0.00000000000E+00  0.39999999674E+01  0.40000000000E+01  0.51100000000E-03 0. -1.
    9000002   -1    0    0    0    0 -0.00000000000E+00 -0.00000000000E+00  0.00000000000E+00  0.93800000000E+00  0.93800000000E+00 0.  1.
         11    1    1    2    0    0 -0.18662894475E-01  0.24738136180E-01  0.33104603802E+00  0.33249363816E+00  0.51100000000E-03 0. -1.
    9000002    1    1    2    0    0  0.24157156221E+00 -0.29535358011E+00  0.97984383462E-01  0.10173669428E+01  0.93800000000E+00 0.  1.
         22    1    1    2    0    0 -0.22290866774E+00  0.27061544393E+00  0.35709695459E+01  0.35881394190E+01  0.00000000000E+00 0. -1.
</event>
<event>
 5    1  0.3005426E+001  0.1598901E+01  0.7818608E-02  0.3354557E+00
         11   -1    0    0    0    0  0.00000000000E+00  0.00000000000E+00  0.39999999674E+01  0.40000000000E+01  0.51100000000E-03 0. -1.
    9000002   -1    0    0    0    0 -0.00000000000E+00 -0.00000000000E+00  0.00000000000E+00  0.93800000000E+00  0.93800000000E+00 0. -1.
         11    1    1    2    0    0  0.83849363029E-01 -0.17218088341E+00  0.12886741027E+01  0.13028269940E+01  0.51100000000E-03 0. -1.
    9000002    1    1    2    0    0 -0.32268434854E+00  0.45217306589E+00  0.21410151731E+00  0.11109766559E+01  0.93800000000E+00 0. -1.
         22    1    1    2    0    0  0.23883498551E+00 -0.27999218247E+00  0.24972243474E+01  0.25241963501E+01  0.00000000000E+00 0. -1.
</event>
<event>
 5    1  0.3005426E+001  0.1599667E+01  0.7818608E-02  0.3353725E+00
         11   -1    0    0    0    0  0.00000000000E+00  0.00000000000E+00  0.39999999674E+01  0.40000000000E+01  0.51100000000E-03 0.  1.
    9000002   -1    0    0    0    0 -0.00000000000E+00 -0.00000000000E+00  0.00000000000E+00  0.93800000000E+00  0.93800000000E+00 0. -1.
         11    1    1    2    0    0 -0.29606189200E-01  0.24682248175E-01  0.36500580589E+00  0.36703574658E+00  0.51100000000E-03 0.  1.
    9000002    1    1    2    0    0  0.33298574506E+00 -0.24795855077E+00  0.11650221182E+00  0.10323660759E+01  0.93800000000E+00 0. -1.
         22    1    1    2    0    0 -0.30337955586E+00  0.22327630259E+00  0.35184919496E+01  0.35385981775E+01  0.00000000000E+00 0.  1.
</event>
<event>
 5    1  0.3005426E+001  0.1599676E+01  0.7818608E-02  0.3353715E+00
         11   -1    0    0    0    0  0.00000000000E+00  0.00000000000E+00  0.39999999674E+01  0.40000000000E+01  0.51100000000E-03 0. -1.
    9000002   -1    0    0    0    0 -0.00000000000E+00 -0.00000000000E+00  0.00000000000E+00  0.93800000000E+00  0.93800000000E+00 0.  1.
         11    1    1    2    0    0  0.27831827706E+00 -0.90890968452E-01  0.10153385188E+01  0.10567094210E+01  0.51100000000E-03 0. -1.
    9000002    1    1    2    0    0 -0.90535434851E+00  0.29202966959E+00  0.70934766541E+00  0.15126023716E+01  0.93800000000E+00 0.  1.
         22    1    1    2    0    0  0.62703607145E+00 -0.20113870114E+00  0.22753137831E+01  0.23686882074E+01  0.00000000000E+00 0.  1.
</event>
<event>
 5    1  0.3005426E+001  0.1591466E+01  0.7818608E-02  0.3362679E+00
         11   -1    0    0    0    0  0.00000000000E+00  0.00000000000E+00  0.39999999674E+01  0.40000000000E+01  0.51100000000E-03 0.  1.
    9000002   -1    0    0    0    0 -0.00000000000E+00 -0.00000000000E+00  0.00000000000E+00  0.93800000000E+00  0.93800000000E+00 0. -1.
         11    1    1    2    0    0 -0.11790069719E-01 -0.64725825317E-01  0.80429656472E+00  0.80698306262E+00  0.51100000000E-03 0.  1.
    9000002    1    1    2    0    0  0.69003358133E-02  0.70383532339E+00  0.36375144687E+00  0.12278399294E+01  0.93800000000E+00 0. -1.
         22    1    1    2    0    0  0.48897339060E-02 -0.63910949807E+00  0.28319519558E+01  0.29031770080E+01  0.00000000000E+00 0.  1.
</event>
<event>
 5    1  0.3005426E+001  0.1595748E+01  0.7818608E-02  0.3357991E+00
         11   -1    0    0    0    0  0.00000000000E+00  0.00000000000E+00  0.39999999674E+01  0.40000000000E+01  0.51100000000E-03 0.  1.
    9000002   -1    0    0    0    0 -0.00000000000E+00 -0.00000000000E+00  0.00000000000E+00  0.93800000000E+00  0.93800000000E+00 0. -1.
         11    1    1    2    0    0  0.74130750703E-01 -0.11061638726E+00  0.86241962670E+00  0.87263923071E+00  0.51100000000E-03 0.  1.
    9000002    1    1    2    0    0 -0.59684350730E-01  0.42482965367E+00  0.12796880451E+00  0.10393567584E+01  0.93800000000E+00 0. -1.
         22    1    1    2    0    0 -0.14446399973E-01 -0.31421326642E+00  0.30096115361E+01  0.30260040109E+01  0.00000000000E+00 0.  1.
</event>
<event>
 5    1  0.3005426E+001  0.1599677E+01  0.7818608E-02  0.3353714E+00
         11   -1    0    0    0    0  0.00000000000E+00  0.00000000000E+00  0.39999999674E+01  0.40000000000E+01  0.51100000000E-03 0.  1.
    9000002   -1    0    0    0    0 -0.00000000000E+00 -0.00000000000E+00  0.00000000000E+00  0.93800000000E+00  0.93800000000E+00 0. -1.
         11    1    1    2    0    0 -0.60373899709E-01 -0.63614883262E-01  0.91276376786E+00  0.91696773017E+00  0.51100000000E-03 0.  1.
    9000002    1    1    2    0    0  0.25718345992E+00  0.27253529942E+00  0.94419734078E-01  0.10144840598E+01  0.93800000000E+00 0. -1.
         22    1    1    2    0    0 -0.19680956021E+00 -0.20892041616E+00  0.29928164654E+01  0.30065482100E+01  0.00000000000E+00 0.  1.
</event>
<event>
 5    1  0.3005426E+001  0.1598847E+01  0.7818608E-02  0.3354616E+00
         11   -1    0    0    0    0  0.00000000000E+00  0.00000000000E+00  0.39999999674E+01  0.40000000000E+01  0.51100000000E-03 0.  1.
    9000002   -1    0    0    0    0 -0.00000000000E+00 -0.00000000000E+00  0.00000000000E+00  0.93800000000E+00  0.93800000000E+00 0.  1.
         11    1    1    2    0    0  0.17054206339E-01  0.14774028914E+00  0.11784077511E+01  0.11877555001E+01  0.51100000000E-03 0.  1.
    9000002    1    1    2    0    0 -0.82618407441E-01 -0.38581499102E+00  0.10562401117E+00  0.10230735263E+01  0.93800000000E+00 0.  1.
         22    1    1    2    0    0  0.65564201102E-01  0.23807470188E+00  0.27159682051E+01  0.27271709736E+01  0.00000000000E+00 0. -1.
</event>
<event>
 5    1  0.3005426E+001  0.1589987E+01  0.7818608E-02  0.3364303E+00
         11   -1    0    0    0    0  0.00000000000E+00  0.00000000000E+00  0.39999999674E+01  0.40000000000E+01  0.51100000000E-03 0. -1.
    9000002   -1    0    0    0    0 -0.00000000000E+00 -0.00000000000E+00  0.00000000000E+00  0.93800000000E+00  0.93800000000E+00 0. -1.
         11    1    1    2    0    0  0.62407011791E-01  0.11439140512E+00  0.14552747244E+01  0.14610971265E+01  0.51100000000E-03 0. -1.
    9000002    1    1    2    0    0 -0.40694356769E+00 -0.11640510711E+00  0.12946063879E+00  0.10371871930E+01  0.93800000000E+00 0. -1.
         22    1    1    2    0    0  0.34453655590E+00  0.20137019820E-02  0.24152646042E+01  0.24397156805E+01  0.00000000000E+00 0.  1.
</event>
<event>
 5    1  0.3049113E+001  0.1531517E+01  0.7818608E-02  0.3431220E+00
         11   -1    0    0    0    0  0.00000000000E+00  0.00000000000E+00  0.39999999674E+01  0.40000000000E+01  0.51100000000E-03 0.  1.
    9000002   -1    0    0    0    0 -0.00000000000E+00 -0.00000000000E+00  0.00000000000E+00  0.93800000000E+00  0.93800000000E+00 0. -1.
         11    1    1    2    0    0  0.21470960579E+00  0.75134992897E-01  0.75454516441E+00  0.78808892153E+00  0.51100000000E-03 0.  1.
    9000002    1    1    2    0    0  0.77954163573E-01  0.10200920100E+00  0.62695213400E-01  0.94881895981E+00  0.93800000000E+00 0. -1.
         22    1    1    2    0    0 -0.29266376936E+00 -0.17714419389E+00  0.31827595895E+01  0.32010921187E+01  0.00000000000E+00 0.  1.
</event>
<event>
 5    1  0.3005426E+001  0.1599664E+01  0.7818608E-02  0.3353728E+00
         11   -1    0    0    0    0  0.00000000000E+00  0.00000000000E+00  0.39999999674E+01  0.40000000000E+01  0.51100000000E-03 0. -1.
    9000002   -1    0    0    0    0 -0.00000000000E+00 -0.00000000000E+00  0.00000000000E+00  0.93800000000E+00  0.93800000000E+00 0.  1.
         11    1    1    2    0    0  0.16577283845E+00  0.24798243159E-01  0.13902195132E+01  0.14002878786E+01  0.51100000000E-03 0. -1.
    9000002    1    1    2    0    0 -0.46643528212E+00 -0.59953141546E-01  0.15067910198E+00  0.10600492646E+01  0.93800000000E+00 0.  1.
         22    1    1    2    0    0  0.30066244367E+00  0.35154898386E-01  0.24591013522E+01  0.24776628569E+01  0.00000000000E+00 0.  1.
</event>
<event>
 5    1  0.3005426E+001  0.1593081E+01  0.7818608E-02  0.3360907E+00
         11   -1    0    0    0    0  0.00000000000E+00  0.00000000000E+00  0.39999999674E+01  0.40000000000E+01  0.51100000000E-03 0. -1.
    9000002   -1    0    0    0    0 -0.00000000000E+00 -0.00000000000E+00  0.00000000000E+00  0.93800000000E+00  0.93800000000E+00 0.  1.
         11    1    1    2    0    0  0.54603569377E-01 -0.24357570861E+00  0.12755953356E+01  0.12997901358E+01  0.51100000000E-03 0. -1.
    9000002    1    1    2    0    0 -0.27401871794E+00  0.47141216859E+00  0.21139570487E+00  0.11053722606E+01  0.93800000000E+00 0.  1.
         22    1    1    2    0    0  0.21941514856E+00 -0.22783645998E+00  0.25130089269E+01  0.25328376036E+01  0.00000000000E+00 0. -1.
</event>
<event>
 5    1  0.3005426E+001  0.1599677E+01  0.7818608E-02  0.3353714E+00
         11   -1    0    0    0    0  0.00000000000E+00  0.00000000000E+00  0.39999999674E+01  0.40000000000E+01  0.51100000000E-03 0. -1.
    9000002   -1    0    0    0    0 -0.00000000000E+00 -0.00000000000E+00  0.00000000000E+00  0.93800000000E+00  0.93800000000E+00 0.  1.
         11    1    1    2    0    0 -0.10378574244E+00 -0.92076962207E-01  0.13729788301E+01  0.13799712955E+01  0.51100000000E-03 0. -1.
    9000002    1    1    2    0    0  0.29421137622E+00  0.26289964915E+00  0.10493444375E+00  0.10230013670E+01  0.93800000000E+00 0.  1.
         22    1    1    2    0    0 -0.19042563378E+00 -0.17082268694E+00  0.25220866935E+01  0.25350273375E+01  0.00000000000E+00 0. -1.
</event>
<event>
 5    1  0.3005426E+001  0.1579755E+01  0.7818608E-02  0.3375634E+00
         11   -1    0    0    0    0  0.00000000000E+00  0.00000000000E+00  0.39999999674E+01  0.40000000000E+01  0.51100000000E-03 0. -1.
    9000002   -1    0    0    0    0 -0.00000000000E+00 -0.00000000000E+00  0.00000000000E+00  0.93800000000E+00  0.93800000000E+00 0. -1.
         11    1    1    2    0    0  0.13403486250E+00  0.24834390213E-01  0.31982687305E+00  0.34766590450E+00  0.51100000000E-03 0. -1.
    9000002    1    1    2    0    0 -0.43840986251E+00 -0.26190872558E+00  0.19720506645E+00  0.10860631779E+01  0.93800000000E+00 0. -1.
         22    1    1    2    0    0  0.30437500001E+00  0.23707433537E+00  0.34829680279E+01  0.35042709176E+01  0.00000000000E+00 0. -1.
</event>
<event>
 5    1  0.3005426E+001  0.1599676E+01  0.7818608E-02  0.3353715E+00
         11   -1    0    0    0    0  0.00000000000E+00  0.00000000000E+00  0.39999999674E+01  0.40000000000E+01  0.51100000000E-03 0.  1.
    9000002   -1    0    0    0    0 -0.00000000000E+00 -0.00000000000E+00  0.00000000000E+00  0.93800000000E+00  0.93800000000E+00 0. -1.
         11    1    1    2    0    0 -0.44408762408E-01  0.68811907490E-01  0.80599061868E+00  0.81014094780E+00  0.51100000000E-03 0.  1.
    9000002    1    1    2    0    0  0.21202927976E+00 -0.33608519013E+00  0.10647835059E+00  0.10242515851E+01  0.93800000000E+00 0. -1.
         22    1    1    2    0    0 -0.16762051735E+00  0.26727328264E+00  0.30875309981E+01  0.31036074671E+01  0.00000000000E+00 0.  1.
</event>
<event>
 5    1  0.3005426E+001  0.1599637E+01  0.7818608E-02  0.3353758E+00
         11   -1    0    0    0    0  0.00000000000E+00  0.00000000000E+00  0.39999999674E+01  0.40000000000E+01  0.51100000000E-03 0. -1.
    9000002   -1    0    0    0    0 -0.00000000000E+00 -0.00000000000E+00  0.00000000000E+00  0.93800000000E+00  0.93800000000E+00 0. -1.
         11    1    1    2    0    0  0.17257705131E-01  0.73984282817E-01  0.70003082871E+00  0.70414126761E+00  0.51100000000E-03 0. -1.
    9000002    1    1    2    0    0 -0.67462187270E-01 -0.42567763890E+00  0.12585002130E+00  0.10399205868E+01  0.93800000000E+00 0. -1.
         22    1    1    2    0    0  0.50204482139E-01  0.35169335608E+00  0.31741191174E+01  0.31939381456E+01  0.00000000000E+00 0. -1.
</event>
<event>
 5    1  0.3005426E+001  0.1535400E+01  0.7818608E-02  0.3426608E+00
         11   -1    0    0    0    0  0.00000000000E+00  0.00000000000E+00  0.39999999674E+01  0.40000000000E+01  0.51100000000E-03 0. -1.
    9000002   -1    0    0    0    0 -0.00000000000E+00 -0.00000000000E+00  0.00000000000E+00  0.93800000000E+00  0.93800000000E+00 0. -1.
         11    1    1    2    0    0  0.15055200476E+00 -0.30542663170E+00  0.14309861669E+01  0.14709428964E+01  0.51100000000E-03 0. -1.
    9000002    1    1    2    0    0  0.34560242711E-01  0.16605166361E+00  0.68326031937E-01  0.95565684846E+00  0.93800000000E+00 0. -1.
         22    1    1    2    0    0 -0.18511224747E+00  0.13937496809E+00  0.25006877685E+01  0.25114002551E+01  0.00000000000E+00 0.  1.
</event>
<event>
 5    1  0.3005426E+001  0.1593369E+01  0.7818608E-02  0.3360592E+00
         11   -1    0    0    0    0  0.00000000000E+00  0.00000000000E+00  0.39999999674E+01  0.40000000000E+01  0.51100000000E-03 0. -1.
    9000002   -1    0    0    0    0 -0.00000000000E+00 -0.00000000000E+00  0.00000000000E+00  0.93800000000E+00  0.93800000000E+00 0. -1.
         11    1    1    2    0    0 -0.12086701747E-01  0.22537214443E-01  0.64984361832E+00  0.65034683345E+00  0.51100000000E-03 0. -1.
    9000002    1    1    2    0    0 -0.18732538972E+00  0.20575226954E+00  0.56450047741E-01  0.98002826793E+00  0.93800000000E+00 0. -1.
         22    1    1    2    0    0  0.19941209146E+00 -0.22828948398E+00  0.32937063013E+01  0.33076248986E+01  0.00000000000E+00 0. -1.
</event>
<event>
 5    1  0.3005426E+001  0.1592821E+01  0.7818608E-02  0.3361193E+00
         11   -1    0    0    0    0  0.00000000000E+00  0.00000000000E+00  0.39999999674E+01  0.40000000000E+01  0.51100000000E-03 0.  1.
    9000002   -1    0    0    0    0 -0.00000000000E+00 -0.00000000000E+00  0.00000000000E+00  0.93800000000E+00  0.93800000000E+00 0.  1.
         11    1    1    2    0    0 -0.21987889942E+00 -0.53058152606E-01  0.11365893540E+01  0.11588776979E+01  0.51100000000E-03 0.  1.
    9000002    1    1    2    0    0  0.43941512780E+00  0.25225899049E+00  0.18217705714E+00  0.10815510774E+01  0.93800000000E+00 0.  1.
         22    1    1    2    0    0 -0.21953622838E+00 -0.19920083788E+00  0.26812335562E+01  0.26975712247E+01  0.00000000000E+00 0.  1.
</event>
<event>
 5    1  0.3005426E+001  0.1598217E+01  0.7818608E-02  0.3355301E+00
         11   -1    0    0    0    0  0.00000000000E+00  0.00000000000E+00  0.39999999674E+01  0.40000000000E+01  0.51100000000E-03 0. -1.
    9000002   -1    0    0    0    0 -0.00000000000E+00 -0.00000000000E+00  0.00000000000E+00  0.93800000000E+00  0.93800000000E+00 0.  1.
         11    1    1    2    0    0  0.36383316641E-02 -0.35070323449E-02  0.33703416226E+00  0.33707243196E+00  0.51100000000E-03 0. -1.
    9000002    1    1    2    0    0  0.45575267850E-01  0.32799261789E+00  0.74540575970E-01  0.99752521767E+00  0.93800000000E+00 0.  1.
         22    1    1    2    0    0 -0.49213599514E-01 -0.32448558554E+00  0.35884252291E+01  0.36034023504E+01  0.00000000000E+00 0. -1.
</event>
<event>
 5    1  0.3005426E+001  0.1599661E+01  0.7818608E-02  0.3353731E+00
         11   -1    0    0    0    0  0.00000000000E+00  0.00000000000E+00  0.39999999674E+01  0.40000000000E+01  0.51100000000E-03 0.  1.
    9000002   -1    0    0    0    0 -0.00000000000E+00 -0.00000000000E+00  0.00000000000E+00  0.93800000000E+00  0.93800000000E+00 0.  1.
         11    1    1    2    0    0 -0.13125066692E+00 -0.17625793756E-01  0.14654416804E+01  0.14714132614E+01  0.51100000000E-03 0.  1.
    9000002    1    1    2    0    0  0.36099423615E+00  0.53050090151E-01  0.89428506817E-01  0.10104318920E+01  0.93800000000E+00 0.  1.
         22    1    1    2    0    0 -0.22974356923E+00 -0.35424296395E-01  0.24451297802E+01  0.24561548466E+01  0.00000000000E+00 0.  1.
</event>
<event>
 5    1  0.3005426E+001  0.1599677E+01  0.7818608E-02  0.3353714E+00
         11   -1    0    0    0    0  0.00000000000E+00  0.00000000000E+00  0.39999999674E+01  0.40000000000E+01  0.51100000000E-03 0.  1.
    9000002   -1    0    0    0    0 -0.00000000000E+00 -0.00000000000E+00  0.00000000000E+00  0.93800000000E+00  0.93800000000E+00 0.  1.
         11    1    1    2    0    0 -0.39103205167E+00  0.10896811136E+00  0.83363700184E+00  0.92721681752E+00  0.51100000000E-03 0.  1.
    9000002    1    1    2    0    0  0.11794195982E+01 -0.32946386769E+00  0.14872596051E+01  0.21427464063E+01  0.93800000000E+00 0.  1.
         22    1    1    2    0    0 -0.78838754657E+00  0.22049575633E+00  0.16791033604E+01  0.18680367761E+01  0.00000000000E+00 0.  1.
</event>
<event>
 5    1  0.3005426E+001  0.1599670E+01  0.7818608E-02  0.3353722E+00
         11   -1    0    0    0    0  0.00000000000E+00  0.00000000000E+00  0.39999999674E+01  0.40000000000E+01  0.51100000000E-03 0. -1.
    9000002   -1    0    0    0    0 -0.00000000000E+00 -0.00000000000E+00  0.00000000000E+00  0.93800000000E+00  0.93800000000E+00 0.  1.
         11    1    1    2    0    0  0.71008725987E-01 -0.11157459814E+00  0.13122466971E+01  0.13188945315E+01  0.51100000000E-03 0. -1.
    9000002    1    1    2    0    0 -0.20950079067E+00  0.33988412744E+00  0.10752218562E+00  0.10250935673E+01  0.93800000000E+00 0.  1.
         22    1    1    2    0    0  0.13849206468E+00 -0.22830952930E+00  0.25802310847E+01  0.25940119012E+01  0.00000000000E+00 0. -1.
</event>
<event>
 5    1  0.3005426E+001  0.1599553E+01  0.7818608E-02  0.3353849E+00
         11   -1    0    0    0    0  0.00000000000E+00  0.00000000000E+00  0.39999999674E+01  0.40000000000E+01  0.51100000000E-03 0.  1.
    9000002   -1    0    0    0    0 -0.00000000000E+00 -0.00000000000E+00  0.00000000000E+00  0.93800000000E+00  0.93800000000E+00 0.  1.
         11    1    1    2    0    0  0.10598112945E+00 -0.45148521882E-02  0.78438294820E+00  0.79152337567E+00  0.51100000000E-03 0.  1.
    9000002    1    1    2    0    0 -0.50227784948E+00  0.72827706162E-01  0.17667056891E+00  0.10810381135E+01  0.93800000000E+00 0.  1.
         22    1    1    2    0    0  0.39629672002E+00 -0.68312853974E-01  0.30389464503E+01  0.30654385109E+01  0.00000000000E+00 0.  1.
</event>
<event>
 5    1  0.3005426E+001  0.1514137E+01  0.7818608E-02  0.3452175E+00
         11   -1    0    0    0    0  0.00000000000E+00  0.00000000000E+00  0.39999999674E+01  0.40000000000E+01  0.51100000000E-03 0. -1.
    9000002   -1    0    0    0    0 -0.00000000000E+00 -0.00000000000E+00  0.00000000000E+00  0.93800000000E+00  0.93800000000E+00 0. -1.
         11    1    1    2    0    0 -0.14891096889E+00 -0.19801712713E+00  0.65061231677E+00  0.69619099904E+00  0.51100000000E-03 0. -1.
    9000002    1    1    2    0    0 -0.15313773796E+00 -0.28904288416E-02  0.81569009105E-01  0.95391667593E+00  0.93800000000E+00 0. -1.
         22    1    1    2    0    0  0.30204870685E+00  0.20090755597E+00  0.32678186415E+01  0.32878923250E+01  0.00000000000E+00 0. -1.
</event>
<event>
 5    1  0.3005426E+001  0.1590284E+01  0.7818608E-02  0.3363977E+00
         11   -1    0    0    0    0  0.00000000000E+00  0.00000000000E+00  0.39999999674E+01  0.40000000000E+01  0.51100000000E-03 0.  1.
    9000002   -1    0    0    0    0 -0.00000000000E+00 -0.00000000000E+00  0.00000000000E+00  0.93800000000E+00  0.93800000000E+00 0. -1.
         11    1    1    2    0    0 -0.18845343019E-01 -0.78798157577E-01  0.12613663023E+01  0.12639657852E+01  0.51100000000E-03 0.  1.
    9000002    1    1    2    0    0  0.84730214446E-01  0.56521108889E+00  0.23567752031E+00  0.11234013877E+01  0.93800000000E+00 0. -1.
         22    1    1    2    0    0 -0.65884871427E-01 -0.48641293131E+00  0.25029561448E+01  0.25506328271E+01  0.00000000000E+00 0.  1.
</event>
<event>
 5    1  0.3005426E+001  0.1599644E+01  0.7818608E-02  0.3353750E+00
         11   -1    0    0    0    0  0.00000000000E+00  0.00000000000E+00  0.39999999674E+01  0.40000000000E+01  0.51100000000E-03 0.  1.
    9000002   -1    0    0    0    0 -0.00000000000E+00 -0.00000000000E+00  0.00000000000E+00  0.93800000000E+00  0.93800000000E+00 0. -1.
         11    1    1    2    0    0 -0.10173710154E+00 -0.55415620051E-02  0.74930244200E+00  0.75619809405E+00  0.51100000000E-03 0.  1.
    9000002    1    1    2    0    0  0.50496896546E+00  0.52527592859E-01  0.17670661159E+00  0.10811207290E+01  0.93800000000E+00 0. -1.
         22    1    1    2    0    0 -0.40323186392E+00 -0.46986030854E-01  0.30739909138E+01  0.31006811770E+01  0.00000000000E+00 0.  1.
</event>
<event>
 5    1  0.3005426E+001  0.1589183E+01  0.7818608E-02  0.3365189E+00
         11   -1    0    0    0    0  0.00000000000E+00  0.00000000000E+00  0.39999999674E+01  0.40000000000E+01  0.51100000000E-03 0.  1.
    9000002   -1    0    0    0    0 -0.00000000000E+00 -0.00000000000E+00  0.00000000000E+00  0.93800000000E+00  0.93800000000E+00 0. -1.
         11    1    1    2    0    0 -0.22279339457E+00 -0.24328068549E-01  0.13115536810E+01  0.13305645684E+01  0.51100000000E-03 0.  1.
    9000002    1    1    2    0    0  0.45538366167E+00 -0.21030365648E+00  0.18180969356E+00  0.10791203232E+01  0.93800000000E+00 0. -1.
         22    1    1    2    0    0 -0.23259026710E+00  0.23463172503E+00  0.25066365928E+01  0.25283151084E+01  0.00000000000E+00 0.  1.
</event>
<event>
 5    1  0.3005426E+001  0.1599552E+01  0.7818608E-02  0.3353850E+00
         11   -1    0    0    0    0  0.00000000000E+00  0.00000000000E+00  0.39999999674E+01  0.40000000000E+01  0.51100000000E-03 0. -1.
    9000002   -1    0    0    0    0 -0.00000000000E+00 -0.00000000000E+00  0.00000000000E+00  0.93800000000E+00  0.93800000000E+00 0.  1.
         11    1    1    2    0    0 -0.14365326458E+00  0.12736216308E-01  0.13653104618E+01  0.13729061839E+01  0.51100000000E-03 0. -1.
    9000002    1    1    2    0    0  0.41326557302E+00 -0.72395026167E-01  0.11914780249E+00  0.10344417202E+01  0.93800000000E+00 0.  1.
         22    1    1    2    0    0 -0.26961230844E+00  0.59658809859E-01  0.25155417031E+01  0.25306520959E+01  0.00000000000E+00 0. -1.
</event>
<event>
 5    1  0.3005426E+001  0.1244785E+01  0.7818608E-02  0.3893351E+00
         11   -1    0    0    0    0  0.00000000000E+00  0.00000000000E+00  0.39999999674E+01  0.40000000000E+01  0.51100000000E-03 0.  1.
    9000002   -1    0    0    0    0 -0.00000000000E+00 -0.00000000000E+00  0.00000000000E+00  0.93800000000E+00  0.93800000000E+00 0.  1.
         11    1    1    2    0    0 -0.49847564512E+00  0.43133921263E+00  0.10755481020E+01  0.12614814569E+01  0.51100000000E-03 0.  1.
    9000002    1    1    2    0    0 -0.42767240690E+00 -0.57490743916E+00  0.10455566571E+01  0.15768496994E+01  0.93800000000E+00 0.  1.
         22    1    1    2    0    0  0.92614805202E+00  0.14356822652E+00  0.18788952082E+01  0.20996688437E+01  0.00000000000E+00 0.  1.
</event>
<event>
 5    1  0.3005426E+001  0.1595201E+01  0.7818608E-02  0.3358588E+00
         11   -1    0    0    0    0  0.00000000000E+00  0.00000000000E+00  0.39999999674E+01  0.40000000000E+01  0.51100000000E-03 0.  1.
    9000002   -1    0    0    0    0 -0.00000000000E+00 -0.00000000000E+00  0.00000000000E+00  0.93800000000E+00  0.93800000000E+00 0.  1.
         11    1    1    2    0    0 -0.46671657505E-01  0.15120422425E-01  0.73176045685E+00  0.73340336658E+00  0.51100000000E-03 0.  1.
    9000002    1    1    2    0    0  0.18538390148E+00  0.24908981153E+00  0.67913515762E-01  0.99038839389E+00  0.93800000000E+00 0.  1.
         22    1    1    2    0    0 -0.13871224397E+00 -0.26421023395E+00  0.32003259948E+01  0.32142082395E+01  0.00000000000E+00 0.  1.
</event>
<event>
 5    1  0.3005426E+001  0.1599578E+01  0.7818608E-02  0.3353822E+00
         11   -1    0    0    0    0  0.00000000000E+00  0.00000000000E+00  0.39999999674E+01  0.40000000000E+01  0.51100000000E-03 0.  1.
    9000002   -1    0    0    0    0 -0.00000000000E+00 -0.00000000000E+00  0.00000000000E+00  0.93800000000E+00  0.93800000000E+00 0.  1.
         11    1    1    2    0    0 -0.17981372918E+00  0.26629071490E-01  0.10840532563E+01  0.10991877948E+01  0.51100000000E-03 0.  1.
    9000002    1    1    2    0    0  0.63701944915E+00 -0.60377814924E-01  0.28833077706E+00  0.11715024098E+01  0.93800000000E+00 0.  1.
         22    1    1    2    0    0 -0.45720571996E+00  0.33748743433E-01  0.26276159340E+01  0.26673097954E+01  0.00000000000E+00 0.  1.
</event>
<event>
 5    1  0.3005426E+001  0.1580602E+01  0.7818608E-02  0.3374691E+00
         11   -1    0    0    0    0  0.00000000000E+00  0.00000000000E+00  0.39999999674E+01  0.40000000000E+01  0.51100000000E-03 0. -1.
    9000002   -1    0    0    0    0 -0.00000000000E+00 -0.00000000000E+00  0.00000000000E+00  0.93800000000E+00  0.93800000000E+00 0.  1.
         11    1    1    2    0    0  0.15516387870E-01  0.19717020203E+00  0.11237896205E+01  0.11410610059E+01  0.51100000000E-03 0. -1.
    9000002    1    1    2    0    0  0.37425075949E+00 -0.38174910738E+00  0.21479355029E+00  0.11008071044E+01  0.93800000000E+00 0.  1.
         22    1    1    2    0    0 -0.38976714736E+00  0.18457890535E+00  0.26614167966E+01  0.26961318897E+01  0.00000000000E+00 0. -1.
</event>
<event>
 5    1  0.3005426E+001  0.1598709E+01  0.7818608E-02  0.3354765E+00
         11   -1    0    0    0    0  0.00000000000E+00  0.00000000000E+00  0.39999999674E+01  0.40000000000E+01  0.51100000000E-03 0.  1.
    9000002   -1    0    0    0    0 -0.00000000000E+00 -0.00000000000E+00  0.00000000000E+00  0.93800000000E+00  0.93800000000E+00 0.  1.
         11    1    1    2    0    0  0.28864160951E-02 -0.38574574580E-01  0.42132120599E+00  0.42309354633E+00  0.51100000000E-03 0.  1.
    9000002    1    1    2    0    0  0.17966582776E+00  0.29673650615E+00  0.81434514146E-01  0.10033981980E+01  0.93800000000E+00 0.  1.
         22    1    1    2    0    0 -0.18255224385E+00 -0.25816193157E+00  0.34972442472E+01  0.35115082556E+01  0.00000000000E+00 0.  1.
</event>
<event>
 5    1  0.3005426E+001  0.1599677E+01  0.7818608E-02  0.3353715E+00
         11   -1    0    0    0    0  0.00000000000E+00  0.00000000000E+00  0.39999999674E+01  0.40000000000E+01  0.51100000000E-03 0.  1.
    9000002   -1    0    0    0    0 -0.00000000000E+00 -0.00000000000E+00  0.00000000000E+00  0.93800000000E+00  0.93800000000E+00 0. -1.
         11    1    1    2    0    0 -0.35404701460E-01  0.13242500267E+00  0.13189995898E+01  0.13261033343E+01  0.51100000000E-03 0.  1.
    9000002    1    1    2    0    0  0.10420211549E+00 -0.38836270514E+00  0.10908874074E+00  0.10263664185E+01  0.93800000000E+00 0. -1.
         22    1    1    2    0    0 -0.68797414027E-01  0.25593770247E+00  0.25719116368E+01  0.25855302472E+01  0.00000000000E+00 0.  1.
</event>
<event>
 5    1  0.3005426E+001  0.1599676E+01  0.7818608E-02  0.3353715E+00
         11   -1    0    0    0    0  0.00000000000E+00  0.00000000000E+00  0.39999999674E+01  0.40000000000E+01  0.51100000000E-03 0.  1.
    9000002   -1    0    0    0    0 -0.00000000000E+00 -0.00000000000E+00  0.00000000000E+00  0.93800000000E+00  0.93800000000E+00 0. -1.
         11    1    1    2    0    0 -0.10191312096E+00  0.10419728324E+00  0.12402887603E+01  0.12488233775E+01  0.51100000000E-03 0.  1.
    9000002    1    1    2    0    0  0.31615203589E+00 -0.32668046142E+00  0.14046512594E+00  0.10517826226E+01  0.93800000000E+00 0. -1.
         22    1    1    2    0    0 -0.21423891493E+00  0.22248317817E+00  0.26192460811E+01  0.26373939999E+01  0.00000000000E+00 0.  1.
</event>
<event>
 5    1  0.3005426E+001  0.1599676E+01  0.7818608E-02  0.3353715E+00
         11   -1    0    0    0    0  0.00000000000E+00  0.00000000000E+00  0.39999999674E+01  0.40000000000E+01  0.51100000000E-03 0.  1.
    9000002   -1    0    0    0    0 -0.00000000000E+00 -0.00000000000E+00  0.00000000000E+00  0.93800000000E+00  0.93800000000E+00 0.  1.
         11    1    1    2    0    0 -0.56103716752E-01  0.37269285274E-01  0.51873753924E+00  0.52309226949E+00  0.51100000000E-03 0. -1.
    9000002    1    1    2    0    0  0.41691592534E+00 -0.27132424763E+00  0.16931151274E+00  0.10751493499E+01  0.93800000000E+00 0.  1.
         22    1    1    2    0    0 -0.36081220858E+00  0.23405496235E+00  0.33119509154E+01  0.33397583807E+01  0.00000000000E+00 0.  1.
</event>
<event>
 5    1  0.3005426E+001  0.1599123E+01  0.7818608E-02  0.3354316E+00
         11   -1    0    0    0    0  0.00000000000E+00  0.00000000000E+00  0.39999999674E+01  0.40000000000E+01  0.51100000000E-03 0. -1.
    9000002   -1    0    0    0    0 -0.00000000000E+00 -0.00000000000E+00  0.00000000000E+00  0.93800000000E+00  0.93800000000E+00 0. -1.
         11    1    1    2    0    0 -0.19906808855E+00 -0.41381195034E-01  0.12191785370E+01  0.12360166153E+01  0.51100000000E-03 0. -1.
    9000002    1    1    2    0    0  0.56806678523E+00  0.19606392744E+00  0.25257000788E+00  0.11422681581E+01  0.93800000000E+00 0. -1.
         22    1    1    2    0    0 -0.36899869668E+00 -0.15468273240E+00  0.25282514225E+01  0.25597152266E+01  0.00000000000E+00 0.  1.
</event>
<event>
 5    1  0.3005426E+001  0.1580211E+01  0.7818608E-02  0.3375126E+00
         11   -1    0    0    0    0  0.00000000000E+00  0.00000000000E+00  0.39999999674E+01  0.40000000000E+01  0.51100000000E-03 0. -1.
    9000002   -1    0    0    0    0 -0.00000000000E+00 -0.00000000000E+00  0.00000000000E+00  0.93800000000E+00  0.93800000000E+00 0.  1.
         11    1    1    2    0    0 -0.82542806252E-02  0.81857025402E-01  0.93052985108E+00  0.93415992775E+00  0.51100000000E-03 0. -1.
    9000002    1    1    2    0    0  0.79823752926E-01  0.25555030598E+00  0.62830419866E-01  0.97748117735E+00  0.93800000000E+00 0.  1.
         22    1    1    2    0    0 -0.71569472301E-01 -0.33740733138E+00  0.30066396964E+01  0.30263588949E+01  0.00000000000E+00 0. -1.
</event>
<event>
 5    1  0.3005426E+001  0.1579711E+01  0.7818608E-02  0.3375683E+00
         11   -1    0    0    0    0  0.00000000000E+00  0.00000000000E+00  0.39999999674E+01  0.40000000000E+01  0.51100000000E-03 0.  1.
    9000002   -1    0    0    0    0 -0.00000000000E+00 -0.00000000000E+00  0.00000000000E+00  0.93800000000E+00  0.93800000000E+00 0.  1.
         11    1    1    2    0    0 -0.56176776806E-01 -0.39814421160E-02  0.74160912711E-01  0.93122415286E-01  0.51100000000E-03 0.  1.
    9000002    1    1    2    0    0  0.35267473022E+00 -0.21507932776E+00  0.13225994261E+00  0.10334288921E+01  0.93800000000E+00 0.  1.
         22    1    1    2    0    0 -0.29649795341E+00  0.21906076987E+00  0.37935791120E+01  0.38114486926E+01  0.00000000000E+00 0.  1.
</event>
<event>
 5    1  0.3005426E+001  0.1592868E+01  0.7818608E-02  0.3361141E+00
         11   -1    0    0    0    0  0.00000000000E+00  0.00000000000E+00  0.39999999674E+01  0.40000000000E+01  0.51100000000E-03 0.  1.
    9000002   -1    0    0    0    0 -0.00000000000E+00 -0.00000000000E+00  0.00000000000E+00  0.93800000000E+00  0.93800000000E+00 0. -1.
         11    1    1    2    0    0 -0.51175291878E-01 -0.83041979936E-01  0.50531517373E+00  0.51464411670E+00  0.51100000000E-03 0.  1.
    9000002    1    1    2    0    0  0.40331045910E+00  0.12220851038E+00  0.12590703314E+00  0.10359975036E+01  0.93800000000E+00 0. -1.
         22    1    1    2    0    0 -0.35213516723E+00 -0.39166530449E-01  0.33687777605E+01  0.33873583797E+01  0.00000000000E+00 0.  1.
</event>
<event>
 5    1  0.3005426E+001  0.1599611E+01  0.7818608E-02  0.3353786E+00
         11   -1    0    0    0    0  0.00000000000E+00  0.00000000000E+00  0.39999999674E+01  0.40000000000E+01  0.51100000000E-03 0.  1.
    9000002   -1    0    0    0    0 -0.00000000000E+00 -0.00000000000E+00  0.00000000000E+00  0.93800000000E+00  0.93800000000E+00 0. -1.
         11    1    1    2    0    0  0.10988197464E+00 -0.70307879262E-01  0.11991963470E+01  0.12062708594E+01  0.51100000000E-03 0.  1.
    9000002    1    1    2    0    0 -0.33039444316E+00  0.24201592407E+00  0.11333501103E+00  0.10297674593E+01  0.93800000000E+00 0. -1.
         22    1    1    2    0    0  0.22051246852E+00 -0.17170804480E+00  0.26874686093E+01  0.27019616813E+01  0.00000000000E+00 0.  1.
</event>
<event>
 5    1  0.3005426E+001  0.1599676E+01  0.7818608E-02  0.3353715E+00
         11   -1    0    0    0    0  0.00000000000E+00  0.00000000000E+00  0.39999999674E+01  0.40000000000E+01  0.51100000000E-03 0.  1.
    9000002   -1    0    0    0    0 -0.00000000000E+00 -0.00000000000E+00  0.00000000000E+00  0.93800000000E+00  0.93800000000E+00 0. -1.
         11    1    1    2    0    0  0.28447168794E-01 -0.16979639614E+00  0.14090177665E+01  0.14194968774E+01  0.51100000000E-03 0.  1.
    9000002    1    1    2    0    0 -0.79314346677E-01  0.46135416324E+00  0.14924426373E+00  0.10588938945E+01  0.93800000000E+00 0. -1.
         22    1    1    2    0    0  0.50867177884E-01 -0.29155776709E+00  0.24417379371E+01  0.24596092281E+01  0.00000000000E+00 0. -1.
</event>
<event>
 5    1  0.3005426E+001  0.1598591E+01  0.7818608E-02  0.3354894E+00
         11   -1    0    0    0    0  0.00000000000E+00  0.00000000000E+00  0.39999999674E+01  0.40000000000E+01  0.51100000000E-03 0. -1.
    9000002   -1    0    0    0    0 -0.00000000000E+00 -0.00000000000E+00  0.00000000000E+00  0.93800000000E+00  0.93800000000E+00 0.  1.
         11    1    1    2    0    0 -0.10967430589E+00 -0.83693747267E-02  0.13101338435E+01  0.13147431113E+01  0.51100000000E-03 0. -1.
    9000002    1    1    2    0    0  0.40664625912E+00 -0.51450496047E-01  0.11438145529E+00  0.10300172090E+01  0.93800000000E+00 0.  1.
         22    1    1    2    0    0 -0.29697195324E+00  0.59819870773E-01  0.25754846686E+01  0.25932396797E+01  0.00000000000E+00 0. -1.
</event>
<event>
 5    1  0.3005426E+001  0.1557484E+01  0.7818608E-02  0.3400842E+00
         11   -1    0    0    0    0  0.00000000000E+00  0.00000000000E+00  0.39999999674E+01  0.40000000000E+01  0.51100000000E-03 0.  1.
    9000002   -1    0    0    0    0 -0.00000000000E+00 -0.00000000000E+00  0.00000000000E+00  0.93800000000E+00  0.93800000000E+00 0. -1.
         11    1    1    2    0    0 -0.55241839858E-01 -0.13762765888E-01  0.10644157048E+01  0.10659372066E+01  0.51100000000E-03 0.  1.
    9000002    1    1    2    0    0 -0.43739815735E+00 -0.41579178975E+00  0.29770618826E+00  0.11544145421E+01  0.93800000000E+00 0. -1.
         22    1    1    2    0    0  0.49263999721E+00  0.42955455563E+00  0.26378780743E+01  0.27176482513E+01  0.00000000000E+00 0.  1.
</event>
<event>
 5    1  0.3005426E+001  0.1599675E+01  0.7818608E-02  0.3353716E+00
         11   -1    0    0    0    0  0.00000000000E+00  0.00000000000E+00  0.39999999674E+01  0.40000000000E+01  0.51100000000E-03 0.  1.
    9000002   -1    0    0    0    0 -0.00000000000E+00 -0.00000000000E+00  0.00000000000E+00  0.93800000000E+00  0.93800000000E+00 0.  1.
         11    1    1    2    0    0  0.31348890103E-01 -0.20324774012E+00  0.12740446352E+01  0.12905356990E+01  0.51100000000E-03 0.  1.
    9000002    1    1    2    0    0 -0.94041116118E-01  0.59384784285E+00  0.25228646683E+00  0.11423622251E+01  0.93800000000E+00 0.  1.
         22    1    1    2    0    0  0.62692226015E-01 -0.39060010273E+00  0.24736688653E+01  0.25051020759E+01  0.00000000000E+00 0.  1.
</event>
<event>
 5    1  0.3005426E+001  0.1599668E+01  0.7818608E-02  0.3353724E+00
         11   -1    0    0    0    0  0.00000000000E+00  0.00000000000E+00  0.39999999674E+01  0.40000000000E+01  0.51100000000E-03 0. -1.
    9000002   -1    0    0    0    0 -0.00000000000E+00 -0.00000000000E+00  0.00000000000E+00  0.93800000000E+00  0.93800000000E+00 0.  1.
         11    1    1    2    0    0 -0.62826901374E-02  0.12083720457E+00  0.67038263857E+00  0.68121527099E+00  0.51100000000E-03 0. -1.
    9000002    1    1    2    0    0  0.49062092382E-01 -0.66852477380E+00  0.31866734363E+00  0.11961293149E+01  0.93800000000E+00 0.  1.
         22    1    1    2    0    0 -0.42779402244E-01  0.54768756923E+00  0.30109499852E+01  0.30606554141E+01  0.00000000000E+00 0. -1.
</event>
<event>
 5    1  0.3005426E+001  0.1599676E+01  0.7818608E-02  0.3353715E+00
         11   -1    0    0    0    0  0.00000000000E+00  0.00000000000E+00  0.39999999674E+01  0.40000000000E+01  0.51100000000E-03 0. -1.
    9000002   -1    0    0    0    0 -0.00000000000E+00 -0.00000000000E+00  0.00000000000E+00  0.93800000000E+00  0.93800000000E+00 0.  1.
         11    1    1    2    0    0 -0.57926092760E-01 -0.39989416414E-01  0.66745903287E+00  0.67116049298E+00  0.51100000000E-03 0. -1.
    9000002    1    1    2    0    0  0.33341851401E+00  0.23015332829E+00  0.11078914768E+00  0.10277434968E+01  0.93800000000E+00 0.  1.
         22    1    1    2    0    0 -0.27549242125E+00 -0.19016391187E+00  0.32217517868E+01  0.32390960102E+01  0.00000000000E+00 0. -1.
</event>
<event>
 5    1  0.3005426E+001  0.1599670E+01  0.7818608E-02  0.3353722E+00
         11   -1    0    0    0    0  0.00000000000E+00  0.00000000000E+00  0.39999999674E+01  0.40000000000E+01  0.51100000000E-03 0.  1.
    9000002   -1    0    0    0    0 -0.00000000000E+00 -0.00000000000E+00  0.00000000000E+00  0.93800000000E+00  0.93800000000E+00 0. -1.
         11    1    1    2    0    0  0.50336073509E-01  0.63869510839E-02  0.28419537188E+00  0.28868977113E+00  0.51100000000E-03 0.  1.
    9000002    1    1    2    0    0 -0.64017799253E+00 -0.69655048175E-01  0.29220439461E+00  0.11746944693E+01  0.93800000000E+00 0. -1.
         22    1    1    2    0    0  0.58984191902E+00  0.63268097091E-01  0.34236002009E+01  0.34746157596E+01  0.00000000000E+00 0.  1.
</event>
<event>
 5    1  0.3005426E+001  0.1599643E+01  0.7818608E-02  0.3353751E+00
         11   -1    0    0    0    0  0.00000000000E+00  0.00000000000E+00  0.39999999674E+01  0.40000000000E+01  0.51100000000E-03 0.  1.
    9000002   -1    0    0    0    0 -0.00000000000E+00 -0.00000000000E+00  0.00000000000E+00  0.93800000000E+00  0.93800000000E+00 0.  1.
         11    1    1    2    0    0 -0.36378267277E-01 -0.10415315397E+00  0.12442568329E+01  0.12491383371E+01  0.51100000000E-03 0.  1.
    9000002    1    1    2    0    0  0.10706677771E+00  0.34665980538E+00  0.88418474521E-01  0.10096029626E+01  0.93800000000E+00 0.  1.
         22    1    1    2    0    0 -0.70688510437E-01 -0.24250665141E+00  0.26673246599E+01  0.26792587003E+01  0.00000000000E+00 0.  1.
</event>
<event>
 5    1  0.3005426E+001  0.1599676E+01  0.7818608E-02  0.3353715E+00
         11   -1    0    0    0    0  0.00000000000E+00  0.00000000000E+00  0.39999999674E+01  0.40000000000E+01  0.51100000000E-03 0. -1.
    9000002   -1    0    0    0    0 -0.00000000000E+00 -0.00000000000E+00  0.00000000000E+00  0.93800000000E+00  0.93800000000E+00 0.  1.
         11    1    1    2    0    0 -0.92996278489E-01 -0.38895712023E-01  0.85790191565E+00  0.86380387949E+00  0.51100000000E-03 0.  1.
    9000002    1    1    2    0    0  0.42142529205E+00  0.17736269237E+00  0.14214173980E+00  0.10531405773E+01  0.93800000000E+00 0.  1.
         22    1    1    2    0    0 -0.32842901356E+00 -0.13846698035E+00  0.29999563119E+01  0.30210555432E+01  0.00000000000E+00 0. -1.
</event>
<event>
 5    1  0.3005426E+001  0.1599666E+01  0.7818608E-02  0.3353726E+00
         11   -1    0    0    0    0  0.00000000000E+00  0.00000000000E+00  0.39999999674E+01  0.40000000000E+01  0.51100000000E-03 0. -1.
    9000002   -1    0    0    0    0 -0.00000000000E+00 -0.00000000000E+00  0.00000000000E+00  0.93800000000E+00  0.93800000000E+00 0.  1.
         11    1    1    2    0    0  0.12959430728E-01  0.11538608586E-01  0.11183344912E+00  0.11317273433E+00  0.51100000000E-03 0. -1.
    9000002    1    1    2    0    0 -0.41599586186E+00 -0.35545301395E+00  0.20669514184E+00  0.11054258383E+01  0.93800000000E+00 0.  1.
         22    1    1    2    0    0  0.40303643113E+00  0.34391440536E+00  0.36814713764E+01  0.37194014274E+01  0.00000000000E+00 0. -1.
</event>
<event>
 5    1  0.3005426E+001  0.1599656E+01  0.7818608E-02  0.3353737E+00
         11   -1    0    0    0    0  0.00000000000E+00  0.00000000000E+00  0.39999999674E+01  0.40000000000E+01  0.51100000000E-03 0. -1.
    9000002   -1    0    0    0    0 -0.00000000000E+00 -0.00000000000E+00  0.00000000000E+00  0.93800000000E+00  0.93800000000E+00 0.  1.
         11    1    1    2    0    0 -0.14381797456E-01  0.15546211156E-01  0.25001880092E+00  0.25091469210E+00  0.51100000000E-03 0. -1.
    9000002    1    1    2    0    0  0.26647163126E+00 -0.24861797187E+00  0.89218301037E-01  0.10102583489E+01  0.93800000000E+00 0.  1.
         22    1    1    2    0    0 -0.25208983381E+00  0.23307176072E+00  0.36607628654E+01  0.36768269590E+01  0.00000000000E+00 0. -1.
</event>
<event>
 5    1  0.3005426E+001  0.1599180E+01  0.7818608E-02  0.3354254E+00
         11   -1    0    0    0    0  0.00000000000E+00  0.00000000000E+00  0.39999999674E+01  0.40000000000E+01  0.51100000000E-03 0.  1.
    9000002   -1    0    0    0    0 -0.00000000000E+00 -0.00000000000E+00  0.00000000000E+00  0.93800000000E+00  0.93800000000E+00 0. -1.
         11    1    1    2    0    0 -0.12065574432E+00  0.46321438624E-01  0.11192414852E+01  0.11266788574E+01  0.51100000000E-03 0.  1.
    9000002    1    1    2    0    0  0.34479312295E+00 -0.20065433287E+00  0.10774491152E+00  0.10249865486E+01  0.93800000000E+00 0. -1.
         22    1    1    2    0    0 -0.22413737863E+00  0.15433289425E+00  0.27730135706E+01  0.27863345940E+01  0.00000000000E+00 0.  1.
</event>
<event>
 5    1  0.3005426E+001  0.1599439E+01  0.7818608E-02  0.3353973E+00
         11   -1    0    0    0    0  0.00000000000E+00  0.00000000000E+00  0.39999999674E+01  0.40000000000E+01  0.51100000000E-03 0. -1.
    9000002   -1    0    0    0    0 -0.00000000000E+00 -0.00000000000E+00  0.00000000000E+00  0.93800000000E+00  0.93800000000E+00 0.  1.
         11    1    1    2    0    0  0.22325043817E-02 -0.31183969857E+00  0.14651685370E+01  0.14979880122E+01  0.51100000000E-03 0. -1.
    9000002    1    1    2    0    0  0.32483826808E-01  0.74200422822E+00  0.39930382418E+00  0.12613140044E+01  0.93800000000E+00 0.  1.
         22    1    1    2    0    0 -0.34716331190E-01 -0.43016452965E+00  0.21355276062E+01  0.21786979834E+01  0.00000000000E+00 0. -1.
</event>
<event>
 5    1  0.3005426E+001  0.1599661E+01  0.7818608E-02  0.3353731E+00
         11   -1    0    0    0    0  0.00000000000E+00  0.00000000000E+00  0.39999999674E+01  0.40000000000E+01  0.51100000000E-03 0. -1.
    9000002   -1    0    0    0    0 -0.00000000000E+00 -0.00000000000E+00  0.00000000000E+00  0.93800000000E+00  0.93800000000E+00 0. -1.
         11    1    1    2    0    0  0.18072461275E-02 -0.66973673239E-01  0.67191959961E+00  0.67525176676E+00  0.51100000000E-03 0. -1.
    9000002    1    1    2    0    0  0.67276781811E-02  0.39966888992E+00  0.10778438509E+00  0.10253009104E+01  0.93800000000E+00 0. -1.
         22    1    1    2    0    0 -0.85349243086E-02 -0.33269521668E+00  0.32202959827E+01  0.32374473228E+01  0.00000000000E+00 0. -1.
</event>
<event>
 5    1  0.3005426E+001  0.1599611E+01  0.7818608E-02  0.3353786E+00
         11   -1    0    0    0    0  0.00000000000E+00  0.00000000000E+00  0.39999999674E+01  0.40000000000E+01  0.51100000000E-03 0. -1.
    9000002   -1    0    0    0    0 -0.00000000000E+00 -0.00000000000E+00  0.00000000000E+00  0.93800000000E+00  0.93800000000E+00 0. -1.
         11    1    1    2    0    0  0.13730904266E+00  0.10836406414E+00  0.10792431339E+01  0.10933263679E+01  0.51100000000E-03 0. -1.
    9000002    1    1    2    0    0 -0.47960234310E+00 -0.34621698400E+00  0.24374126189E+00  0.11354023121E+01  0.93800000000E+00 0. -1.
         22    1    1    2    0    0  0.34229330043E+00  0.23785291986E+00  0.26770155715E+01  0.27092713200E+01  0.00000000000E+00 0. -1.
</event>
<event>
 5    1  0.3005426E+001  0.1599675E+01  0.7818608E-02  0.3353716E+00
         11   -1    0    0    0    0  0.00000000000E+00  0.00000000000E+00  0.39999999674E+01  0.40000000000E+01  0.51100000000E-03 0. -1.
    9000002   -1    0    0    0    0 -0.00000000000E+00 -0.00000000000E+00  0.00000000000E+00  0.93800000000E+00  0.93800000000E+00 0.  1.
         11    1    1    2    0    0  0.65004365210E-01 -0.11712480574E-01  0.48353841571E+00  0.48802910803E+00  0.51100000000E-03 0.  1.
    9000002    1    1    2    0    0 -0.50572756105E+00  0.94468876421E-01  0.18164211336E+00  0.10851371305E+01  0.93800000000E+00 0.  1.
         22    1    1    2    0    0  0.44072319584E+00 -0.82756395846E-01  0.33348194383E+01  0.33648337615E+01  0.00000000000E+00 0. -1.
</event>
<event>
 5    1  0.3005426E+001  0.1599674E+01  0.7818608E-02  0.3353717E+00
         11   -1    0    0    0    0  0.00000000000E+00  0.00000000000E+00  0.39999999674E+01  0.40000000000E+01  0.51100000000E-03 0.  1.
    9000002   -1    0    0    0    0 -0.00000000000E+00 -0.00000000000E+00  0.00000000000E+00  0.93800000000E+00  0.93800000000E+00 0.  1.
         11    1    1    2    0    0  0.40682322347E-03  0.13809431748E+00  0.10394965826E+01  0.10486293970E+01  0.51100000000E-03 0.  1.
    9000002    1    1    2    0    0 -0.18470718353E-02 -0.51390259401E+00  0.18122336224E+00  0.10847973059E+01  0.93800000000E+00 0.  1.
         22    1    1    2    0    0  0.14402486118E-02  0.37580827653E+00  0.27792800226E+01  0.28045732971E+01  0.00000000000E+00 0.  1.
</event>
<event>
 5    1  0.3005426E+001  0.1564354E+01  0.7818608E-02  0.3392985E+00
         11   -1    0    0    0    0  0.00000000000E+00  0.00000000000E+00  0.39999999674E+01  0.40000000000E+01  0.51100000000E-03 0. -1.
    9000002   -1    0    0    0    0 -0.00000000000E+00 -0.00000000000E+00  0.00000000000E+00  0.93800000000E+00  0.93800000000E+00 0.  1.
         11    1    1    2    0    0 -0.13690386612E+00  0.17602555527E+00  0.75284361980E+00  0.78517605774E+00  0.51100000000E-03 0. -1.
    9000002    1    1    2    0    0  0.54963450084E+00  0.20087410824E-01  0.24308509246E+00  0.11141974469E+01  0.93800000000E+00 0.  1.
         22    1    1    2    0    0 -0.41273063473E+00 -0.19611296609E+00  0.30040712551E+01  0.30386264953E+01  0.00000000000E+00 0. -1.
</event>
<event>
 5    1  0.3005426E+001  0.1599673E+01  0.7818608E-02  0.3353719E+00
         11   -1    0    0    0    0  0.00000000000E+00  0.00000000000E+00  0.39999999674E+01  0.40000000000E+01  0.51100000000E-03 0.  1.
    9000002   -1    0    0    0    0 -0.00000000000E+00 -0.00000000000E+00  0.00000000000E+00  0.93800000000E+00  0.93800000000E+00 0. -1.
         11    1    1    2    0    0 -0.37894232787E-02  0.25453349618E-01  0.22996258754E+00  0.23139854262E+00  0.51100000000E-03 0.  1.
    9000002    1    1    2    0    0  0.46957266293E-01 -0.43485753506E+00  0.12969818020E+00  0.10430588088E+01  0.93800000000E+00 0. -1.
         22    1    1    2    0    0 -0.43167843014E-01  0.40940418545E+00  0.36403391996E+01  0.36635426486E+01  0.00000000000E+00 0.  1.
</event>
<event>
 5    1  0.3005426E+001  0.1599673E+01  0.7818608E-02  0.3353718E+00
         11   -1    0    0    0    0  0.00000000000E+00  0.00000000000E+00  0.39999999674E+01  0.40000000000E+01  0.51100000000E-03 0. -1.
    9000002   -1    0    0    0    0 -0.00000000000E+00 -0.00000000000E+00  0.00000000000E+00  0.93800000000E+00  0.93800000000E+00 0. -1.
         11    1    1    2    0    0  0.50502614338E-02  0.20875157961E-01  0.22080059282E+00  0.22184327863E+00  0.51100000000E-03 0. -1.
    9000002    1    1    2    0    0 -0.97419713760E-01 -0.38384555186E+00  0.10573309639E+00  0.10236461771E+01  0.93800000000E+00 0. -1.
         22    1    1    2    0    0  0.92369452326E-01  0.36297039390E+00  0.36734662781E+01  0.36925105442E+01  0.00000000000E+00 0. -1.
</event>
<event>
 5    1  0.3005426E+001  0.1593494E+01  0.7818608E-02  0.3360455E+00
         11   -1    0    0    0    0  0.00000000000E+00  0.00000000000E+00  0.39999999674E+01  0.40000000000E+01  0.51100000000E-03 0.  1.
    9000002   -1    0    0    0    0 -0.00000000000E+00 -0.00000000000E+00  0.00000000000E+00  0.93800000000E+00  0.93800000000E+00 0.  1.
         11    1    1    2    0    0 -0.10411840692E+00  0.10121586805E-01  0.89067928229E+00  0.89680150212E+00  0.51100000000E-03 0.  1.
    9000002    1    1    2    0    0  0.45552780005E+00 -0.38200459111E+00  0.25243693117E+00  0.11388597317E+01  0.93800000000E+00 0.  1.
         22    1    1    2    0    0 -0.35140939313E+00  0.37188300430E+00  0.28568837539E+01  0.29023387662E+01  0.00000000000E+00 0.  1.
</event>
<event>
 5    1  0.3005426E+001  0.1599676E+01  0.7818608E-02  0.3353716E+00
         11   -1    0    0    0    0  0.00000000000E+00  0.00000000000E+00  0.39999999674E+01  0.40000000000E+01  0.51100000000E-03 0.  1.
    9000002   -1    0    0    0    0 -0.00000000000E+00 -0.00000000000E+00  0.00000000000E+00  0.93800000000E+00  0.93800000000E+00 0.  1.
         11    1    1    2    0    0  0.83161898186E-01 -0.75619991815E-01  0.88515066796E+00  0.89225907145E+00  0.51100000000E-03 0.  1.
    9000002    1    1    2    0    0 -0.35588598804E+00  0.32947065276E+00  0.16061487111E+00  0.10681043415E+01  0.93800000000E+00 0.  1.
         22    1    1    2    0    0  0.27272408986E+00 -0.25385066094E+00  0.29542344283E+01  0.29776365870E+01  0.00000000000E+00 0.  1.
</event>
<event>
 5    1  0.3005426E+001  0.1599664E+01  0.7818608E-02  0.3353728E+00
         11   -1    0    0    0    0  0.00000000000E+00  0.00000000000E+00  0.39999999674E+01  0.40000000000E+01  0.51100000000E-03 0.  1.
    9000002   -1    0    0    0    0 -0.00000000000E+00 -0.00000000000E+00  0.00000000000E+00  0.93800000000E+00  0.93800000000E+00 0.  1.
         11    1    1    2    0    0 -0.41110043847E-01  0.15831536835E-01  0.44778032232E+00  0.44994238680E+00  0.51100000000E-03 0.  1.
    9000002    1    1    2    0    0  0.34416129141E+00 -0.15706376597E+00  0.96285121561E-01  0.10159876208E+01  0.93800000000E+00 0.  1.
         22    1    1    2    0    0 -0.30305124756E+00  0.14123222914E+00  0.34559345235E+01  0.34720699923E+01  0.00000000000E+00 0.  1.
</event>
<event>
 5    1  0.3005426E+001  0.1599586E+01  0.7818608E-02  0.3353813E+00
         11   -1    0    0    0    0  0.00000000000E+00  0.00000000000E+00  0.39999999674E+01  0.40000000000E+01  0.51100000000E-03 0. -1.
    9000002   -1    0    0    0    0 -0.00000000000E+00 -0.00000000000E+00  0.00000000000E+00  0.93800000000E+00  0.93800000000E+00 0.  1.
         11    1    1    2    0    0  0.10222937652E+00 -0.33352313593E-01  0.75849159562E+00  0.76607635650E+00  0.51100000000E-03 0. -1.
    9000002    1    1    2    0    0 -0.48457666993E+00  0.20350703780E+00  0.19001924684E+00  0.10918704033E+01  0.93800000000E+00 0.  1.
         22    1    1    2    0    0  0.38234729340E+00 -0.17015472420E+00  0.30514891249E+01  0.30800532402E+01  0.00000000000E+00 0.  1.
</event>
<event>
 5    1  0.3005426E+001  0.1595445E+01  0.7818608E-02  0.3358322E+00
         11   -1    0    0    0    0  0.00000000000E+00  0.00000000000E+00  0.39999999674E+01  0.40000000000E+01  0.51100000000E-03 0.  1.
    9000002   -1    0    0    0    0 -0.00000000000E+00 -0.00000000000E+00  0.00000000000E+00  0.93800000000E+00  0.93800000000E+00 0.  1.
         11    1    1    2    0    0 -0.16215552843E-01  0.10170494120E-01  0.11711370959E+01  0.11712936189E+01  0.51100000000E-03 0.  1.
    9000002    1    1    2    0    0  0.27274826543E+00 -0.13610796522E+00  0.65342079406E-01  0.98844857319E+00  0.93800000000E+00 0.  1.
         22    1    1    2    0    0 -0.25653271259E+00  0.12593747110E+00  0.27635207920E+01  0.27782578079E+01  0.00000000000E+00 0.  1.
</event>
<event>
 5    1  0.3005426E+001  0.1501055E+01  0.7818608E-02  0.3468292E+00
         11   -1    0    0    0    0  0.00000000000E+00  0.00000000000E+00  0.39999999674E+01  0.40000000000E+01  0.51100000000E-03 0. -1.
    9000002   -1    0    0    0    0 -0.00000000000E+00 -0.00000000000E+00  0.00000000000E+00  0.93800000000E+00  0.93800000000E+00 0. -1.
         11    1    1    2    0    0 -0.28028775017E+00  0.24146525247E-01  0.27077424659E+00  0.39046540348E+00  0.51100000000E-03 0. -1.
    9000002    1    1    2    0    0  0.70084919554E+00  0.10865249919E+00  0.48264551593E+00  0.12711355768E+01  0.93800000000E+00 0. -1.
         22    1    1    2    0    0 -0.42056144537E+00 -0.13279902444E+00  0.32465802048E+01  0.32763990198E+01  0.00000000000E+00 0. -1.
</event>
<event>
 5    1  0.3005426E+001  0.1599677E+01  0.7818608E-02  0.3353714E+00
         11   -1    0    0    0    0  0.00000000000E+00  0.00000000000E+00  0.39999999674E+01  0.40000000000E+01  0.51100000000E-03 0.  1.
    9000002   -1    0    0    0    0 -0.00000000000E+00 -0.00000000000E+00  0.00000000000E+00  0.93800000000E+00  0.93800000000E+00 0.  1.
         11    1    1    2    0    0  0.64389994402E-01 -0.19472316912E+00  0.13670435968E+01  0.13823428086E+01  0.51100000000E-03 0.  1.
    9000002    1    1    2    0    0 -0.17731552737E+00  0.53730563739E+00  0.22179717970E+00  0.11176654836E+01  0.93800000000E+00 0.  1.
         22    1    1    2    0    0  0.11292553297E+00 -0.34258246827E+00  0.24111591909E+01  0.24379917078E+01  0.00000000000E+00 0. -1.
</event>
<event>
 5    1  0.3005426E+001  0.1590024E+01  0.7818608E-02  0.3364262E+00
         11   -1    0    0    0    0  0.00000000000E+00  0.00000000000E+00  0.39999999674E+01  0.40000000000E+01  0.51100000000E-03 0.  1.
    9000002   -1    0    0    0    0 -0.00000000000E+00 -0.00000000000E+00  0.00000000000E+00  0.93800000000E+00  0.93800000000E+00 0.  1.
         11    1    1    2    0    0  0.16991504060E+00  0.12651470224E+00  0.11718536677E+01  0.11908477529E+01  0.51100000000E-03 0.  1.
    9000002    1    1    2    0    0 -0.20316949316E+00 -0.37633790755E+00  0.13207245263E+00  0.10393243942E+01  0.93800000000E+00 0.  1.
         22    1    1    2    0    0  0.33254452561E-01  0.24982320531E+00  0.26960738470E+01  0.27078278529E+01  0.00000000000E+00 0.  1.
</event>
<event>
 5    1  0.3005426E+001  0.1599677E+01  0.7818608E-02  0.3353714E+00
         11   -1    0    0    0    0  0.00000000000E+00  0.00000000000E+00  0.39999999674E+01  0.40000000000E+01  0.51100000000E-03 0.  1.
    9000002   -1    0    0    0    0 -0.00000000000E+00 -0.00000000000E+00  0.00000000000E+00  0.93800000000E+00  0.93800000000E+00 0. -1.
         11    1    1    2    0    0 -0.84070339764E-01 -0.70847844503E-01  0.10625272378E+01  0.10682001831E+01  0.51100000000E-03 0.  1.
    9000002    1    1    2    0    0  0.30857599968E+00  0.25966782861E+00  0.10975503463E+00  0.10269063718E+01  0.93800000000E+00 0. -1.
         22    1    1    2    0    0 -0.22450565992E+00 -0.18881998411E+00  0.28277176950E+01  0.28428934451E+01  0.00000000000E+00 0.  1.
</event>
<event>
 5    1  0.3005426E+001  0.1599677E+01  0.7818608E-02  0.3353714E+00
         11   -1    0    0    0    0  0.00000000000E+00  0.00000000000E+00  0.39999999674E+01  0.40000000000E+01  0.51100000000E-03 0.  1.
    9000002   -1    0    0    0    0 -0.00000000000E+00 -0.00000000000E+00  0.00000000000E+00  0.93800000000E+00  0.93800000000E+00 0.  1.
         11    1    1    2    0    0  0.21027779035E-01 -0.13574808133E+00  0.13766993928E+01  0.13835357561E+01  0.51100000000E-03 0.  1.
    9000002    1    1    2    0    0 -0.59181554334E-01  0.38471004636E+00  0.10205377389E+00  0.10206680405E+01  0.93800000000E+00 0.  1.
         22    1    1    2    0    0  0.38153775298E-01 -0.24896196503E+00  0.25212468006E+01  0.25337962034E+01  0.00000000000E+00 0.  1.
</event>
<event>
 5    1  0.3005426E+001  0.1476989E+01  0.7818608E-02  0.3498747E+00
         11   -1    0    0    0    0  0.00000000000E+00  0.00000000000E+00  0.39999999674E+01  0.40000000000E+01  0.51100000000E-03 0.  1.
    9000002   -1    0    0    0    0 -0.00000000000E+00 -0.00000000000E+00  0.00000000000E+00  0.93800000000E+00  0.93800000000E+00 0. -1.
         11    1    1    2    0    0  0.36573814200E+00  0.30962800947E+00  0.10069482250E+01  0.11151586800E+01  0.51100000000E-03 0.  1.
    9000002    1    1    2    0    0 -0.11051599882E-01 -0.64080862925E+00  0.43071045011E+00  0.12149540440E+01  0.93800000000E+00 0. -1.
         22    1    1    2    0    0 -0.35468654212E+00  0.33118061978E+00  0.25623412923E+01  0.26078872760E+01  0.00000000000E+00 0.  1.
</event>
<event>
 5    1  0.3005426E+001  0.1570313E+01  0.7818608E-02  0.3386229E+00
         11   -1    0    0    0    0  0.00000000000E+00  0.00000000000E+00  0.39999999674E+01  0.40000000000E+01  0.51100000000E-03 0. -1.
    9000002   -1    0    0    0    0 -0.00000000000E+00 -0.00000000000E+00  0.00000000000E+00  0.93800000000E+00  0.93800000000E+00 0. -1.
         11    1    1    2    0    0 -0.95354131314E-02  0.59791252257E-02 -0.73376815864E-02  0.13445323875E-01  0.51100000000E-03 0. -1.
    9000002    1    1    2    0    0 -0.23481986754E+00  0.35635262369E+00  0.14863672397E+00  0.10411841520E+01  0.93800000000E+00 0. -1.
         22    1    1    2    0    0  0.24435528067E+00 -0.36233174891E+00  0.38587009250E+01  0.38833705242E+01  0.00000000000E+00 0. -1.
</event>
<event>
 5    1  0.3005426E+001  0.1507848E+01  0.7818608E-02  0.3459886E+00
         11   -1    0    0    0    0  0.00000000000E+00  0.00000000000E+00  0.39999999674E+01  0.40000000000E+01  0.51100000000E-03 0. -1.
    9000002   -1    0    0    0    0 -0.00000000000E+00 -0.00000000000E+00  0.00000000000E+00  0.93800000000E+00  0.93800000000E+00 0. -1.
         11    1    1    2    0    0 -0.94626364206E-01 -0.31536151299E+00  0.94885766017E+00  0.10043595736E+01  0.51100000000E-03 0. -1.
    9000002    1    1    2    0    0  0.75660915360E-01  0.41837279240E-01  0.75067591273E-01  0.94496247296E+00  0.93800000000E+00 0. -1.
         22    1    1    2    0    0  0.18965448846E-01  0.27352423375E+00  0.29760747159E+01  0.29886779535E+01  0.00000000000E+00 0. -1.
</event>
<event>
 5    1  0.3005426E+001  0.1561188E+01  0.7818608E-02  0.3396596E+00
         11   -1    0    0    0    0  0.00000000000E+00  0.00000000000E+00  0.39999999674E+01  0.40000000000E+01  0.51100000000E-03 0. -1.
    9000002   -1    0    0    0    0 -0.00000000000E+00 -0.00000000000E+00  0.00000000000E+00  0.93800000000E+00  0.93800000000E+00 0. -1.
         11    1    1    2    0    0  0.16045438301E+00  0.22101376111E-01  0.77636615818E+00  0.79308180697E+00  0.51100000000E-03 0. -1.
    9000002    1    1    2    0    0  0.13903413601E+00 -0.15517611683E+00  0.58261422187E-01  0.96262584192E+00  0.93800000000E+00 0. -1.
         22    1    1    2    0    0 -0.29948851902E+00  0.13307474071E+00  0.31653723870E+01  0.31822923511E+01  0.00000000000E+00 0. -1.
</event>
<event>
 5    1  0.3005426E+001  0.1599676E+01  0.7818608E-02  0.3353716E+00
         11   -1    0    0    0    0  0.00000000000E+00  0.00000000000E+00  0.39999999674E+01  0.40000000000E+01  0.51100000000E-03 0.  1.
    9000002   -1    0    0    0    0 -0.00000000000E+00 -0.00000000000E+00  0.00000000000E+00  0.93800000000E+00  0.93800000000E+00 0.  1.
         11    1    1    2    0    0 -0.18985761500E-01  0.84112686429E-01  0.88887429088E+00  0.89304712600E+00  0.51100000000E-03 0.  1.
    9000002    1    1    2    0    0  0.87985911599E-01 -0.36735832867E+00  0.95985086740E-01  0.10157513471E+01  0.93800000000E+00 0.  1.
         22    1    1    2    0    0 -0.69000150098E-01  0.28324564224E+00  0.30151405897E+01  0.30292015269E+01  0.00000000000E+00 0.  1.
</event>
<event>
 5    1  0.3005426E+001  0.1519697E+01  0.7818608E-02  0.3445415E+00
         11   -1    0    0    0    0  0.00000000000E+00  0.00000000000E+00  0.39999999674E+01  0.40000000000E+01  0.51100000000E-03 0.  1.
    9000002   -1    0    0    0    0 -0.00000000000E+00 -0.00000000000E+00  0.00000000000E+00  0.93800000000E+00  0.93800000000E+00 0.  1.
         11    1    1    2    0    0 -0.24482318686E+00 -0.20557284495E+00  0.82083919563E+00  0.88089490498E+00  0.51100000000E-03 0.  1.
    9000002    1    1    2    0    0 -0.13429990226E+00  0.57148785529E+00  0.32298571265E+00  0.11527352702E+01  0.93800000000E+00 0.  1.
         22    1    1    2    0    0  0.37912308912E+00 -0.36591501034E+00  0.28561750591E+01  0.29043698249E+01  0.00000000000E+00 0. -1.
</event>
<event>
 5    1  0.3005426E+001  0.1597666E+01  0.7818608E-02  0.3355901E+00
         11   -1    0    0    0    0  0.00000000000E+00  0.00000000000E+00  0.39999999674E+01  0.40000000000E+01  0.51100000000E-03 0. -1.
    9000002   -1    0    0    0    0 -0.00000000000E+00 -0.00000000000E+00  0.00000000000E+00  0.93800000000E+00  0.93800000000E+00 0.  1.
         11    1    1    2    0    0 -0.75929105981E-02 -0.21380478187E-02  0.24958161666E-01  0.26180040003E-01  0.51100000000E-03 0. -1.
    9000002    1    1    2    0    0 -0.16800157071E+00  0.39281462491E+00  0.12527569246E+00  0.10382995023E+01  0.93800000000E+00 0.  1.
         22    1    1    2    0    0  0.17559448131E+00 -0.39067657709E+00  0.38497661132E+01  0.38735204577E+01  0.00000000000E+00 0. -1.
</event>
<event>
 5    1  0.3005426E+001  0.1597091E+01  0.7818608E-02  0.3356527E+00
         11   -1    0    0    0    0  0.00000000000E+00  0.00000000000E+00  0.39999999674E+01  0.40000000000E+01  0.51100000000E-03 0. -1.
    9000002   -1    0    0    0    0 -0.00000000000E+00 -0.00000000000E+00  0.00000000000E+00  0.93800000000E+00  0.93800000000E+00 0.  1.
         11    1    1    2    0    0  0.55010843571E-01 -0.80199902754E-01  0.14953345559E+01  0.14984938813E+01  0.51100000000E-03 0. -1.
    9000002    1    1    2    0    0 -0.29528885507E+00  0.24340479758E+00  0.10069296401E+00  0.10180493487E+01  0.93800000000E+00 0.  1.
         22    1    1    2    0    0  0.24027801150E+00 -0.16320489482E+00  0.24039724475E+01  0.24214567700E+01  0.00000000000E+00 0. -1.
</event>
<event>
 5    1  0.3005426E+001  0.1599622E+01  0.7818608E-02  0.3353774E+00
         11   -1    0    0    0    0  0.00000000000E+00  0.00000000000E+00  0.39999999674E+01  0.40000000000E+01  0.51100000000E-03 0. -1.
    9000002   -1    0    0    0    0 -0.00000000000E+00 -0.00000000000E+00  0.00000000000E+00  0.93800000000E+00  0.93800000000E+00 0. -1.
         11    1    1    2    0    0  0.11474007760E+00  0.20638662328E+00  0.86251479050E+00  0.89425541576E+00  0.51100000000E-03 0. -1.
    9000002    1    1    2    0    0 -0.44191861720E+00 -0.82507152652E+00  0.68167390777E+00  0.14901538191E+01  0.93800000000E+00 0. -1.
         22    1    1    2    0    0  0.32717853960E+00  0.61868490324E+00  0.24558112691E+01  0.25535907651E+01  0.00000000000E+00 0. -1.
</event>
<event>
 5    1  0.3005426E+001  0.1599674E+01  0.7818608E-02  0.3353717E+00
         11   -1    0    0    0    0  0.00000000000E+00  0.00000000000E+00  0.39999999674E+01  0.40000000000E+01  0.51100000000E-03 0.  1.
    9000002   -1    0    0    0    0 -0.00000000000E+00 -0.00000000000E+00  0.00000000000E+00  0.93800000000E+00  0.93800000000E+00 0. -1.
         11    1    1    2    0    0  0.20325421422E-01  0.43017585085E-01  0.41930883117E+00  0.42199975403E+00  0.51100000000E-03 0.  1.
    9000002    1    1    2    0    0 -0.19662373246E+00 -0.39167655310E+00  0.13023194729E+00  0.10434921056E+01  0.93800000000E+00 0. -1.
         22    1    1    2    0    0  0.17629831104E+00  0.34865896802E+00  0.34504591889E+01  0.34725081403E+01  0.00000000000E+00 0.  1.
</event>
<event>
 5    1  0.3005426E+001  0.1465709E+01  0.7818608E-02  0.3513393E+00
         11   -1    0    0    0    0  0.00000000000E+00  0.00000000000E+00  0.39999999674E+01  0.40000000000E+01  0.51100000000E-03 0. -1.
    9000002   -1    0    0    0    0 -0.00000000000E+00 -0.00000000000E+00  0.00000000000E+00  0.93800000000E+00  0.93800000000E+00 0. -1.
         11    1    1    2    0    0 -0.11959893384E+00 -0.37492208065E+00  0.84057643211E+00  0.92813763574E+00  0.51100000000E-03 0. -1.
    9000002    1    1    2    0    0 -0.18651971665E+00 -0.33118814135E-01  0.16347892642E+00  0.97080163779E+00  0.93800000000E+00 0. -1.
         22    1    1    2    0    0  0.30611865049E+00  0.40804089478E+00  0.29959446088E+01  0.30390607265E+01  0.00000000000E+00 0. -1.
</event>
<event>
 5    1  0.3005426E+001  0.1501145E+01  0.7818608E-02  0.3468180E+00
         11   -1    0    0    0    0  0.00000000000E+00  0.00000000000E+00  0.39999999674E+01  0.40000000000E+01  0.51100000000E-03 0.  1.
    9000002   -1    0    0    0    0 -0.00000000000E+00 -0.00000000000E+00  0.00000000000E+00  0.93800000000E+00  0.93800000000E+00 0.  1.
         11    1    1    2    0    0 -0.32433172137E+00 -0.93963381862E-01  0.12144124604E+01  0.12604832675E+01  0.51100000000E-03 0.  1.
    9000002    1    1    2    0    0 -0.67644806138E-01  0.11440312754E+00  0.87915561024E-01  0.95143945748E+00  0.93800000000E+00 0.  1.
         22    1    1    2    0    0  0.39197652751E+00 -0.20439745675E-01  0.26976719460E+01  0.27260772750E+01  0.00000000000E+00 0.  1.
</event>
<event>
 5    1  0.3005426E+001  0.1599651E+01  0.7818608E-02  0.3353742E+00
         11   -1    0    0    0    0  0.00000000000E+00  0.00000000000E+00  0.39999999674E+01  0.40000000000E+01  0.51100000000E-03 0. -1.
    9000002   -1    0    0    0    0 -0.00000000000E+00 -0.00000000000E+00  0.00000000000E+00  0.93800000000E+00  0.93800000000E+00 0.  1.
         11    1    1    2    0    0  0.47109207706E-02 -0.31809026577E-01  0.26639132435E+00  0.26832555927E+00  0.51100000000E-03 0. -1.
    9000002    1    1    2    0    0 -0.54976897250E-01  0.49978340415E+00  0.17316488129E+00  0.10782559930E+01  0.93800000000E+00 0.  1.
         22    1    1    2    0    0  0.50265976479E-01 -0.46797437757E+00  0.35604437617E+01  0.35914184477E+01  0.00000000000E+00 0. -1.
</event>
<event>
 5    1  0.3005426E+001  0.1599590E+01  0.7818608E-02  0.3353809E+00
         11   -1    0    0    0    0  0.00000000000E+00  0.00000000000E+00  0.39999999674E+01  0.40000000000E+01  0.51100000000E-03 0.  1.
    9000002   -1    0    0    0    0 -0.00000000000E+00 -0.00000000000E+00  0.00000000000E+00  0.93800000000E+00  0.93800000000E+00 0. -1.
         11    1    1    2    0    0  0.40125423324E-01 -0.70754040875E-01  0.75858509596E+00  0.76293367525E+00  0.51100000000E-03 0.  1.
    9000002    1    1    2    0    0 -0.22451257690E+00  0.40057824590E+00  0.14349180074E+00  0.10541834400E+01  0.93800000000E+00 0. -1.
         22    1    1    2    0    0  0.18438715358E+00 -0.32982420503E+00  0.30979230707E+01  0.31208828848E+01  0.00000000000E+00 0.  1.
</event>
<event>
 5    1  0.3005426E+001  0.1594792E+01  0.7818608E-02  0.3359035E+00
         11   -1    0    0    0    0  0.00000000000E+00  0.00000000000E+00  0.39999999674E+01  0.40000000000E+01  0.51100000000E-03 0. -1.
    9000002   -1    0    0    0    0 -0.00000000000E+00 -0.00000000000E+00  0.00000000000E+00  0.93800000000E+00  0.93800000000E+00 0. -1.
         11    1    1    2    0    0 -0.32472050817E-01 -0.99117598030E-01  0.10433423397E+01  0.10485429087E+01  0.51100000000E-03 0. -1.
    9000002    1    1    2    0    0 -0.14986811387E+00  0.30846625515E+00  0.82726136742E-01  0.10021474422E+01  0.93800000000E+00 0. -1.
         22    1    1    2    0    0  0.18234016469E+00 -0.20934865712E+00  0.28739314909E+01  0.28873096492E+01  0.00000000000E+00 0. -1.
</event>
<event>
 5    1  0.3005426E+001  0.1599629E+01  0.7818608E-02  0.3353766E+00
         11   -1    0    0    0    0  0.00000000000E+00  0.00000000000E+00  0.39999999674E+01  0.40000000000E+01  0.51100000000E-03 0. -1.
    9000002   -1    0    0    0    0 -0.00000000000E+00 -0.00000000000E+00  0.00000000000E+00  0.93800000000E+00  0.93800000000E+00 0. -1.
         11    1    1    2    0    0 -0.78503891987E-01 -0.93243617577E-01  0.11822610734E+01  0.11885279719E+01  0.51100000000E-03 0. -1.
    9000002    1    1    2    0    0  0.28195089939E+00  0.31272187330E+00  0.11996051884E+00  0.10351453066E+01  0.93800000000E+00 0. -1.
         22    1    1    2    0    0 -0.20344700741E+00 -0.21947825572E+00  0.26977783752E+01  0.27143267215E+01  0.00000000000E+00 0. -1.
</event>
<event>
 5    1  0.3005426E+001  0.1569074E+01  0.7818608E-02  0.3387629E+00
         11   -1    0    0    0    0  0.00000000000E+00  0.00000000000E+00  0.39999999674E+01  0.40000000000E+01  0.51100000000E-03 0.  1.
    9000002   -1    0    0    0    0 -0.00000000000E+00 -0.00000000000E+00  0.00000000000E+00  0.93800000000E+00  0.93800000000E+00 0.  1.
         11    1    1    2    0    0 -0.27470710089E-01  0.44663773842E-02  0.48959250629E-03  0.27840424953E-01  0.51100000000E-03 0.  1.
    9000002    1    1    2    0    0  0.54212667194E+00  0.43160792815E+00  0.37736713707E+00  0.12257392415E+01  0.93800000000E+00 0.  1.
         22    1    1    2    0    0 -0.51465596185E+00 -0.43607430554E+00  0.36221432378E+01  0.36844203335E+01  0.00000000000E+00 0.  1.
</event>
<event>
 5    1  0.4515148E+001  0.1573675E+01  0.7818608E-02  0.3382441E+00
         11   -1    0    0    0    0  0.00000000000E+00  0.00000000000E+00  0.39999999674E+01  0.40000000000E+01  0.51100000000E-03 0.  1.
    9000002   -1    0    0    0    0 -0.00000000000E+00 -0.00000000000E+00  0.00000000000E+00  0.93800000000E+00  0.93800000000E+00 0. -1.
         11    1    1    2    0    0 -0.12990633249E+00 -0.76079694551E-01  0.12679652920E+01  0.12768711830E+01  0.51100000000E-03 0.  1.
    9000002    1    1    2    0    0 -0.74212378658E-01 -0.61054621928E-01  0.25302615960E-01  0.94324936596E+00  0.93800000000E+00 0. -1.
         22    1    1    2    0    0  0.20411871115E+00  0.13713431648E+00  0.27067320594E+01  0.27178794510E+01  0.00000000000E+00 0.  1.
</event>
<event>
 5    1  0.3005426E+001  0.1568615E+01  0.7818608E-02  0.3388148E+00
         11   -1    0    0    0    0  0.00000000000E+00  0.00000000000E+00  0.39999999674E+01  0.40000000000E+01  0.51100000000E-03 0. -1.
    9000002   -1    0    0    0    0 -0.00000000000E+00 -0.00000000000E+00  0.00000000000E+00  0.93800000000E+00  0.93800000000E+00 0. -1.
         11    1    1    2    0    0 -0.15597341083E-01  0.14929571375E+00  0.76193552501E+00  0.77658128524E+00  0.51100000000E-03 0. -1.
    9000002    1    1    2    0    0 -0.29433709080E+00  0.11116848058E-01  0.82499419373E-01  0.98661444421E+00  0.93800000000E+00 0. -1.
         22    1    1    2    0    0  0.30993443188E+00 -0.16041256181E+00  0.31555650230E+01  0.31748042706E+01  0.00000000000E+00 0. -1.
</event>
<event>
 5    1  0.3005426E+001  0.1599676E+01  0.7818608E-02  0.3353715E+00
         11   -1    0    0    0    0  0.00000000000E+00  0.00000000000E+00  0.39999999674E+01  0.40000000000E+01  0.51100000000E-03 0. -1.
    9000002   -1    0    0    0    0 -0.00000000000E+00 -0.00000000000E+00  0.00000000000E+00  0.93800000000E+00  0.93800000000E+00 0.  1.
         11    1    1    2    0    0 -0.29712557175E-01  0.13178486241E+00  0.99266819599E+00  0.10018185936E+01  0.51100000000E-03 0. -1.
    9000002    1    1    2    0    0  0.11365979639E+00 -0.51047275869E+00  0.18797259884E+00  0.10902654193E+01  0.93800000000E+00 0.  1.
         22    1    1    2    0    0 -0.83947239215E-01  0.37868789628E+00  0.28193591725E+01  0.28459159871E+01  0.00000000000E+00 0. -1.
</event>
<event>
 5    1  0.3005426E+001  0.1599674E+01  0.7818608E-02  0.3353717E+00
         11   -1    0    0    0    0  0.00000000000E+00  0.00000000000E+00  0.39999999674E+01  0.40000000000E+01  0.51100000000E-03 0. -1.
    9000002   -1    0    0    0    0 -0.00000000000E+00 -0.00000000000E+00  0.00000000000E+00  0.93800000000E+00  0.93800000000E+00 0. -1.
         11    1    1    2    0    0  0.13377138378E+00 -0.13063404381E-01  0.93301849160E+00  0.94265009544E+00  0.51100000000E-03 0. -1.
    9000002    1    1    2    0    0 -0.54877326172E+00  0.56964725301E-01  0.21031861614E+00  0.11083659111E+01  0.93800000000E+00 0. -1.
         22    1    1    2    0    0  0.41500187794E+00 -0.43901320919E-01  0.28566628596E+01  0.28869839934E+01  0.00000000000E+00 0. -1.
</event>
<event>
 5    1  0.3005426E+001  0.1599638E+01  0.7818608E-02  0.3353756E+00
         11   -1    0    0    0    0  0.00000000000E+00  0.00000000000E+00  0.39999999674E+01  0.40000000000E+01  0.51100000000E-03 0. -1.
    9000002   -1    0    0    0    0 -0.00000000000E+00 -0.00000000000E+00  0.00000000000E+00  0.93800000000E+00  0.93800000000E+00 0.  1.
         11    1    1    2    0    0 -0.19846359573E+00  0.17341060991E+00  0.11281884544E+01  0.11585631136E+01  0.51100000000E-03 0. -1.
    9000002    1    1    2    0    0  0.62571830465E+00 -0.51926962172E+00  0.48928429258E+00  0.13343190982E+01  0.93800000000E+00 0.  1.
         22    1    1    2    0    0 -0.42725470892E+00  0.34585901181E+00  0.23825272204E+01  0.24451177882E+01  0.00000000000E+00 0.  1.
</event>
<event>
 5    1  0.3005426E+001  0.1599552E+01  0.7818608E-02  0.3353850E+00
         11   -1    0    0    0    0  0.00000000000E+00  0.00000000000E+00  0.39999999674E+01  0.40000000000E+01  0.51100000000E-03 0. -1.
    9000002   -1    0    0    0    0 -0.00000000000E+00 -0.00000000000E+00  0.00000000000E+00  0.93800000000E+00  0.93800000000E+00 0. -1.
         11    1    1    2    0    0  0.31260517566E-02  0.86872973027E-01  0.80865057107E+00  0.81330971521E+00  0.51100000000E-03 0. -1.
    9000002    1    1    2    0    0  0.16778673701E-01 -0.37728185324E+00  0.96038004294E-01  0.10157216247E+01  0.93800000000E+00 0. -1.
         22    1    1    2    0    0 -0.19904725458E-01  0.29040888022E+00  0.30953113920E+01  0.31089686601E+01  0.00000000000E+00 0. -1.
</event>
<event>
 5    1  0.3005426E+001  0.1599663E+01  0.7818608E-02  0.3353729E+00
         11   -1    0    0    0    0  0.00000000000E+00  0.00000000000E+00  0.39999999674E+01  0.40000000000E+01  0.51100000000E-03 0. -1.
    9000002   -1    0    0    0    0 -0.00000000000E+00 -0.00000000000E+00  0.00000000000E+00  0.93800000000E+00  0.93800000000E+00 0. -1.
         11    1    1    2    0    0 -0.38477403856E-01  0.92815745158E-02  0.44288184650E+00  0.44464733140E+00  0.51100000000E-03 0. -1.
    9000002    1    1    2    0    0  0.36145680911E+00 -0.69881682137E-01  0.91076033202E-01  0.10117674230E+01  0.93800000000E+00 0. -1.
         22    1    1    2    0    0 -0.32297940525E+00  0.60600107621E-01  0.34660420877E+01  0.34815852456E+01  0.00000000000E+00 0. -1.
</event>
<event>
 5    1  0.3005426E+001  0.1598428E+01  0.7818608E-02  0.3355071E+00
         11   -1    0    0    0    0  0.00000000000E+00  0.00000000000E+00  0.39999999674E+01  0.40000000000E+01  0.51100000000E-03 0. -1.
    9000002   -1    0    0    0    0 -0.00000000000E+00 -0.00000000000E+00  0.00000000000E+00  0.93800000000E+00  0.93800000000E+00 0.  1.
         11    1    1    2    0    0 -0.35781399871E-02 -0.10417849729E-01  0.38842087062E+00  0.38857736493E+00  0.51100000000E-03 0. -1.
    9000002    1    1    2    0    0  0.28456591296E+00  0.17080784746E+00  0.74710851627E-01  0.99778694666E+00  0.93800000000E+00 0.  1.
         22    1    1    2    0    0 -0.28098777297E+00 -0.16038999773E+00  0.35368682451E+01  0.35516356884E+01  0.00000000000E+00 0. -1.
</event>
<event>
 5    1  0.3005426E+001  0.1596692E+01  0.7818608E-02  0.3356961E+00
         11   -1    0    0    0    0  0.00000000000E+00  0.00000000000E+00  0.39999999674E+01  0.40000000000E+01  0.51100000000E-03 0. -1.
    9000002   -1    0    0    0    0 -0.00000000000E+00 -0.00000000000E+00  0.00000000000E+00  0.93800000000E+00  0.93800000000E+00 0.  1.
         11    1    1    2    0    0 -0.14710257521E+00 -0.72504238767E-02  0.12742290175E+01  0.12827125892E+01  0.51100000000E-03 0. -1.
    9000002    1    1    2    0    0  0.34167688916E+00  0.17670725308E+00  0.10207707181E+00  0.10189368373E+01  0.93800000000E+00 0.  1.
         22    1    1    2    0    0 -0.19457431395E+00 -0.16945682921E+00  0.26236938780E+01  0.26363505735E+01  0.00000000000E+00 0. -1.
</event>
<event>
 5    1  0.3005426E+001  0.1599613E+01  0.7818608E-02  0.3353784E+00
         11   -1    0    0    0    0  0.00000000000E+00  0.00000000000E+00  0.39999999674E+01  0.40000000000E+01  0.51100000000E-03 0. -1.
    9000002   -1    0    0    0    0 -0.00000000000E+00 -0.00000000000E+00  0.00000000000E+00  0.93800000000E+00  0.93800000000E+00 0. -1.
         11    1    1    2    0    0  0.46312685003E-01  0.38867614785E-01  0.55625014816E+00  0.55952662557E+00  0.51100000000E-03 0. -1.
    9000002    1    1    2    0    0 -0.34999364958E+00 -0.30614185232E+00  0.14723968845E+00  0.10572331410E+01  0.93800000000E+00 0. -1.
         22    1    1    2    0    0  0.30368096458E+00  0.26727423754E+00  0.32965101307E+01  0.33212402335E+01  0.00000000000E+00 0. -1.
</event>
<event>
 5    1  0.3005426E+001  0.1599228E+01  0.7818608E-02  0.3354202E+00
         11   -1    0    0    0    0  0.00000000000E+00  0.00000000000E+00  0.39999999674E+01  0.40000000000E+01  0.51100000000E-03 0.  1.
    9000002   -1    0    0    0    0 -0.00000000000E+00 -0.00000000000E+00  0.00000000000E+00  0.93800000000E+00  0.93800000000E+00 0.  1.
         11    1    1    2    0    0  0.50920788938E-01 -0.11611725871E+00  0.11168558031E+01  0.11240299331E+01  0.51100000000E-03 0.  1.
    9000002    1    1    2    0    0 -0.21825552114E+00  0.46376880594E+00  0.18063925679E+00  0.10840625069E+01  0.93800000000E+00 0.  1.
         22    1    1    2    0    0  0.16733473220E+00 -0.34765154723E+00  0.27025049075E+01  0.27299075600E+01  0.00000000000E+00 0.  1.
</event>
<event>
 5    1  0.3005426E+001  0.1599670E+01  0.7818608E-02  0.3353721E+00
         11   -1    0    0    0    0  0.00000000000E+00  0.00000000000E+00  0.39999999674E+01  0.40000000000E+01  0.51100000000E-03 0.  1.
    9000002   -1    0    0    0    0 -0.00000000000E+00 -0.00000000000E+00  0.00000000000E+00  0.93800000000E+00  0.93800000000E+00 0.  1.
         11    1    1    2    0    0 -0.68647255775E-01  0.27975525122E-01  0.42652342225E+00  0.43291750552E+00  0.51100000000E-03 0.  1.
    9000002    1    1    2    0    0  0.60201193219E+00 -0.25802641527E+00  0.30309144842E+00  0.11835135925E+01  0.93800000000E+00 0.  1.
         22    1    1    2    0    0 -0.53336467642E+00  0.23005089015E+00  0.32703850967E+01  0.33215689020E+01  0.00000000000E+00 0.  1.
</event>
<event>
 5    1  0.3005426E+001  0.1599243E+01  0.7818608E-02  0.3354186E+00
         11   -1    0    0    0    0  0.00000000000E+00  0.00000000000E+00  0.39999999674E+01  0.40000000000E+01  0.51100000000E-03 0. -1.
    9000002   -1    0    0    0    0 -0.00000000000E+00 -0.00000000000E+00  0.00000000000E+00  0.93800000000E+00  0.93800000000E+00 0. -1.
         11    1    1    2    0    0  0.60676100183E-01  0.76499907210E-01  0.52739160935E+00  0.53635435644E+00  0.51100000000E-03 0. -1.
    9000002    1    1    2    0    0 -0.32531228025E+00 -0.60684084998E+00  0.33826549733E+00  0.12117555214E+01  0.93800000000E+00 0. -1.
         22    1    1    2    0    0  0.26463618006E+00  0.53034094277E+00  0.31343428607E+01  0.31898901222E+01  0.00000000000E+00 0. -1.
</event>
<event>
 5    1  0.3005426E+001  0.1592558E+01  0.7818608E-02  0.3361480E+00
         11   -1    0    0    0    0  0.00000000000E+00  0.00000000000E+00  0.39999999674E+01  0.40000000000E+01  0.51100000000E-03 0.  1.
    9000002   -1    0    0    0    0 -0.00000000000E+00 -0.00000000000E+00  0.00000000000E+00  0.93800000000E+00  0.93800000000E+00 0. -1.
         11    1    1    2    0    0 -0.20667395578E-01  0.53698936521E-01  0.35453312795E+00  0.35917226641E+00  0.51100000000E-03 0.  1.
    9000002    1    1    2    0    0 -0.29094865242E+00 -0.21118281642E+00  0.92543772508E-01  0.10087901913E+01  0.93800000000E+00 0. -1.
         22    1    1    2    0    0  0.31161604800E+00  0.15748387990E+00  0.35529230669E+01  0.35700375423E+01  0.00000000000E+00 0.  1.
</event>
<event>
 5    1  0.3005426E+001  0.1597648E+01  0.7818608E-02  0.3355920E+00
         11   -1    0    0    0    0  0.00000000000E+00  0.00000000000E+00  0.39999999674E+01  0.40000000000E+01  0.51100000000E-03 0. -1.
    9000002   -1    0    0    0    0 -0.00000000000E+00 -0.00000000000E+00  0.00000000000E+00  0.93800000000E+00  0.93800000000E+00 0.  1.
         11    1    1    2    0    0 -0.39206201045E-01  0.23915796859E-01  0.32326185317E+00  0.32650815973E+00  0.51100000000E-03 0. -1.
    9000002    1    1    2    0    0  0.63693974522E+00  0.23070932122E-01  0.28790242981E+00  0.11700240664E+01  0.93800000000E+00 0.  1.
         22    1    1    2    0    0 -0.59773354418E+00 -0.46986728981E-01  0.33888356844E+01  0.34414677738E+01  0.00000000000E+00 0. -1.
</event>
<event>
 5    1  0.3005426E+001  0.1598141E+01  0.7818608E-02  0.3355383E+00
         11   -1    0    0    0    0  0.00000000000E+00  0.00000000000E+00  0.39999999674E+01  0.40000000000E+01  0.51100000000E-03 0. -1.
    9000002   -1    0    0    0    0 -0.00000000000E+00 -0.00000000000E+00  0.00000000000E+00  0.93800000000E+00  0.93800000000E+00 0. -1.
         11    1    1    2    0    0 -0.18916630091E+00 -0.57949291134E-01  0.11319029719E+01  0.11490633615E+01  0.51100000000E-03 0. -1.
    9000002    1    1    2    0    0  0.50611028563E+00  0.12896428189E+00  0.18886512704E+00  0.10900887319E+01  0.93800000000E+00 0. -1.
         22    1    1    2    0    0 -0.31694398472E+00 -0.71014990758E-01  0.26792318684E+01  0.26988479066E+01  0.00000000000E+00 0. -1.
</event>
<event>
 5    1  0.3005426E+001  0.1599649E+01  0.7818608E-02  0.3353745E+00
         11   -1    0    0    0    0  0.00000000000E+00  0.00000000000E+00  0.39999999674E+01  0.40000000000E+01  0.51100000000E-03 0. -1.
    9000002   -1    0    0    0    0 -0.00000000000E+00 -0.00000000000E+00  0.00000000000E+00  0.93800000000E+00  0.93800000000E+00 0. -1.
         11    1    1    2    0    0 -0.35850738477E-01  0.56379614346E-02  0.37581282257E+00  0.37756138678E+00  0.51100000000E-03 0. -1.
    9000002    1    1    2    0    0  0.38853250990E+00 -0.23352787241E-01  0.10207604621E+00  0.10206695759E+01  0.93800000000E+00 0. -1.
         22    1    1    2    0    0 -0.35268177142E+00  0.17714825806E-01  0.35221110986E+01  0.35397690373E+01  0.00000000000E+00 0. -1.
</event>
<event>
 5    1  0.3005426E+001  0.1599658E+01  0.7818608E-02  0.3353735E+00
         11   -1    0    0    0    0  0.00000000000E+00  0.00000000000E+00  0.39999999674E+01  0.40000000000E+01  0.51100000000E-03 0.  1.
    9000002   -1    0    0    0    0 -0.00000000000E+00 -0.00000000000E+00  0.00000000000E+00  0.93800000000E+00  0.93800000000E+00 0.  1.
         11    1    1    2    0    0  0.63825747942E-01 -0.35477678764E-01  0.73134434103E+00  0.73498108687E+00  0.51100000000E-03 0.  1.
    9000002    1    1    2    0    0 -0.32381761476E+00  0.20368328386E+00  0.98513126068E-01  0.10177885654E+01  0.93800000000E+00 0.  1.
         22    1    1    2    0    0  0.25999186682E+00 -0.16820560510E+00  0.31701425003E+01  0.31852303478E+01  0.00000000000E+00 0.  1.
</event>
<event>
 5    1  0.3005426E+001  0.1594908E+01  0.7818608E-02  0.3358909E+00
         11   -1    0    0    0    0  0.00000000000E+00  0.00000000000E+00  0.39999999674E+01  0.40000000000E+01  0.51100000000E-03 0. -1.
    9000002   -1    0    0    0    0 -0.00000000000E+00 -0.00000000000E+00  0.00000000000E+00  0.93800000000E+00  0.93800000000E+00 0. -1.
         11    1    1    2    0    0  0.52042266661E-01 -0.60371531726E-01  0.12262002247E+01  0.12287881720E+01  0.51100000000E-03 0. -1.
    9000002    1    1    2    0    0 -0.37716099929E+00  0.67302473589E-01  0.10272966196E+00  0.10184190816E+01  0.93800000000E+00 0. -1.
         22    1    1    2    0    0  0.32511873263E+00 -0.69309418631E-02  0.26710700807E+01  0.26907927464E+01  0.00000000000E+00 0.  1.
</event>
<event>
 5    1  0.3005426E+001  0.1599141E+01  0.7818608E-02  0.3354296E+00
         11   -1    0    0    0    0  0.00000000000E+00  0.00000000000E+00  0.39999999674E+01  0.40000000000E+01  0.51100000000E-03 0.  1.
    9000002   -1    0    0    0    0 -0.00000000000E+00 -0.00000000000E+00  0.00000000000E+00  0.93800000000E+00  0.93800000000E+00 0.  1.
         11    1    1    2    0    0  0.74759296175E-01 -0.48692505667E-01  0.11698539302E+01  0.11732512057E+01  0.51100000000E-03 0.  1.
    9000002    1    1    2    0    0 -0.33268993805E+00  0.14127305108E+00  0.88143137816E-01  0.10090856666E+01  0.93800000000E+00 0.  1.
         22    1    1    2    0    0  0.25793064188E+00 -0.92580545412E-01  0.27420028994E+01  0.27556631277E+01  0.00000000000E+00 0.  1.
</event>
<event>
 5    1  0.3005426E+001  0.1599665E+01  0.7818608E-02  0.3353727E+00
         11   -1    0    0    0    0  0.00000000000E+00  0.00000000000E+00  0.39999999674E+01  0.40000000000E+01  0.51100000000E-03 0. -1.
    9000002   -1    0    0    0    0 -0.00000000000E+00 -0.00000000000E+00  0.00000000000E+00  0.93800000000E+00  0.93800000000E+00 0. -1.
         11    1    1    2    0    0 -0.30905881387E-01  0.23659690749E-01  0.40679710838E+00  0.40865523731E+00  0.51100000000E-03 0. -1.
    9000002    1    1    2    0    0  0.27384233928E+00 -0.23270955768E+00  0.86692368776E-01  0.10082177006E+01  0.93800000000E+00 0. -1.
         22    1    1    2    0    0 -0.24293645789E+00  0.20904986693E+00  0.35065104902E+01  0.35211270621E+01  0.00000000000E+00 0. -1.
</event>
<event>
 5    1  0.3005426E+001  0.1599109E+01  0.7818608E-02  0.3354331E+00
         11   -1    0    0    0    0  0.00000000000E+00  0.00000000000E+00  0.39999999674E+01  0.40000000000E+01  0.51100000000E-03 0. -1.
    9000002   -1    0    0    0    0 -0.00000000000E+00 -0.00000000000E+00  0.00000000000E+00  0.93800000000E+00  0.93800000000E+00 0.  1.
         11    1    1    2    0    0  0.16147180659E-01  0.14341272465E-01  0.18123425011E+00  0.18251717200E+00  0.51100000000E-03 0. -1.
    9000002    1    1    2    0    0 -0.38306851207E+00 -0.51337461459E-01  0.10105485885E+00  0.10195259214E+01  0.93800000000E+00 0.  1.
         22    1    1    2    0    0  0.36692133141E+00  0.36996188994E-01  0.37177108584E+01  0.37359569066E+01  0.00000000000E+00 0. -1.
</event>
<event>
 5    1  0.3005426E+001  0.1582972E+01  0.7818608E-02  0.3372055E+00
         11   -1    0    0    0    0  0.00000000000E+00  0.00000000000E+00  0.39999999674E+01  0.40000000000E+01  0.51100000000E-03 0.  1.
    9000002   -1    0    0    0    0 -0.00000000000E+00 -0.00000000000E+00  0.00000000000E+00  0.93800000000E+00  0.93800000000E+00 0. -1.
         11    1    1    2    0    0 -0.77641274354E-01 -0.61688051820E-01  0.10245180371E+01  0.10293061026E+01  0.51100000000E-03 0.  1.
    9000002    1    1    2    0    0  0.24404003032E-01 -0.21007869809E+00  0.42309520665E-01  0.96247738171E+00  0.93800000000E+00 0. -1.
         22    1    1    2    0    0  0.53237271322E-01  0.27176674991E+00  0.29331724096E+01  0.29462165157E+01  0.00000000000E+00 0.  1.
</event>
<event>
 5    1  0.3005426E+001  0.1570049E+01  0.7818608E-02  0.3386527E+00
         11   -1    0    0    0    0  0.00000000000E+00  0.00000000000E+00  0.39999999674E+01  0.40000000000E+01  0.51100000000E-03 0.  1.
    9000002   -1    0    0    0    0 -0.00000000000E+00 -0.00000000000E+00  0.00000000000E+00  0.93800000000E+00  0.93800000000E+00 0. -1.
         11    1    1    2    0    0  0.12914229910E+00 -0.12965125496E+00  0.79152629542E+00  0.81240465212E+00  0.51100000000E-03 0.  1.
    9000002    1    1    2    0    0 -0.31784153685E+00 -0.12076978233E+00  0.10153770117E+00  0.10028771049E+01  0.93800000000E+00 0. -1.
         22    1    1    2    0    0  0.18869923775E+00  0.25042103729E+00  0.31069359708E+01  0.31227182429E+01  0.00000000000E+00 0.  1.
</event>
<event>
 5    1  0.3005426E+001  0.1599677E+01  0.7818608E-02  0.3353714E+00
         11   -1    0    0    0    0  0.00000000000E+00  0.00000000000E+00  0.39999999674E+01  0.40000000000E+01  0.51100000000E-03 0.  1.
    9000002   -1    0    0    0    0 -0.00000000000E+00 -0.00000000000E+00  0.00000000000E+00  0.93800000000E+00  0.93800000000E+00 0. -1.
         11    1    1    2    0    0  0.25086226964E+00 -0.10648870506E-01  0.11649970175E+01  0.11917481230E+01  0.51100000000E-03 0. -1.
    9000002    1    1    2    0    0 -0.76873647731E+00  0.32994711368E-01  0.43177516345E+00  0.12877570479E+01  0.93800000000E+00 0. -1.
         22    1    1    2    0    0  0.51787420766E+00 -0.22345840862E-01  0.24032277864E+01  0.24584948291E+01  0.00000000000E+00 0.  1.
</event>
<event>
 5    1  0.3005426E+001  0.1599624E+01  0.7818608E-02  0.3353772E+00
         11   -1    0    0    0    0  0.00000000000E+00  0.00000000000E+00  0.39999999674E+01  0.40000000000E+01  0.51100000000E-03 0.  1.
    9000002   -1    0    0    0    0 -0.00000000000E+00 -0.00000000000E+00  0.00000000000E+00  0.93800000000E+00  0.93800000000E+00 0.  1.
         11    1    1    2    0    0 -0.19406087386E-01  0.28568574038E-01  0.35084643039E+00  0.35254253429E+00  0.51100000000E-03 0.  1.
    9000002    1    1    2    0    0  0.25423022866E+00 -0.27749852476E+00  0.95301737136E-01  0.10151674057E+01  0.93800000000E+00 0.  1.
         22    1    1    2    0    0 -0.23482414127E+00  0.24892995072E+00  0.35538517998E+01  0.35702900601E+01  0.00000000000E+00 0.  1.
</event>
<event>
 5    1  0.3005426E+001  0.1599677E+01  0.7818608E-02  0.3353714E+00
         11   -1    0    0    0    0  0.00000000000E+00  0.00000000000E+00  0.39999999674E+01  0.40000000000E+01  0.51100000000E-03 0.  1.
    9000002   -1    0    0    0    0 -0.00000000000E+00 -0.00000000000E+00  0.00000000000E+00  0.93800000000E+00  0.93800000000E+00 0.  1.
         11    1    1    2    0    0 -0.55293878778E-01  0.16310038851E+00  0.12393621355E+01  0.12512705199E+01  0.51100000000E-03 0.  1.
    9000002    1    1    2    0    0  0.17188675930E+00 -0.50166590577E+00  0.19352670252E+00  0.10947649627E+01  0.93800000000E+00 0.  1.
         22    1    1    2    0    0 -0.11659288052E+00  0.33856551727E+00  0.25671111293E+01  0.25919645174E+01  0.00000000000E+00 0.  1.
</event>
<event>
 5    1  0.3005426E+001  0.1598477E+01  0.7818608E-02  0.3355018E+00
         11   -1    0    0    0    0  0.00000000000E+00  0.00000000000E+00  0.39999999674E+01  0.40000000000E+01  0.51100000000E-03 0.  1.
    9000002   -1    0    0    0    0 -0.00000000000E+00 -0.00000000000E+00  0.00000000000E+00  0.93800000000E+00  0.93800000000E+00 0.  1.
         11    1    1    2    0    0 -0.95222841062E-02 -0.55202254558E-01  0.30414444783E+00  0.30926051974E+00  0.51100000000E-03 0.  1.
    9000002    1    1    2    0    0  0.25982834546E-01  0.43081549430E+00  0.12720409663E+00  0.10403374357E+01  0.93800000000E+00 0.  1.
         22    1    1    2    0    0 -0.16460550440E-01 -0.37561323974E+00  0.35686514229E+01  0.35884020446E+01  0.00000000000E+00 0.  1.
</event>
<event>
 5    1  0.3005426E+001  0.1599676E+01  0.7818608E-02  0.3353715E+00
         11   -1    0    0    0    0  0.00000000000E+00  0.00000000000E+00  0.39999999674E+01  0.40000000000E+01  0.51100000000E-03 0.  1.
    9000002   -1    0    0    0    0 -0.00000000000E+00 -0.00000000000E+00  0.00000000000E+00  0.93800000000E+00  0.93800000000E+00 0. -1.
         11    1    1    2    0    0 -0.12633313387E+00 -0.67248976227E-01  0.14086086440E+01  0.14158605364E+01  0.51100000000E-03 0.  1.
    9000002    1    1    2    0    0  0.35217960354E+00  0.18710921408E+00  0.10726025494E+00  0.10248849172E+01  0.93800000000E+00 0. -1.
         22    1    1    2    0    0 -0.22584646967E+00 -0.11986023785E+00  0.24841310684E+01  0.24972545464E+01  0.00000000000E+00 0.  1.
</event>
<event>
 5    1  0.3005426E+001  0.1576426E+01  0.7818608E-02  0.3379354E+00
         11   -1    0    0    0    0  0.00000000000E+00  0.00000000000E+00  0.39999999674E+01  0.40000000000E+01  0.51100000000E-03 0.  1.
    9000002   -1    0    0    0    0 -0.00000000000E+00 -0.00000000000E+00  0.00000000000E+00  0.93800000000E+00  0.93800000000E+00 0.  1.
         11    1    1    2    0    0  0.12090391985E+00 -0.39022959839E-01  0.12337404249E+01  0.12402645872E+01  0.51100000000E-03 0.  1.
    9000002    1    1    2    0    0  0.15530137641E+00  0.77520288646E-01  0.37394011287E-01  0.95465712418E+00  0.93800000000E+00 0.  1.
         22    1    1    2    0    0 -0.27620529626E+00 -0.38497328807E-01  0.27288655312E+01  0.27430782886E+01  0.00000000000E+00 0.  1.
</event>
<event>
 5    1  0.3005426E+001  0.1596856E+01  0.7818608E-02  0.3356783E+00
         11   -1    0    0    0    0  0.00000000000E+00  0.00000000000E+00  0.39999999674E+01  0.40000000000E+01  0.51100000000E-03 0. -1.
    9000002   -1    0    0    0    0 -0.00000000000E+00 -0.00000000000E+00  0.00000000000E+00  0.93800000000E+00  0.93800000000E+00 0. -1.
         11    1    1    2    0    0 -0.27905575071E-02  0.64530178622E-02  0.25013042578E+00  0.25022973379E+00  0.51100000000E-03 0. -1.
    9000002    1    1    2    0    0 -0.30154073861E+00  0.24508201615E+00  0.10403265776E+00  0.10206168750E+01  0.93800000000E+00 0. -1.
         22    1    1    2    0    0  0.30433129612E+00 -0.25153503401E+00  0.36458368838E+01  0.36671533912E+01  0.00000000000E+00 0. -1.
</event>
<event>
 5    1  0.3005426E+001  0.1598677E+01  0.7818608E-02  0.3354801E+00
         11   -1    0    0    0    0  0.00000000000E+00  0.00000000000E+00  0.39999999674E+01  0.40000000000E+01  0.51100000000E-03 0.  1.
    9000002   -1    0    0    0    0 -0.00000000000E+00 -0.00000000000E+00  0.00000000000E+00  0.93800000000E+00  0.93800000000E+00 0.  1.
         11    1    1    2    0    0 -0.39001829320E-01 -0.12726731263E+00  0.96762131973E+00  0.97673404316E+00  0.51100000000E-03 0.  1.
    9000002    1    1    2    0    0  0.21172056304E+00  0.38877175165E+00  0.13381635008E+00  0.10458106364E+01  0.93800000000E+00 0.  1.
         22    1    1    2    0    0 -0.17271873372E+00 -0.26150443901E+00  0.28985622975E+01  0.29154553204E+01  0.00000000000E+00 0.  1.
</event>
<event>
 5    1  0.3005426E+001  0.1599388E+01  0.7818608E-02  0.3354028E+00
         11   -1    0    0    0    0  0.00000000000E+00  0.00000000000E+00  0.39999999674E+01  0.40000000000E+01  0.51100000000E-03 0. -1.
    9000002   -1    0    0    0    0 -0.00000000000E+00 -0.00000000000E+00  0.00000000000E+00  0.93800000000E+00  0.93800000000E+00 0.  1.
         11    1    1    2    0    0 -0.88686455037E-01  0.99149257411E-01  0.13589975721E+01  0.13654927773E+01  0.51100000000E-03 0. -1.
    9000002    1    1    2    0    0  0.20693320933E+00 -0.31391793834E+00  0.95307367995E-01  0.10150336544E+01  0.93800000000E+00 0.  1.
         22    1    1    2    0    0 -0.11824675429E+00  0.21476868092E+00  0.25456950272E+01  0.25574735684E+01  0.00000000000E+00 0. -1.
</event>
<event>
 5    1  0.3005426E+001  0.1510993E+01  0.7818608E-02  0.3456021E+00
         11   -1    0    0    0    0  0.00000000000E+00  0.00000000000E+00  0.39999999674E+01  0.40000000000E+01  0.51100000000E-03 0. -1.
    9000002   -1    0    0    0    0 -0.00000000000E+00 -0.00000000000E+00  0.00000000000E+00  0.93800000000E+00  0.93800000000E+00 0. -1.
         11    1    1    2    0    0  0.63458550537E-02  0.29209109834E+00  0.11143629543E+01  0.11520254053E+01  0.51100000000E-03 0. -1.
    9000002    1    1    2    0    0 -0.20951786964E+00  0.97115428863E-01  0.10591995583E+00  0.97179842625E+00  0.93800000000E+00 0. -1.
         22    1    1    2    0    0  0.20317201458E+00 -0.38920652720E+00  0.27797170573E+01  0.28141761684E+01  0.00000000000E+00 0. -1.
</event>
<event>
 5    1  0.3005426E+001  0.1599676E+01  0.7818608E-02  0.3353715E+00
         11   -1    0    0    0    0  0.00000000000E+00  0.00000000000E+00  0.39999999674E+01  0.40000000000E+01  0.51100000000E-03 0.  1.
    9000002   -1    0    0    0    0 -0.00000000000E+00 -0.00000000000E+00  0.00000000000E+00  0.93800000000E+00  0.93800000000E+00 0.  1.
         11    1    1    2    0    0  0.14726104309E+00  0.15323314247E+00  0.13077601671E+01  0.13249162715E+01  0.51100000000E-03 0.  1.
    9000002    1    1    2    0    0 -0.41881934222E+00 -0.44078068454E+00  0.25838549113E+00  0.11473030617E+01  0.93800000000E+00 0.  1.
         22    1    1    2    0    0  0.27155829913E+00  0.28754754207E+00  0.24338543091E+01  0.24657806668E+01  0.00000000000E+00 0.  1.
</event>
<event>
 5    1  0.3005426E+001  0.1599203E+01  0.7818608E-02  0.3354229E+00
         11   -1    0    0    0    0  0.00000000000E+00  0.00000000000E+00  0.39999999674E+01  0.40000000000E+01  0.51100000000E-03 0. -1.
    9000002   -1    0    0    0    0 -0.00000000000E+00 -0.00000000000E+00  0.00000000000E+00  0.93800000000E+00  0.93800000000E+00 0. -1.
         11    1    1    2    0    0 -0.31195223923E-01 -0.64639632017E-01  0.41591119716E+00  0.42205901136E+00  0.51100000000E-03 0. -1.
    9000002    1    1    2    0    0  0.28679128391E+00  0.44112318282E+00  0.19081086886E+00  0.10922873663E+01  0.93800000000E+00 0. -1.
         22    1    1    2    0    0 -0.25559605998E+00 -0.37648355081E+00  0.33932779013E+01  0.34236536223E+01  0.00000000000E+00 0. -1.
</event>
<event>
 5    1  0.3005426E+001  0.1599676E+01  0.7818608E-02  0.3353715E+00
         11   -1    0    0    0    0  0.00000000000E+00  0.00000000000E+00  0.39999999674E+01  0.40000000000E+01  0.51100000000E-03 0. -1.
    9000002   -1    0    0    0    0 -0.00000000000E+00 -0.00000000000E+00  0.00000000000E+00  0.93800000000E+00  0.93800000000E+00 0.  1.
         11    1    1    2    0    0  0.43630674168E-01  0.46722751831E-02  0.48658426056E+00  0.48855907487E+00  0.51100000000E-03 0. -1.
    9000002    1    1    2    0    0 -0.35444154059E+00 -0.42494945991E-01  0.85513677030E-01  0.10072691870E+01  0.93800000000E+00 0.  1.
         22    1    1    2    0    0  0.31081086642E+00  0.37822670807E-01  0.34279020298E+01  0.34421717381E+01  0.00000000000E+00 0. -1.
</event>
<event>
 5    1  0.3005426E+001  0.1596202E+01  0.7818608E-02  0.3357496E+00
         11   -1    0    0    0    0  0.00000000000E+00  0.00000000000E+00  0.39999999674E+01  0.40000000000E+01  0.51100000000E-03 0.  1.
    9000002   -1    0    0    0    0 -0.00000000000E+00 -0.00000000000E+00  0.00000000000E+00  0.93800000000E+00  0.93800000000E+00 0.  1.
         11    1    1    2    0    0  0.22173732900E+00  0.33070786182E-01  0.11100859937E+01  0.11324982536E+01  0.51100000000E-03 0.  1.
    9000002    1    1    2    0    0 -0.54214112748E+00 -0.18049087493E+00  0.22981008845E+00  0.11221188149E+01  0.93800000000E+00 0.  1.
         22    1    1    2    0    0  0.32040379847E+00  0.14742008875E+00  0.26601038853E+01  0.26833829315E+01  0.00000000000E+00 0.  1.
</event>
<event>
 5    1  0.3005426E+001  0.1599677E+01  0.7818608E-02  0.3353714E+00
         11   -1    0    0    0    0  0.00000000000E+00  0.00000000000E+00  0.39999999674E+01  0.40000000000E+01  0.51100000000E-03 0. -1.
    9000002   -1    0    0    0    0 -0.00000000000E+00 -0.00000000000E+00  0.00000000000E+00  0.93800000000E+00  0.93800000000E+00 0. -1.
         11    1    1    2    0    0  0.24953142634E-01 -0.62928243724E-01  0.69488962380E+00  0.69817939927E+00  0.51100000000E-03 0.  1.
    9000002    1    1    2    0    0 -0.13987415785E+00  0.35217233594E+00  0.96600924747E-01  0.10162508907E+01  0.93800000000E+00 0. -1.
         22    1    1    2    0    0  0.11492101521E+00 -0.28924409222E+00  0.32085094188E+01  0.32235697100E+01  0.00000000000E+00 0. -1.
</event>
<event>
 5    1  0.3005426E+001  0.1599675E+01  0.7818608E-02  0.3353716E+00
         11   -1    0    0    0    0  0.00000000000E+00  0.00000000000E+00  0.39999999674E+01  0.40000000000E+01  0.51100000000E-03 0.  1.
    9000002   -1    0    0    0    0 -0.00000000000E+00 -0.00000000000E+00  0.00000000000E+00  0.93800000000E+00  0.93800000000E+00 0. -1.
         11    1    1    2    0    0  0.89679554000E-01  0.35780669989E-01  0.10242619911E+01  0.10288029773E+01  0.51100000000E-03 0.  1.
    9000002    1    1    2    0    0 -0.33772446780E+00 -0.13528624098E+00  0.88888407592E-01  0.10100026397E+01  0.93800000000E+00 0. -1.
         22    1    1    2    0    0  0.24804491380E+00  0.99505570988E-01  0.28868495687E+01  0.28991943830E+01  0.00000000000E+00 0.  1.
</event>
<event>
 5    1  0.3005426E+001  0.1598081E+01  0.7818608E-02  0.3355449E+00
         11   -1    0    0    0    0  0.00000000000E+00  0.00000000000E+00  0.39999999674E+01  0.40000000000E+01  0.51100000000E-03 0. -1.
    9000002   -1    0    0    0    0 -0.00000000000E+00 -0.00000000000E+00  0.00000000000E+00  0.93800000000E+00  0.93800000000E+00 0. -1.
         11    1    1    2    0    0  0.41385908597E-01  0.73394798309E-01  0.57772523109E+00  0.58383755755E+00  0.51100000000E-03 0. -1.
    9000002    1    1    2    0    0 -0.28647343901E+00 -0.26377714021E+00  0.10347078227E+00  0.10208798234E+01  0.93800000000E+00 0. -1.
         22    1    1    2    0    0  0.24508753041E+00  0.19038234190E+00  0.33188039540E+01  0.33332826191E+01  0.00000000000E+00 0. -1.
</event>
<event>
 5    1  0.3005426E+001  0.1599675E+01  0.7818608E-02  0.3353716E+00
         11   -1    0    0    0    0  0.00000000000E+00  0.00000000000E+00  0.39999999674E+01  0.40000000000E+01  0.51100000000E-03 0. -1.
    9000002   -1    0    0    0    0 -0.00000000000E+00 -0.00000000000E+00  0.00000000000E+00  0.93800000000E+00  0.93800000000E+00 0.  1.
         11    1    1    2    0    0  0.17637219656E+00 -0.13342315360E+00  0.12265014433E+01  0.12462804424E+01  0.51100000000E-03 0. -1.
    9000002    1    1    2    0    0 -0.52964006777E+00  0.40567296864E+00  0.31539964079E+00  0.11934865279E+01  0.93800000000E+00 0.  1.
         22    1    1    2    0    0  0.35326787121E+00 -0.27224981504E+00  0.24580988833E+01  0.24982330297E+01  0.00000000000E+00 0. -1.
</event>
<event>
 5    1  0.3005426E+001  0.1595904E+01  0.7818608E-02  0.3357821E+00
         11   -1    0    0    0    0  0.00000000000E+00  0.00000000000E+00  0.39999999674E+01  0.40000000000E+01  0.51100000000E-03 0. -1.
    9000002   -1    0    0    0    0 -0.00000000000E+00 -0.00000000000E+00  0.00000000000E+00  0.93800000000E+00  0.93800000000E+00 0.  1.
         11    1    1    2    0    0 -0.80760852459E-02  0.34608234270E-02  0.97160286594E+00  0.97164272790E+00  0.51100000000E-03 0. -1.
    9000002    1    1    2    0    0  0.10996771173E+00 -0.26111703708E+00  0.56406046767E-01  0.98147880608E+00  0.93800000000E+00 0.  1.
         22    1    1    2    0    0 -0.10189162649E+00  0.25765621365E+00  0.29719910547E+01  0.29848784660E+01  0.00000000000E+00 0. -1.
</event>
<event>
 5    1  0.3005426E+001  0.1599539E+01  0.7818608E-02  0.3353864E+00
         11   -1    0    0    0    0  0.00000000000E+00  0.00000000000E+00  0.39999999674E+01  0.40000000000E+01  0.51100000000E-03 0.  1.
    9000002   -1    0    0    0    0 -0.00000000000E+00 -0.00000000000E+00  0.00000000000E+00  0.93800000000E+00  0.93800000000E+00 0. -1.
         11    1    1    2    0    0  0.62221293626E-01  0.64142339667E-01  0.89725299891E+00  0.90169226141E+00  0.51100000000E-03 0.  1.
    9000002    1    1    2    0    0 -0.23244188734E+00 -0.31386541310E+00  0.10288312927E+00  0.10212588638E+01  0.93800000000E+00 0. -1.
         22    1    1    2    0    0  0.17022059371E+00  0.24972307343E+00  0.29998638392E+01  0.30150488748E+01  0.00000000000E+00 0.  1.
</event>
<event>
 5    1  0.3005426E+001  0.1599556E+01  0.7818608E-02  0.3353846E+00
         11   -1    0    0    0    0  0.00000000000E+00  0.00000000000E+00  0.39999999674E+01  0.40000000000E+01  0.51100000000E-03 0.  1.
    9000002   -1    0    0    0    0 -0.00000000000E+00 -0.00000000000E+00  0.00000000000E+00  0.93800000000E+00  0.93800000000E+00 0.  1.
         11    1    1    2    0    0  0.48456040997E-01  0.10337076352E-01  0.59378256096E+00  0.59584631733E+00  0.51100000000E-03 0.  1.
    9000002    1    1    2    0    0 -0.37434731003E+00 -0.39279577604E-01  0.95385100569E-01  0.10151951099E+01  0.93800000000E+00 0.  1.
         22    1    1    2    0    0  0.32589126904E+00  0.28942501252E-01  0.33108323058E+01  0.33269585728E+01  0.00000000000E+00 0.  1.
</event>
<event>
 5    1  0.3005426E+001  0.1598662E+01  0.7818608E-02  0.3354817E+00
         11   -1    0    0    0    0  0.00000000000E+00  0.00000000000E+00  0.39999999674E+01  0.40000000000E+01  0.51100000000E-03 0.  1.
    9000002   -1    0    0    0    0 -0.00000000000E+00 -0.00000000000E+00  0.00000000000E+00  0.93800000000E+00  0.93800000000E+00 0.  1.
         11    1    1    2    0    0 -0.72905252879E-01 -0.73007243852E-01  0.77320649773E+00  0.78006011487E+00  0.51100000000E-03 0.  1.
    9000002    1    1    2    0    0  0.33145554813E+00  0.21717385668E+00  0.10671026334E+00  0.10238448831E+01  0.93800000000E+00 0.  1.
         22    1    1    2    0    0 -0.25855029525E+00 -0.14416661283E+00  0.31200832063E+01  0.31340950020E+01  0.00000000000E+00 0.  1.
</event>
<event>
 5    1  0.3005426E+001  0.1595682E+01  0.7818608E-02  0.3358063E+00
         11   -1    0    0    0    0  0.00000000000E+00  0.00000000000E+00  0.39999999674E+01  0.40000000000E+01  0.51100000000E-03 0. -1.
    9000002   -1    0    0    0    0 -0.00000000000E+00 -0.00000000000E+00  0.00000000000E+00  0.93800000000E+00  0.93800000000E+00 0. -1.
         11    1    1    2    0    0  0.17157678038E+00  0.19830064773E+00  0.12550519299E+01  0.12821534021E+01  0.51100000000E-03 0. -1.
    9000002    1    1    2    0    0 -0.43317219277E+00 -0.39206228494E+00  0.24128945018E+00  0.11311125420E+01  0.93800000000E+00 0. -1.
         22    1    1    2    0    0  0.26159541238E+00  0.19376163721E+00  0.25036585872E+01  0.25247340559E+01  0.00000000000E+00 0. -1.
</event>
<event>
 5    1  0.3005426E+001  0.1599664E+01  0.7818608E-02  0.3353728E+00
         11   -1    0    0    0    0  0.00000000000E+00  0.00000000000E+00  0.39999999674E+01  0.40000000000E+01  0.51100000000E-03 0.  1.
    9000002   -1    0    0    0    0 -0.00000000000E+00 -0.00000000000E+00  0.00000000000E+00  0.93800000000E+00  0.93800000000E+00 0. -1.
         11    1    1    2    0    0  0.57556824318E-01  0.11257578548E+00  0.13126599227E+01  0.13187351626E+01  0.51100000000E-03 0.  1.
    9000002    1    1    2    0    0 -0.16997966631E+00 -0.32338446509E+00  0.89658902762E-01  0.10106202640E+01  0.93800000000E+00 0. -1.
         22    1    1    2    0    0  0.11242284199E+00  0.21080867961E+00  0.25976811419E+01  0.26086445733E+01  0.00000000000E+00 0.  1.
</event>
<event>
 5    1  0.3005426E+001  0.1598740E+01  0.7818608E-02  0.3354732E+00
         11   -1    0    0    0    0  0.00000000000E+00  0.00000000000E+00  0.39999999674E+01  0.40000000000E+01  0.51100000000E-03 0. -1.
    9000002   -1    0    0    0    0 -0.00000000000E+00 -0.00000000000E+00  0.00000000000E+00  0.93800000000E+00  0.93800000000E+00 0. -1.
         11    1    1    2    0    0  0.18829366069E+00 -0.10544778902E+00  0.79275393328E+00  0.82160379668E+00  0.51100000000E-03 0. -1.
    9000002    1    1    2    0    0 -0.68840438720E+00  0.48659569308E+00  0.53290321786E+00  0.13691259286E+01  0.93800000000E+00 0. -1.
         22    1    1    2    0    0  0.50011072650E+00 -0.38114790406E+00  0.26743428162E+01  0.27472702747E+01  0.00000000000E+00 0. -1.
</event>
<event>
 5    1  0.3005426E+001  0.1599677E+01  0.7818608E-02  0.3353714E+00
         11   -1    0    0    0    0  0.00000000000E+00  0.00000000000E+00  0.39999999674E+01  0.40000000000E+01  0.51100000000E-03 0.  1.
    9000002   -1    0    0    0    0 -0.00000000000E+00 -0.00000000000E+00  0.00000000000E+00  0.93800000000E+00  0.93800000000E+00 0. -1.
         11    1    1    2    0    0  0.51485683989E-01  0.10393248695E+00  0.12217689546E+01  0.12272621468E+01  0.51100000000E-03 0. -1.
    9000002    1    1    2    0    0 -0.16402464064E+00 -0.33206111827E+00  0.92186627910E-01  0.10126751914E+01  0.93800000000E+00 0. -1.
         22    1    1    2    0    0  0.11253895665E+00  0.22812863132E+00  0.26860443849E+01  0.26980626617E+01  0.00000000000E+00 0.  1.
</event>
<event>
 5    1  0.3005426E+001  0.1591959E+01  0.7818608E-02  0.3362138E+00
         11   -1    0    0    0    0  0.00000000000E+00  0.00000000000E+00  0.39999999674E+01  0.40000000000E+01  0.51100000000E-03 0. -1.
    9000002   -1    0    0    0    0 -0.00000000000E+00 -0.00000000000E+00  0.00000000000E+00  0.93800000000E+00  0.93800000000E+00 0.  1.
         11    1    1    2    0    0  0.39754976252E-01  0.21269504357E-01  0.11818252508E+01  0.11826850952E+01  0.51100000000E-03 0. -1.
    9000002    1    1    2    0    0 -0.44259069896E+00 -0.38842338759E-02  0.13956727303E+00  0.10465298074E+01  0.93800000000E+00 0.  1.
         22    1    1    2    0    0  0.40283572271E+00 -0.17385270482E-01  0.26786074435E+01  0.27087850973E+01  0.00000000000E+00 0. -1.
</event>
<event>
 5    1  0.3005426E+001  0.1599060E+01  0.7818608E-02  0.3354384E+00
         11   -1    0    0    0    0  0.00000000000E+00  0.00000000000E+00  0.39999999674E+01  0.40000000000E+01  0.51100000000E-03 0.  1.
    9000002   -1    0    0    0    0 -0.00000000000E+00 -0.00000000000E+00  0.00000000000E+00  0.93800000000E+00  0.93800000000E+00 0. -1.
         11    1    1    2    0    0 -0.75747524802E-02  0.79241807773E-02  0.21232758171E+00  0.21261098887E+00  0.51100000000E-03 0.  1.
    9000002    1    1    2    0    0  0.16332444493E-01 -0.36301075227E+00  0.89171008084E-01  0.10098707955E+01  0.93800000000E+00 0. -1.
         22    1    1    2    0    0 -0.87576920126E-02  0.35508657150E+00  0.36985013776E+01  0.37155182156E+01  0.00000000000E+00 0.  1.
</event>
<event>
 5    1  0.3005426E+001  0.1599676E+01  0.7818608E-02  0.3353716E+00
         11   -1    0    0    0    0  0.00000000000E+00  0.00000000000E+00  0.39999999674E+01  0.40000000000E+01  0.51100000000E-03 0. -1.
    9000002   -1    0    0    0    0 -0.00000000000E+00 -0.00000000000E+00  0.00000000000E+00  0.93800000000E+00  0.93800000000E+00 0.  1.
         11    1    1    2    0    0 -0.20959969949E-01  0.27565560662E-01  0.38913290494E+00  0.39067103720E+00  0.51100000000E-03 0. -1.
    9000002    1    1    2    0    0  0.21828973101E+00 -0.27829421481E+00  0.83915027266E-01  0.10059740595E+01  0.93800000000E+00 0.  1.
         22    1    1    2    0    0 -0.19732976106E+00  0.25072865415E+00  0.35269520352E+01  0.35413549033E+01  0.00000000000E+00 0. -1.
</event>
<event>
 5    1  0.3005426E+001  0.1598539E+01  0.7818608E-02  0.3354950E+00
         11   -1    0    0    0    0  0.00000000000E+00  0.00000000000E+00  0.39999999674E+01  0.40000000000E+01  0.51100000000E-03 0.  1.
    9000002   -1    0    0    0    0 -0.00000000000E+00 -0.00000000000E+00  0.00000000000E+00  0.93800000000E+00  0.93800000000E+00 0.  1.
         11    1    1    2    0    0  0.76364003392E-01 -0.20600283782E-01  0.11386439407E+01  0.11413878033E+01  0.51100000000E-03 0.  1.
    9000002    1    1    2    0    0 -0.37383225592E+00  0.10971764364E-01  0.94973559897E-01  0.10142657010E+01  0.93800000000E+00 0.  1.
         22    1    1    2    0    0  0.29746825252E+00  0.96285194181E-02  0.27663824668E+01  0.27823464957E+01  0.00000000000E+00 0.  1.
</event>
<event>
 5    1  0.3005426E+001  0.1593698E+01  0.7818608E-02  0.3360232E+00
         11   -1    0    0    0    0  0.00000000000E+00  0.00000000000E+00  0.39999999674E+01  0.40000000000E+01  0.51100000000E-03 0.  1.
    9000002   -1    0    0    0    0 -0.00000000000E+00 -0.00000000000E+00  0.00000000000E+00  0.93800000000E+00  0.93800000000E+00 0. -1.
         11    1    1    2    0    0 -0.22434668364E-01 -0.22513761108E-01  0.97810726558E+00  0.97862365999E+00  0.51100000000E-03 0.  1.
    9000002    1    1    2    0    0  0.31745898796E+00 -0.13888215632E+00  0.85296095516E-01  0.10035875080E+01  0.93800000000E+00 0. -1.
         22    1    1    2    0    0 -0.29502431959E+00  0.16139591742E+00  0.29365966063E+01  0.29557888320E+01  0.00000000000E+00 0.  1.
</event>
<event>
 5    1  0.3005426E+001  0.1598537E+01  0.7818608E-02  0.3354953E+00
         11   -1    0    0    0    0  0.00000000000E+00  0.00000000000E+00  0.39999999674E+01  0.40000000000E+01  0.51100000000E-03 0.  1.
    9000002   -1    0    0    0    0 -0.00000000000E+00 -0.00000000000E+00  0.00000000000E+00  0.93800000000E+00  0.93800000000E+00 0. -1.
         11    1    1    2    0    0 -0.12802091749E+00 -0.16912687878E+00  0.86191497927E+00  0.88763221497E+00  0.51100000000E-03 0.  1.
    9000002    1    1    2    0    0  0.60121797470E+00  0.56938681219E+00  0.51161203750E+00  0.13517600645E+01  0.93800000000E+00 0. -1.
         22    1    1    2    0    0 -0.47319705721E+00 -0.40025993341E+00  0.26264729506E+01  0.26986077206E+01  0.00000000000E+00 0.  1.
</event>
<event>
 5    1  0.3005426E+001  0.1599673E+01  0.7818608E-02  0.3353718E+00
         11   -1    0    0    0    0  0.00000000000E+00  0.00000000000E+00  0.39999999674E+01  0.40000000000E+01  0.51100000000E-03 0.  1.
    9000002   -1    0    0    0    0 -0.00000000000E+00 -0.00000000000E+00  0.00000000000E+00  0.93800000000E+00  0.93800000000E+00 0. -1.
         11    1    1    2    0    0 -0.10532876154E+00  0.27050055352E-02  0.65238760343E+00  0.66084136621E+00  0.51100000000E-03 0.  1.
    9000002    1    1    2    0    0  0.59838658658E+00 -0.82718551571E-02  0.24979115677E+00  0.11403396654E+01  0.93800000000E+00 0. -1.
         22    1    1    2    0    0 -0.49305782504E+00  0.55668496218E-02  0.30978212072E+01  0.31368189683E+01  0.00000000000E+00 0.  1.
</event>
<event>
 5    1  0.3005426E+001  0.1599661E+01  0.7818608E-02  0.3353732E+00
         11   -1    0    0    0    0  0.00000000000E+00  0.00000000000E+00  0.39999999674E+01  0.40000000000E+01  0.51100000000E-03 0.  1.
    9000002   -1    0    0    0    0 -0.00000000000E+00 -0.00000000000E+00  0.00000000000E+00  0.93800000000E+00  0.93800000000E+00 0.  1.
         11    1    1    2    0    0  0.10231049185E+00  0.88270537844E-01  0.14817151264E+01  0.14878639392E+01  0.51100000000E-03 0.  1.
    9000002    1    1    2    0    0 -0.26365155828E+00 -0.24369223718E+00  0.86527937478E-01  0.10080819087E+01  0.93800000000E+00 0.  1.
         22    1    1    2    0    0  0.16134106643E+00  0.15542169933E+00  0.24317569035E+01  0.24420541521E+01  0.00000000000E+00 0.  1.
</event>
<event>
 5    1  0.3005426E+001  0.1599676E+01  0.7818608E-02  0.3353715E+00
         11   -1    0    0    0    0  0.00000000000E+00  0.00000000000E+00  0.39999999674E+01  0.40000000000E+01  0.51100000000E-03 0.  1.
    9000002   -1    0    0    0    0 -0.00000000000E+00 -0.00000000000E+00  0.00000000000E+00  0.93800000000E+00  0.93800000000E+00 0. -1.
         11    1    1    2    0    0  0.86509803521E-01  0.10394397301E+00  0.14352404831E+01  0.14415976557E+01  0.51100000000E-03 0.  1.
    9000002    1    1    2    0    0 -0.23321635278E+00 -0.28282784234E+00  0.90273966993E-01  0.10111255336E+01  0.93800000000E+00 0. -1.
         22    1    1    2    0    0  0.14670654926E+00  0.17888386933E+00  0.24744855173E+01  0.24852768107E+01  0.00000000000E+00 0. -1.
</event>
<event>
 5    1  0.3005426E+001  0.1589923E+01  0.7818608E-02  0.3364373E+00
         11   -1    0    0    0    0  0.00000000000E+00  0.00000000000E+00  0.39999999674E+01  0.40000000000E+01  0.51100000000E-03 0.  1.
    9000002   -1    0    0    0    0 -0.00000000000E+00 -0.00000000000E+00  0.00000000000E+00  0.93800000000E+00  0.93800000000E+00 0.  1.
         11    1    1    2    0    0 -0.42404290048E-01  0.22235711809E-01  0.28059035776E+00  0.28464672962E+00  0.51100000000E-03 0.  1.
    9000002    1    1    2    0    0  0.22890449274E+00  0.46642866515E+00  0.19441876837E+00  0.10897686103E+01  0.93800000000E+00 0.  1.
         22    1    1    2    0    0 -0.18650020269E+00 -0.48866437696E+00  0.35249908412E+01  0.35635846601E+01  0.00000000000E+00 0.  1.
</event>
<event>
 5    1  0.3005426E+001  0.1599670E+01  0.7818608E-02  0.3353721E+00
         11   -1    0    0    0    0  0.00000000000E+00  0.00000000000E+00  0.39999999674E+01  0.40000000000E+01  0.51100000000E-03 0.  1.
    9000002   -1    0    0    0    0 -0.00000000000E+00 -0.00000000000E+00  0.00000000000E+00  0.93800000000E+00  0.93800000000E+00 0. -1.
         11    1    1    2    0    0 -0.33857305349E-01  0.95749523315E-02  0.34680500797E+00  0.34858567313E+00  0.51100000000E-03 0.  1.
    9000002    1    1    2    0    0  0.36251375662E+00 -0.11273554456E+00  0.96974577164E-01  0.10165498489E+01  0.93800000000E+00 0. -1.
         22    1    1    2    0    0 -0.32865645127E+00  0.10316059223E+00  0.35562203822E+01  0.35728644779E+01  0.00000000000E+00 0.  1.
</event>
<event>
 5    1  0.3005426E+001  0.1599676E+01  0.7818608E-02  0.3353716E+00
         11   -1    0    0    0    0  0.00000000000E+00  0.00000000000E+00  0.39999999674E+01  0.40000000000E+01  0.51100000000E-03 0. -1.
    9000002   -1    0    0    0    0 -0.00000000000E+00 -0.00000000000E+00  0.00000000000E+00  0.93800000000E+00  0.93800000000E+00 0. -1.
         11    1    1    2    0    0  0.25272610891E-01  0.46730122642E-01  0.54642356538E+00  0.54900034895E+00  0.51100000000E-03 0.  1.
    9000002    1    1    2    0    0 -0.18277688438E+00 -0.32782886206E+00  0.94737214294E-01  0.10147405048E+01  0.93800000000E+00 0. -1.
         22    1    1    2    0    0  0.15750427349E+00  0.28109873942E+00  0.33588391877E+01  0.33742591463E+01  0.00000000000E+00 0. -1.
</event>
<event>
 5    1  0.3005426E+001  0.1579206E+01  0.7818608E-02  0.3376246E+00
         11   -1    0    0    0    0  0.00000000000E+00  0.00000000000E+00  0.39999999674E+01  0.40000000000E+01  0.51100000000E-03 0. -1.
    9000002   -1    0    0    0    0 -0.00000000000E+00 -0.00000000000E+00  0.00000000000E+00  0.93800000000E+00  0.93800000000E+00 0. -1.
         11    1    1    2    0    0  0.61657734951E-01 -0.16270405778E+00  0.64279970152E+00  0.66593243208E+00  0.51100000000E-03 0. -1.
    9000002    1    1    2    0    0 -0.47073711178E+00  0.20138111847E+00  0.19870591054E+00  0.10869571391E+01  0.93800000000E+00 0. -1.
         22    1    1    2    0    0  0.40907937683E+00 -0.38677060689E-01  0.31584943553E+01  0.31851104289E+01  0.00000000000E+00 0. -1.
</event>
<event>
 5    1  0.3005426E+001  0.1596469E+01  0.7818608E-02  0.3357205E+00
         11   -1    0    0    0    0  0.00000000000E+00  0.00000000000E+00  0.39999999674E+01  0.40000000000E+01  0.51100000000E-03 0.  1.
    9000002   -1    0    0    0    0 -0.00000000000E+00 -0.00000000000E+00  0.00000000000E+00  0.93800000000E+00  0.93800000000E+00 0.  1.
         11    1    1    2    0    0 -0.33938272131E-01  0.22142800903E-01  0.50878013676E+00  0.51039161301E+00  0.51100000000E-03 0.  1.
    9000002    1    1    2    0    0  0.29580369543E+00  0.18065063313E+00  0.83103821512E-01  0.10034364567E+01  0.93800000000E+00 0.  1.
         22    1    1    2    0    0 -0.26186542330E+00 -0.20279343403E+00  0.34081160091E+01  0.34241719303E+01  0.00000000000E+00 0.  1.
</event>
<event>
 5    1  0.3005426E+001  0.1596814E+01  0.7818608E-02  0.3356828E+00
         11   -1    0    0    0    0  0.00000000000E+00  0.00000000000E+00  0.39999999674E+01  0.40000000000E+01  0.51100000000E-03 0. -1.
    9000002   -1    0    0    0    0 -0.00000000000E+00 -0.00000000000E+00  0.00000000000E+00  0.93800000000E+00  0.93800000000E+00 0.  1.
         11    1    1    2    0    0  0.15784042589E+00  0.40036023659E-02  0.91745423070E+00  0.93094154243E+00  0.51100000000E-03 0. -1.
    9000002    1    1    2    0    0 -0.44009419542E+00 -0.77837775177E-01  0.13807057592E+00  0.10481646359E+01  0.93800000000E+00 0.  1.
         22    1    1    2    0    0  0.28225376954E+00  0.73834172811E-01  0.29444751607E+01  0.29588938216E+01  0.00000000000E+00 0. -1.
</event>
<event>
 5    1  0.3005426E+001  0.1599649E+01  0.7818608E-02  0.3353744E+00
         11   -1    0    0    0    0  0.00000000000E+00  0.00000000000E+00  0.39999999674E+01  0.40000000000E+01  0.51100000000E-03 0.  1.
    9000002   -1    0    0    0    0 -0.00000000000E+00 -0.00000000000E+00  0.00000000000E+00  0.93800000000E+00  0.93800000000E+00 0. -1.
         11    1    1    2    0    0 -0.69139972858E-01 -0.44137807154E-01  0.73314293177E+00  0.73771762985E+00  0.51100000000E-03 0.  1.
    9000002    1    1    2    0    0  0.36068347816E+00  0.20804768948E+00  0.11722129937E+00  0.10329381615E+01  0.93800000000E+00 0. -1.
         22    1    1    2    0    0 -0.29154350530E+00 -0.16390988232E+00  0.31496357362E+01  0.31673442086E+01  0.00000000000E+00 0.  1.
</event>
<event>
 5    1  0.3005426E+001  0.1595347E+01  0.7818608E-02  0.3358429E+00
         11   -1    0    0    0    0  0.00000000000E+00  0.00000000000E+00  0.39999999674E+01  0.40000000000E+01  0.51100000000E-03 0.  1.
    9000002   -1    0    0    0    0 -0.00000000000E+00 -0.00000000000E+00  0.00000000000E+00  0.93800000000E+00  0.93800000000E+00 0.  1.
         11    1    1    2    0    0 -0.15824596137E-01 -0.35035829781E-01  0.63308227480E+00  0.63424865392E+00  0.51100000000E-03 0.  1.
    9000002    1    1    2    0    0  0.28595675134E+00 -0.91509528402E-01  0.63535341373E-01  0.98692755409E+00  0.93800000000E+00 0.  1.
         22    1    1    2    0    0 -0.27013215521E+00  0.12654535818E+00  0.33033823512E+01  0.33168237920E+01  0.00000000000E+00 0.  1.
</event>
<event>
 5    1  0.3005426E+001  0.1559086E+01  0.7818608E-02  0.3399003E+00
         11   -1    0    0    0    0  0.00000000000E+00  0.00000000000E+00  0.39999999674E+01  0.40000000000E+01  0.51100000000E-03 0. -1.
    9000002   -1    0    0    0    0 -0.00000000000E+00 -0.00000000000E+00  0.00000000000E+00  0.93800000000E+00  0.93800000000E+00 0.  1.
         11    1    1    2    0    0 -0.15246644516E+00 -0.19900024854E+00  0.78652623497E+00  0.82551250459E+00  0.51100000000E-03 0. -1.
    9000002    1    1    2    0    0  0.47902266735E+00  0.39960184969E-01  0.19455954133E+00  0.10718007965E+01  0.93800000000E+00 0.  1.
         22    1    1    2    0    0 -0.32655622219E+00  0.15904006357E+00  0.30189141911E+01  0.30406866989E+01  0.00000000000E+00 0. -1.
</event>
<event>
 5    1  0.3005426E+001  0.1599647E+01  0.7818608E-02  0.3353746E+00
         11   -1    0    0    0    0  0.00000000000E+00  0.00000000000E+00  0.39999999674E+01  0.40000000000E+01  0.51100000000E-03 0. -1.
    9000002   -1    0    0    0    0 -0.00000000000E+00 -0.00000000000E+00  0.00000000000E+00  0.93800000000E+00  0.93800000000E+00 0. -1.
         11    1    1    2    0    0  0.39695391507E-01  0.11242991408E+00  0.67665054545E+00  0.68707527351E+00  0.51100000000E-03 0. -1.
    9000002    1    1    2    0    0 -0.21220872919E+00 -0.59120629249E+00  0.27702864212E+00  0.11623881854E+01  0.93800000000E+00 0. -1.
         22    1    1    2    0    0  0.17251333768E+00  0.47877637841E+00  0.30463207798E+01  0.30885365411E+01  0.00000000000E+00 0. -1.
</event>
<event>
 5    1  0.3005426E+001  0.1599675E+01  0.7818608E-02  0.3353716E+00
         11   -1    0    0    0    0  0.00000000000E+00  0.00000000000E+00  0.39999999674E+01  0.40000000000E+01  0.51100000000E-03 0. -1.
    9000002   -1    0    0    0    0 -0.00000000000E+00 -0.00000000000E+00  0.00000000000E+00  0.93800000000E+00  0.93800000000E+00 0. -1.
         11    1    1    2    0    0 -0.86742350430E-01 -0.12732452229E-02  0.84355111800E+00  0.84800035749E+00  0.51100000000E-03 0. -1.
    9000002    1    1    2    0    0  0.39666805228E+00  0.11158726714E-01  0.10617535143E+00  0.10240055010E+01  0.93800000000E+00 0. -1.
         22    1    1    2    0    0 -0.30992570185E+00 -0.98854814915E-02  0.30502734979E+01  0.30659941415E+01  0.00000000000E+00 0. -1.
</event>
<event>
 5    1  0.3005426E+001  0.1524656E+01  0.7818608E-02  0.3439432E+00
         11   -1    0    0    0    0  0.00000000000E+00  0.00000000000E+00  0.39999999674E+01  0.40000000000E+01  0.51100000000E-03 0.  1.
    9000002   -1    0    0    0    0 -0.00000000000E+00 -0.00000000000E+00  0.00000000000E+00  0.93800000000E+00  0.93800000000E+00 0. -1.
         11    1    1    2    0    0  0.93549649919E-01 -0.13269158831E+00  0.18042624014E+00  0.24271894005E+00  0.51100000000E-03 0.  1.
    9000002    1    1    2    0    0  0.21186360078E+00  0.44197859467E+00  0.23456600790E+00  0.10840186694E+01  0.93800000000E+00 0. -1.
         22    1    1    2    0    0 -0.30541325070E+00 -0.30928700635E+00  0.35850077193E+01  0.36112623906E+01  0.00000000000E+00 0.  1.
</event>
<event>
 5    1  0.3005426E+001  0.1599676E+01  0.7818608E-02  0.3353715E+00
         11   -1    0    0    0    0  0.00000000000E+00  0.00000000000E+00  0.39999999674E+01  0.40000000000E+01  0.51100000000E-03 0. -1.
    9000002   -1    0    0    0    0 -0.00000000000E+00 -0.00000000000E+00  0.00000000000E+00  0.93800000000E+00  0.93800000000E+00 0.  1.
         11    1    1    2    0    0  0.14412239420E-01  0.72510983239E-01  0.74393798464E+00  0.74760252906E+00  0.51100000000E-03 0. -1.
    9000002    1    1    2    0    0 -0.72478309435E-01 -0.37705154701E+00  0.99239263582E-01  0.10183876501E+01  0.93800000000E+00 0.  1.
         22    1    1    2    0    0  0.58066070015E-01  0.30454056377E+00  0.31568227191E+01  0.31720098208E+01  0.00000000000E+00 0. -1.
</event>
<event>
 5    1  0.3005426E+001  0.1599024E+01  0.7818608E-02  0.3354423E+00
         11   -1    0    0    0    0  0.00000000000E+00  0.00000000000E+00  0.39999999674E+01  0.40000000000E+01  0.51100000000E-03 0. -1.
    9000002   -1    0    0    0    0 -0.00000000000E+00 -0.00000000000E+00  0.00000000000E+00  0.93800000000E+00  0.93800000000E+00 0.  1.
         11    1    1    2    0    0 -0.19519927241E-01  0.85452435862E-01  0.12065286134E+01  0.12097085197E+01  0.51100000000E-03 0. -1.
    9000002    1    1    2    0    0  0.37994120567E-01 -0.36562918821E+00  0.91317554851E-01  0.10115884303E+01  0.93800000000E+00 0.  1.
         22    1    1    2    0    0 -0.18474193326E-01  0.28017675235E+00  0.27021537991E+01  0.27167030501E+01  0.00000000000E+00 0. -1.
</event>
<event>
 5    1  0.3005426E+001  0.1599672E+01  0.7818608E-02  0.3353719E+00
         11   -1    0    0    0    0  0.00000000000E+00  0.00000000000E+00  0.39999999674E+01  0.40000000000E+01  0.51100000000E-03 0. -1.
    9000002   -1    0    0    0    0 -0.00000000000E+00 -0.00000000000E+00  0.00000000000E+00  0.93800000000E+00  0.93800000000E+00 0. -1.
         11    1    1    2    0    0 -0.74135545371E-01  0.91972738322E-01  0.11100198223E+01  0.11162881933E+01  0.51100000000E-03 0. -1.
    9000002    1    1    2    0    0  0.25380976212E+00 -0.32814766511E+00  0.11631553158E+00  0.10322178008E+01  0.93800000000E+00 0. -1.
         22    1    1    2    0    0 -0.17967421675E+00  0.23617492678E+00  0.27736646135E+01  0.27894940058E+01  0.00000000000E+00 0. -1.
</event>
<event>
 5    1  0.3005426E+001  0.1595061E+01  0.7818608E-02  0.3358741E+00
         11   -1    0    0    0    0  0.00000000000E+00  0.00000000000E+00  0.39999999674E+01  0.40000000000E+01  0.51100000000E-03 0.  1.
    9000002   -1    0    0    0    0 -0.00000000000E+00 -0.00000000000E+00  0.00000000000E+00  0.93800000000E+00  0.93800000000E+00 0.  1.
         11    1    1    2    0    0  0.25899273812E-01  0.74057962784E-02  0.54945445764E-01  0.61195435562E-01  0.51100000000E-03 0.  1.
    9000002    1    1    2    0    0 -0.41790411547E+00 -0.25326707577E+00  0.16728507905E+00  0.10708017366E+01  0.93800000000E+00 0.  1.
         22    1    1    2    0    0  0.39200484166E+00  0.24586127949E+00  0.37777694425E+01  0.38060028279E+01  0.00000000000E+00 0.  1.
</event>
<event>
 5    1  0.3005426E+001  0.1596898E+01  0.7818608E-02  0.3356737E+00
         11   -1    0    0    0    0  0.00000000000E+00  0.00000000000E+00  0.39999999674E+01  0.40000000000E+01  0.51100000000E-03 0. -1.
    9000002   -1    0    0    0    0 -0.00000000000E+00 -0.00000000000E+00  0.00000000000E+00  0.93800000000E+00  0.93800000000E+00 0. -1.
         11    1    1    2    0    0 -0.12590507506E+00  0.11922925781E+00  0.10877407556E+01  0.11014753362E+01  0.51100000000E-03 0. -1.
    9000002    1    1    2    0    0  0.36540288913E+00 -0.23737849669E+00  0.13106704458E+00  0.10425403552E+01  0.93800000000E+00 0. -1.
         22    1    1    2    0    0 -0.23949781407E+00  0.11814923889E+00  0.27811921672E+01  0.27939843086E+01  0.00000000000E+00 0. -1.
</event>
<event>
 5    1  0.3005426E+001  0.1456861E+01  0.7818608E-02  0.3525056E+00
         11   -1    0    0    0    0  0.00000000000E+00  0.00000000000E+00  0.39999999674E+01  0.40000000000E+01  0.51100000000E-03 0. -1.
    9000002   -1    0    0    0    0 -0.00000000000E+00 -0.00000000000E+00  0.00000000000E+00  0.93800000000E+00  0.93800000000E+00 0. -1.
         11    1    1    2    0    0  0.19806871994E+00  0.39134474632E+00  0.11675766929E+01  0.12472439710E+01  0.51100000000E-03 0. -1.
    9000002    1    1    2    0    0 -0.25030165872E+00  0.37401097461E-01  0.16118190679E+00  0.98482149120E+00  0.93800000000E+00 0. -1.
         22    1    1    2    0    0  0.52232938774E-01 -0.42874584378E+00  0.26712413677E+01  0.27059345378E+01  0.00000000000E+00 0. -1.
</event>
<event>
 5    1  0.3005426E+001  0.1599665E+01  0.7818608E-02  0.3353727E+00
         11   -1    0    0    0    0  0.00000000000E+00  0.00000000000E+00  0.39999999674E+01  0.40000000000E+01  0.51100000000E-03 0.  1.
    9000002   -1    0    0    0    0 -0.00000000000E+00 -0.00000000000E+00  0.00000000000E+00  0.93800000000E+00  0.93800000000E+00 0. -1.
         11    1    1    2    0    0 -0.33595266216E-01 -0.19156027395E-01  0.20736039972E+00  0.21093646388E+00  0.51100000000E-03 0.  1.
    9000002    1    1    2    0    0  0.61621341739E+00  0.35485962656E+00  0.36247749825E+00  0.12316161200E+01  0.93800000000E+00 0. -1.
         22    1    1    2    0    0 -0.58261815117E+00 -0.33570359917E+00  0.34301620694E+01  0.34954474161E+01  0.00000000000E+00 0.  1.
</event>
<event>
 5    1  0.3005426E+001  0.1592346E+01  0.7818608E-02  0.3361713E+00
         11   -1    0    0    0    0  0.00000000000E+00  0.00000000000E+00  0.39999999674E+01  0.40000000000E+01  0.51100000000E-03 0. -1.
    9000002   -1    0    0    0    0 -0.00000000000E+00 -0.00000000000E+00  0.00000000000E+00  0.93800000000E+00  0.93800000000E+00 0.  1.
         11    1    1    2    0    0  0.34623337655E-01 -0.75204510851E-03  0.13661289999E+01  0.13665679810E+01  0.51100000000E-03 0. -1.
    9000002    1    1    2    0    0 -0.26486537562E+00 -0.22602779662E+00  0.87197778463E-01  0.10043354443E+01  0.93800000000E+00 0.  1.
         22    1    1    2    0    0  0.23024203797E+00  0.22677984173E+00  0.25466731890E+01  0.25670965748E+01  0.00000000000E+00 0. -1.
</event>
<event>
 5    1  0.3005426E+001  0.1599527E+01  0.7818608E-02  0.3353877E+00
         11   -1    0    0    0    0  0.00000000000E+00  0.00000000000E+00  0.39999999674E+01  0.40000000000E+01  0.51100000000E-03 0.  1.
    9000002   -1    0    0    0    0 -0.00000000000E+00 -0.00000000000E+00  0.00000000000E+00  0.93800000000E+00  0.93800000000E+00 0.  1.
         11    1    1    2    0    0  0.10994136764E-01  0.13891108312E-01  0.95376806506E-01  0.97009433941E-01  0.51100000000E-03 0.  1.
    9000002    1    1    2    0    0 -0.31307513627E+00 -0.41964560307E+00  0.18855355113E+00  0.10906488504E+01  0.93800000000E+00 0.  1.
         22    1    1    2    0    0  0.30208099950E+00  0.40575449476E+00  0.37160696097E+01  0.37503417157E+01  0.00000000000E+00 0.  1.
</event>
<event>
 5    1  0.3005426E+001  0.1599674E+01  0.7818608E-02  0.3353718E+00
         11   -1    0    0    0    0  0.00000000000E+00  0.00000000000E+00  0.39999999674E+01  0.40000000000E+01  0.51100000000E-03 0. -1.
    9000002   -1    0    0    0    0 -0.00000000000E+00 -0.00000000000E+00  0.00000000000E+00  0.93800000000E+00  0.93800000000E+00 0.  1.
         11    1    1    2    0    0  0.85415001164E-01  0.19631578108E+00  0.11060448797E+01  0.11265749622E+01  0.51100000000E-03 0. -1.
    9000002    1    1    2    0    0 -0.28771918361E+00 -0.64531611892E+00  0.35741424252E+00  0.12275195162E+01  0.93800000000E+00 0.  1.
         22    1    1    2    0    0  0.20230418245E+00  0.44900033783E+00  0.25365408451E+01  0.25839055216E+01  0.00000000000E+00 0. -1.
</event>
<event>
 5    1  0.3005426E+001  0.1592720E+01  0.7818608E-02  0.3361303E+00
         11   -1    0    0    0    0  0.00000000000E+00  0.00000000000E+00  0.39999999674E+01  0.40000000000E+01  0.51100000000E-03 0. -1.
    9000002   -1    0    0    0    0 -0.00000000000E+00 -0.00000000000E+00  0.00000000000E+00  0.93800000000E+00  0.93800000000E+00 0. -1.
         11    1    1    2    0    0  0.89987342041E-01 -0.66563521995E-01  0.39067815166E+00  0.40639648558E+00  0.51100000000E-03 0. -1.
    9000002    1    1    2    0    0 -0.34873356457E+00  0.36009867978E+00  0.17835716724E+00  0.10783976249E+01  0.93800000000E+00 0. -1.
         22    1    1    2    0    0  0.25874622253E+00 -0.29353515779E+00  0.34309646485E+01  0.34532058895E+01  0.00000000000E+00 0. -1.
</event>
<event>
 5    1  0.3005426E+001  0.1599342E+01  0.7818608E-02  0.3354078E+00
         11   -1    0    0    0    0  0.00000000000E+00  0.00000000000E+00  0.39999999674E+01  0.40000000000E+01  0.51100000000E-03 0. -1.
    9000002   -1    0    0    0    0 -0.00000000000E+00 -0.00000000000E+00  0.00000000000E+00  0.93800000000E+00  0.93800000000E+00 0.  1.
         11    1    1    2    0    0 -0.96305815201E-01 -0.68382085071E-01  0.11881357769E+01  0.11939923807E+01  0.51100000000E-03 0. -1.
    9000002    1    1    2    0    0  0.34083233802E+00  0.16269952089E+00  0.96220276248E-01  0.10157461092E+01  0.93800000000E+00 0.  1.
         22    1    1    2    0    0 -0.24452652282E+00 -0.94317435822E-01  0.27156439142E+01  0.27282615102E+01  0.00000000000E+00 0.  1.
</event>
<event>
 5    1  0.3005426E+001  0.1590681E+01  0.7818608E-02  0.3363541E+00
         11   -1    0    0    0    0  0.00000000000E+00  0.00000000000E+00  0.39999999674E+01  0.40000000000E+01  0.51100000000E-03 0.  1.
    9000002   -1    0    0    0    0 -0.00000000000E+00 -0.00000000000E+00  0.00000000000E+00  0.93800000000E+00  0.93800000000E+00 0.  1.
         11    1    1    2    0    0 -0.76303387007E-01 -0.13678992643E+00  0.13531912148E+01  0.13622262718E+01  0.51100000000E-03 0.  1.
    9000002    1    1    2    0    0  0.44911444045E+00  0.18428644788E+00  0.16898430497E+00  0.10696097283E+01  0.93800000000E+00 0.  1.
         22    1    1    2    0    0 -0.37281105344E+00 -0.47496521449E-01  0.24778244476E+01  0.25061639999E+01  0.00000000000E+00 0.  1.
</event>
<event>
 5    1  0.3005426E+001  0.1599661E+01  0.7818608E-02  0.3353732E+00
         11   -1    0    0    0    0  0.00000000000E+00  0.00000000000E+00  0.39999999674E+01  0.40000000000E+01  0.51100000000E-03 0. -1.
    9000002   -1    0    0    0    0 -0.00000000000E+00 -0.00000000000E+00  0.00000000000E+00  0.93800000000E+00  0.93800000000E+00 0.  1.
         11    1    1    2    0    0 -0.79325681677E-01 -0.45635035860E-01  0.78043053755E+00  0.78577808911E+00  0.51100000000E-03 0. -1.
    9000002    1    1    2    0    0  0.39341911142E+00  0.24465734026E+00  0.14608272162E+00  0.10563238012E+01  0.93800000000E+00 0.  1.
         22    1    1    2    0    0 -0.31409342975E+00 -0.19902230440E+00  0.30734867082E+01  0.30958981097E+01  0.00000000000E+00 0. -1.
</event>
<event>
 5    1  0.3005426E+001  0.1595409E+01  0.7818608E-02  0.3358361E+00
         11   -1    0    0    0    0  0.00000000000E+00  0.00000000000E+00  0.39999999674E+01  0.40000000000E+01  0.51100000000E-03 0.  1.
    9000002   -1    0    0    0    0 -0.00000000000E+00 -0.00000000000E+00  0.00000000000E+00  0.93800000000E+00  0.93800000000E+00 0.  1.
         11    1    1    2    0    0 -0.31655362664E-01  0.18509249070E+00  0.68938618482E+00  0.71450322955E+00  0.51100000000E-03 0.  1.
    9000002    1    1    2    0    0  0.58981474355E-01 -0.67052569440E+00  0.32617840408E+00  0.11997165801E+01  0.93800000000E+00 0.  1.
         22    1    1    2    0    0 -0.27326111692E-01  0.48543320369E+00  0.29844353785E+01  0.30237801904E+01  0.00000000000E+00 0.  1.
</event>
<event>
 5    1  0.3005426E+001  0.1599127E+01  0.7818608E-02  0.3354311E+00
         11   -1    0    0    0    0  0.00000000000E+00  0.00000000000E+00  0.39999999674E+01  0.40000000000E+01  0.51100000000E-03 0.  1.
    9000002   -1    0    0    0    0 -0.00000000000E+00 -0.00000000000E+00  0.00000000000E+00  0.93800000000E+00  0.93800000000E+00 0.  1.
         11    1    1    2    0    0  0.37982382375E-02  0.15397942034E-01  0.11900274086E+00  0.12005597314E+00  0.51100000000E-03 0.  1.
    9000002    1    1    2    0    0  0.15917715660E+00 -0.36055250680E+00  0.10515409769E+00  0.10228572049E+01  0.93800000000E+00 0.  1.
         22    1    1    2    0    0 -0.16297539484E+00  0.34515456477E+00  0.37758431288E+01  0.37950868220E+01  0.00000000000E+00 0.  1.
</event>
<event>
 5    1  0.3005426E+001  0.1576899E+01  0.7818608E-02  0.3378824E+00
         11   -1    0    0    0    0  0.00000000000E+00  0.00000000000E+00  0.39999999674E+01  0.40000000000E+01  0.51100000000E-03 0.  1.
    9000002   -1    0    0    0    0 -0.00000000000E+00 -0.00000000000E+00  0.00000000000E+00  0.93800000000E+00  0.93800000000E+00 0. -1.
         11    1    1    2    0    0  0.22723567021E-01 -0.48589598554E-01  0.11768174148E+00  0.12933121427E+00  0.51100000000E-03 0.  1.
    9000002    1    1    2    0    0  0.28497896223E+00 -0.20276288519E+00  0.10058859283E+00  0.10061251719E+01  0.93800000000E+00 0. -1.
         22    1    1    2    0    0 -0.30770252925E+00  0.25135248374E+00  0.37817296331E+01  0.38025436138E+01  0.00000000000E+00 0.  1.
</event>
<event>
 5    1  0.3005426E+001  0.1595978E+01  0.7818608E-02  0.3357740E+00
         11   -1    0    0    0    0  0.00000000000E+00  0.00000000000E+00  0.39999999674E+01  0.40000000000E+01  0.51100000000E-03 0.  1.
    9000002   -1    0    0    0    0 -0.00000000000E+00 -0.00000000000E+00  0.00000000000E+00  0.93800000000E+00  0.93800000000E+00 0. -1.
         11    1    1    2    0    0 -0.10593627028E-01  0.26343682651E-01  0.81961269590E-01  0.86741716509E-01  0.51100000000E-03 0.  1.
    9000002    1    1    2    0    0 -0.20583480524E+00 -0.50039822096E+00  0.20534407234E+00  0.11021690136E+01  0.93800000000E+00 0. -1.
         22    1    1    2    0    0  0.21642843227E+00  0.47405453831E+00  0.37126946254E+01  0.37490892699E+01  0.00000000000E+00 0.  1.
</event>
<event>
 5    1  0.3005426E+001  0.1598597E+01  0.7818608E-02  0.3354888E+00
         11   -1    0    0    0    0  0.00000000000E+00  0.00000000000E+00  0.39999999674E+01  0.40000000000E+01  0.51100000000E-03 0. -1.
    9000002   -1    0    0    0    0 -0.00000000000E+00 -0.00000000000E+00  0.00000000000E+00  0.93800000000E+00  0.93800000000E+00 0. -1.
         11    1    1    2    0    0 -0.13255413892E-01  0.11028403366E+00  0.11307788046E+01  0.11362214749E+01  0.51100000000E-03 0. -1.
    9000002    1    1    2    0    0  0.11288126088E+00 -0.47664273992E+00  0.16493407167E+00  0.10709704611E+01  0.93800000000E+00 0. -1.
         22    1    1    2    0    0 -0.99625846985E-01  0.36635870626E+00  0.27042870911E+01  0.27308080640E+01  0.00000000000E+00 0. -1.
</event>
<event>
 5    1  0.3005426E+001  0.1599676E+01  0.7818608E-02  0.3353715E+00
         11   -1    0    0    0    0  0.00000000000E+00  0.00000000000E+00  0.39999999674E+01  0.40000000000E+01  0.51100000000E-03 0. -1.
    9000002   -1    0    0    0    0 -0.00000000000E+00 -0.00000000000E+00  0.00000000000E+00  0.93800000000E+00  0.93800000000E+00 0. -1.
         11    1    1    2    0    0  0.25761651649E-01  0.76058870934E-01  0.82973345147E+00  0.83361050627E+00  0.51100000000E-03 0. -1.
    9000002    1    1    2    0    0 -0.12197240002E+00 -0.36198273509E+00  0.98197691577E-01  0.10175438828E+01  0.93800000000E+00 0. -1.
         22    1    1    2    0    0  0.96210748372E-01  0.28592386416E+00  0.30720688243E+01  0.30868456109E+01  0.00000000000E+00 0. -1.
</event>
<event>
 5    1  0.3005426E+001  0.1599676E+01  0.7818608E-02  0.3353715E+00
         11   -1    0    0    0    0  0.00000000000E+00  0.00000000000E+00  0.39999999674E+01  0.40000000000E+01  0.51100000000E-03 0. -1.
    9000002   -1    0    0    0    0 -0.00000000000E+00 -0.00000000000E+00  0.00000000000E+00  0.93800000000E+00  0.93800000000E+00 0. -1.
         11    1    1    2    0    0 -0.81740573312E-01 -0.24222916793E+00  0.14148502735E+01  0.14377614714E+01  0.51100000000E-03 0.  1.
    9000002    1    1    2    0    0  0.21211067903E+00  0.63323462317E+00  0.31607989990E+00  0.11940383291E+01  0.93800000000E+00 0. -1.
         22    1    1    2    0    0 -0.13037010572E+00 -0.39100545523E+00  0.22690697940E+01  0.23062001996E+01  0.00000000000E+00 0. -1.
</event>
<event>
 5    1  0.3005426E+001  0.1599670E+01  0.7818608E-02  0.3353722E+00
         11   -1    0    0    0    0  0.00000000000E+00  0.00000000000E+00  0.39999999674E+01  0.40000000000E+01  0.51100000000E-03 0. -1.
    9000002   -1    0    0    0    0 -0.00000000000E+00 -0.00000000000E+00  0.00000000000E+00  0.93800000000E+00  0.93800000000E+00 0. -1.
         11    1    1    2    0    0  0.98187075110E-01  0.58910073797E-01  0.80815409065E+00  0.81622570033E+00  0.51100000000E-03 0. -1.
    9000002    1    1    2    0    0 -0.45908009751E+00 -0.26531380900E+00  0.19348431779E+00  0.10947265112E+01  0.93800000000E+00 0. -1.
         22    1    1    2    0    0  0.36089302239E+00  0.20640373520E+00  0.29983615589E+01  0.30270477884E+01  0.00000000000E+00 0. -1.
</event>
<event>
 5    1  0.3005426E+001  0.1599675E+01  0.7818608E-02  0.3353716E+00
         11   -1    0    0    0    0  0.00000000000E+00  0.00000000000E+00  0.39999999674E+01  0.40000000000E+01  0.51100000000E-03 0. -1.
    9000002   -1    0    0    0    0 -0.00000000000E+00 -0.00000000000E+00  0.00000000000E+00  0.93800000000E+00  0.93800000000E+00 0.  1.
         11    1    1    2    0    0 -0.16599672161E+00 -0.29652589008E-01  0.12957052116E+01  0.13066317170E+01  0.51100000000E-03 0. -1.
    9000002    1    1    2    0    0  0.49378289840E+00  0.84202039397E-01  0.17179112982E+00  0.10771572432E+01  0.93800000000E+00 0.  1.
         22    1    1    2    0    0 -0.32778617679E+00 -0.54549450389E-01  0.25325036260E+01  0.25542110398E+01  0.00000000000E+00 0. -1.
</event>
<event>
 5    1  0.3005426E+001  0.1546244E+01  0.7818608E-02  0.3413858E+00
         11   -1    0    0    0    0  0.00000000000E+00  0.00000000000E+00  0.39999999674E+01  0.40000000000E+01  0.51100000000E-03 0.  1.
    9000002   -1    0    0    0    0 -0.00000000000E+00 -0.00000000000E+00  0.00000000000E+00  0.93800000000E+00  0.93800000000E+00 0. -1.
         11    1    1    2    0    0  0.82185421033E-01 -0.23961775978E+00  0.11956253336E+01  0.12221666473E+01  0.51100000000E-03 0.  1.
    9000002    1    1    2    0    0 -0.18988865142E+00 -0.50713484609E-01  0.66686571563E-01  0.96068759557E+00  0.93800000000E+00 0. -1.
         22    1    1    2    0    0  0.10770323038E+00  0.29033124439E+00  0.27376880621E+01  0.27551457571E+01  0.00000000000E+00 0.  1.
</event>
<event>
 5    1  0.3005426E+001  0.1599669E+01  0.7818608E-02  0.3353723E+00
         11   -1    0    0    0    0  0.00000000000E+00  0.00000000000E+00  0.39999999674E+01  0.40000000000E+01  0.51100000000E-03 0. -1.
    9000002   -1    0    0    0    0 -0.00000000000E+00 -0.00000000000E+00  0.00000000000E+00  0.93800000000E+00  0.93800000000E+00 0. -1.
         11    1    1    2    0    0 -0.29905587467E-01  0.81898158126E-01  0.97751964267E+00  0.98140030843E+00  0.51100000000E-03 0. -1.
    9000002    1    1    2    0    0  0.11526859908E+00 -0.33909534087E+00  0.86093169019E-01  0.10077343568E+01  0.93800000000E+00 0. -1.
         22    1    1    2    0    0 -0.85363011617E-01  0.25719718275E+00  0.29363871557E+01  0.29488653348E+01  0.00000000000E+00 0. -1.
</event>
<event>
 5    1  0.3005426E+001  0.1599676E+01  0.7818608E-02  0.3353715E+00
         11   -1    0    0    0    0  0.00000000000E+00  0.00000000000E+00  0.39999999674E+01  0.40000000000E+01  0.51100000000E-03 0.  1.
    9000002   -1    0    0    0    0 -0.00000000000E+00 -0.00000000000E+00  0.00000000000E+00  0.93800000000E+00  0.93800000000E+00 0.  1.
         11    1    1    2    0    0 -0.71582588008E-01 -0.22506561426E-02  0.54374986371E+00  0.54844626698E+00  0.51100000000E-03 0.  1.
    9000002    1    1    2    0    0  0.49803544100E+00  0.14339304919E-01  0.16988873175E+00  0.10756166126E+01  0.93800000000E+00 0.  1.
         22    1    1    2    0    0 -0.42645285300E+00 -0.12088648776E-01  0.32863613719E+01  0.33139371204E+01  0.00000000000E+00 0.  1.
</event>
<event>
 5    1  0.3005426E+001  0.1599672E+01  0.7818608E-02  0.3353719E+00
         11   -1    0    0    0    0  0.00000000000E+00  0.00000000000E+00  0.39999999674E+01  0.40000000000E+01  0.51100000000E-03 0.  1.
    9000002   -1    0    0    0    0 -0.00000000000E+00 -0.00000000000E+00  0.00000000000E+00  0.93800000000E+00  0.93800000000E+00 0.  1.
         11    1    1    2    0    0 -0.15140379829E+00  0.46200938550E-01  0.13109694044E+01  0.13204918315E+01  0.51100000000E-03 0.  1.
    9000002    1    1    2    0    0  0.43857533813E+00 -0.13832008918E+00  0.14385039502E+00  0.10545225035E+01  0.93800000000E+00 0.  1.
         22    1    1    2    0    0 -0.28717153984E+00  0.92119150633E-01  0.25451801680E+01  0.25629856649E+01  0.00000000000E+00 0.  1.
</event>
<event>
 5    1  0.3005426E+001  0.1597646E+01  0.7818608E-02  0.3355922E+00
         11   -1    0    0    0    0  0.00000000000E+00  0.00000000000E+00  0.39999999674E+01  0.40000000000E+01  0.51100000000E-03 0.  1.
    9000002   -1    0    0    0    0 -0.00000000000E+00 -0.00000000000E+00  0.00000000000E+00  0.93800000000E+00  0.93800000000E+00 0. -1.
         11    1    1    2    0    0  0.80455853161E-01 -0.94084231871E-01  0.10683925600E+01  0.10755407525E+01  0.51100000000E-03 0.  1.
    9000002    1    1    2    0    0 -0.43243965632E+00  0.23860694762E+00  0.16864067556E+00  0.10734155809E+01  0.93800000000E+00 0. -1.
         22    1    1    2    0    0  0.35198380316E+00 -0.14452271575E+00  0.27629667318E+01  0.27890436666E+01  0.00000000000E+00 0.  1.
</event>
<event>
 5    1  0.3005426E+001  0.1599673E+01  0.7818608E-02  0.3353718E+00
         11   -1    0    0    0    0  0.00000000000E+00  0.00000000000E+00  0.39999999674E+01  0.40000000000E+01  0.51100000000E-03 0.  1.
    9000002   -1    0    0    0    0 -0.00000000000E+00 -0.00000000000E+00  0.00000000000E+00  0.93800000000E+00  0.93800000000E+00 0. -1.
         11    1    1    2    0    0  0.42656851140E-01 -0.44885259180E-02  0.44543720933E+00  0.44749784625E+00  0.51100000000E-03 0. -1.
    9000002    1    1    2    0    0 -0.38332312964E+00  0.47889111512E-01  0.10048863640E+00  0.10193978393E+01  0.93800000000E+00 0. -1.
         22    1    1    2    0    0  0.34066627850E+00 -0.43400585594E-01  0.34540741216E+01  0.34711043145E+01  0.00000000000E+00 0.  1.
</event>
<event>
 5    1  0.3005426E+001  0.1599415E+01  0.7818608E-02  0.3353999E+00
         11   -1    0    0    0    0  0.00000000000E+00  0.00000000000E+00  0.39999999674E+01  0.40000000000E+01  0.51100000000E-03 0.  1.
    9000002   -1    0    0    0    0 -0.00000000000E+00 -0.00000000000E+00  0.00000000000E+00  0.93800000000E+00  0.93800000000E+00 0. -1.
         11    1    1    2    0    0 -0.20672813961E-01  0.99011017191E-02  0.34797889765E+00  0.34873338152E+00  0.51100000000E-03 0.  1.
    9000002    1    1    2    0    0  0.35693290792E+00 -0.10798335060E+00  0.93701097144E-01  0.10137481938E+01  0.93800000000E+00 0. -1.
         22    1    1    2    0    0 -0.33626009396E+00  0.98082248881E-01  0.35583199726E+01  0.35755184247E+01  0.00000000000E+00 0.  1.
</event>
<event>
 5    1  0.3005426E+001  0.1580134E+01  0.7818608E-02  0.3375211E+00
         11   -1    0    0    0    0  0.00000000000E+00  0.00000000000E+00  0.39999999674E+01  0.40000000000E+01  0.51100000000E-03 0. -1.
    9000002   -1    0    0    0    0 -0.00000000000E+00 -0.00000000000E+00  0.00000000000E+00  0.93800000000E+00  0.93800000000E+00 0. -1.
         11    1    1    2    0    0 -0.19727147305E+00 -0.24931896672E-01  0.70769163724E+00  0.73509546870E+00  0.51100000000E-03 0. -1.
    9000002    1    1    2    0    0  0.41564333746E+00  0.45104239716E+00  0.28322694796E+00  0.11559671847E+01  0.93800000000E+00 0. -1.
         22    1    1    2    0    0 -0.21837186441E+00 -0.42611050049E+00  0.30090813822E+01  0.30469373466E+01  0.00000000000E+00 0. -1.
</event>
<event>
 5    1  0.3005426E+001  0.1599315E+01  0.7818608E-02  0.3354107E+00
         11   -1    0    0    0    0  0.00000000000E+00  0.00000000000E+00  0.39999999674E+01  0.40000000000E+01  0.51100000000E-03 0. -1.
    9000002   -1    0    0    0    0 -0.00000000000E+00 -0.00000000000E+00  0.00000000000E+00  0.93800000000E+00  0.93800000000E+00 0.  1.
         11    1    1    2    0    0  0.87057313578E-01  0.97665954708E-01  0.12738494297E+01  0.12805507586E+01  0.51100000000E-03 0. -1.
    9000002    1    1    2    0    0 -0.23908440045E+00 -0.35728648751E+00  0.12546929412E+00  0.10394236521E+01  0.93800000000E+00 0.  1.
         22    1    1    2    0    0  0.15202708687E+00  0.25962053280E+00  0.26006812435E+01  0.26180255894E+01  0.00000000000E+00 0. -1.
</event>
<event>
 5    1  0.3005426E+001  0.1599677E+01  0.7818608E-02  0.3353714E+00
         11   -1    0    0    0    0  0.00000000000E+00  0.00000000000E+00  0.39999999674E+01  0.40000000000E+01  0.51100000000E-03 0.  1.
    9000002   -1    0    0    0    0 -0.00000000000E+00 -0.00000000000E+00  0.00000000000E+00  0.93800000000E+00  0.93800000000E+00 0. -1.
         11    1    1    2    0    0  0.13330938771E+00  0.39755932043E-01  0.14829638262E+01  0.14894743697E+01  0.51100000000E-03 0.  1.
    9000002    1    1    2    0    0 -0.35142160577E+00 -0.10572886636E+00  0.90475453028E-01  0.10112890515E+01  0.93800000000E+00 0. -1.
         22    1    1    2    0    0  0.21811221806E+00  0.65972934315E-01  0.24265606881E+01  0.24372365788E+01  0.00000000000E+00 0.  1.
</event>
<event>
 5    1  0.3005426E+001  0.1599676E+01  0.7818608E-02  0.3353715E+00
         11   -1    0    0    0    0  0.00000000000E+00  0.00000000000E+00  0.39999999674E+01  0.40000000000E+01  0.51100000000E-03 0.  1.
    9000002   -1    0    0    0    0 -0.00000000000E+00 -0.00000000000E+00  0.00000000000E+00  0.93800000000E+00  0.93800000000E+00 0.  1.
         11    1    1    2    0    0  0.10175250329E+00 -0.10636836283E+00  0.66671038073E+00  0.68276701255E+00  0.51100000000E-03 0. -1.
    9000002    1    1    2    0    0 -0.54512102687E+00  0.56882695329E+00  0.45538629672E+00  0.13068824415E+01  0.93800000000E+00 0.  1.
         22    1    1    2    0    0  0.44336852358E+00 -0.46245859046E+00  0.28779032899E+01  0.29483505459E+01  0.00000000000E+00 0.  1.
</event>
<event>
 5    1  0.3005426E+001  0.1595951E+01  0.7818608E-02  0.3357770E+00
         11   -1    0    0    0    0  0.00000000000E+00  0.00000000000E+00  0.39999999674E+01  0.40000000000E+01  0.51100000000E-03 0.  1.
    9000002   -1    0    0    0    0 -0.00000000000E+00 -0.00000000000E+00  0.00000000000E+00  0.93800000000E+00  0.93800000000E+00 0.  1.
         11    1    1    2    0    0  0.97182407753E-01 -0.45414343393E-01  0.86676750671E+00  0.87338024639E+00  0.51100000000E-03 0.  1.
    9000002    1    1    2    0    0 -0.52144247962E+00  0.43506155679E+00  0.33186524191E+00  0.12046407583E+01  0.93800000000E+00 0.  1.
         22    1    1    2    0    0  0.42426007187E+00 -0.38964721339E+00  0.28013672187E+01  0.28599789953E+01  0.00000000000E+00 0.  1.
</event>
<event>
 5    1  0.3005426E+001  0.1594228E+01  0.7818608E-02  0.3359652E+00
         11   -1    0    0    0    0  0.00000000000E+00  0.00000000000E+00  0.39999999674E+01  0.40000000000E+01  0.51100000000E-03 0. -1.
    9000002   -1    0    0    0    0 -0.00000000000E+00 -0.00000000000E+00  0.00000000000E+00  0.93800000000E+00  0.93800000000E+00 0.  1.
         11    1    1    2    0    0 -0.52988062706E-01 -0.42874914584E-01  0.27930464604E+00  0.28750189480E+00  0.51100000000E-03 0. -1.
    9000002    1    1    2    0    0  0.41038656252E+00  0.40353039640E-01  0.11947222238E+00  0.10315828180E+01  0.93800000000E+00 0.  1.
         22    1    1    2    0    0 -0.35739849982E+00  0.25218749439E-02  0.36012230989E+01  0.36189152872E+01  0.00000000000E+00 0. -1.
</event>
<event>
 5    1  0.3005426E+001  0.1573361E+01  0.7818608E-02  0.3382794E+00
         11   -1    0    0    0    0  0.00000000000E+00  0.00000000000E+00  0.39999999674E+01  0.40000000000E+01  0.51100000000E-03 0. -1.
    9000002   -1    0    0    0    0 -0.00000000000E+00 -0.00000000000E+00  0.00000000000E+00  0.93800000000E+00  0.93800000000E+00 0. -1.
         11    1    1    2    0    0  0.75696527101E-01  0.87997445439E-01  0.72308151135E+00  0.73233916172E+00  0.51100000000E-03 0. -1.
    9000002    1    1    2    0    0  0.10658846100E+00  0.15961203474E+00  0.44306546866E-01  0.95845926974E+00  0.93800000000E+00 0. -1.
         22    1    1    2    0    0 -0.18228498810E+00 -0.24760948018E+00  0.32326119091E+01  0.32472015685E+01  0.00000000000E+00 0. -1.
</event>
<event>
 5    1  0.3005426E+001  0.1599325E+01  0.7818608E-02  0.3354097E+00
         11   -1    0    0    0    0  0.00000000000E+00  0.00000000000E+00  0.39999999674E+01  0.40000000000E+01  0.51100000000E-03 0. -1.
    9000002   -1    0    0    0    0 -0.00000000000E+00 -0.00000000000E+00  0.00000000000E+00  0.93800000000E+00  0.93800000000E+00 0. -1.
         11    1    1    2    0    0  0.20531389052E-01  0.31484571958E-01  0.19670734955E+00  0.20026696856E+00  0.51100000000E-03 0. -1.
    9000002    1    1    2    0    0 -0.38848892839E+00 -0.41053173653E+00  0.22163879046E+00  0.11173306170E+01  0.93800000000E+00 0. -1.
         22    1    1    2    0    0  0.36795753934E+00  0.37904716457E+00  0.35816538274E+01  0.36204024145E+01  0.00000000000E+00 0. -1.
</event>
<event>
 5    1  0.3005426E+001  0.1599506E+01  0.7818608E-02  0.3353900E+00
         11   -1    0    0    0    0  0.00000000000E+00  0.00000000000E+00  0.39999999674E+01  0.40000000000E+01  0.51100000000E-03 0.  1.
    9000002   -1    0    0    0    0 -0.00000000000E+00 -0.00000000000E+00  0.00000000000E+00  0.93800000000E+00  0.93800000000E+00 0. -1.
         11    1    1    2    0    0  0.48901541668E-01  0.27967790164E-01  0.67567525349E+00  0.67801981341E+00  0.51100000000E-03 0.  1.
    9000002    1    1    2    0    0 -0.27463023092E+00 -0.23038214029E+00  0.86379051450E-01  0.10078705447E+01  0.93800000000E+00 0. -1.
         22    1    1    2    0    0  0.22572868925E+00  0.20241435013E+00  0.32379456624E+01  0.32521096419E+01  0.00000000000E+00 0.  1.
</event>
<event>
 5    1  0.3005426E+001  0.1559439E+01  0.7818608E-02  0.3398599E+00
         11   -1    0    0    0    0  0.00000000000E+00  0.00000000000E+00  0.39999999674E+01  0.40000000000E+01  0.51100000000E-03 0.  1.
    9000002   -1    0    0    0    0 -0.00000000000E+00 -0.00000000000E+00  0.00000000000E+00  0.93800000000E+00  0.93800000000E+00 0. -1.
         11    1    1    2    0    0 -0.20331553357E+00  0.15863962511E+00  0.12131966519E+01  0.12403024285E+01  0.51100000000E-03 0.  1.
    9000002    1    1    2    0    0 -0.28924546386E-01 -0.28380370626E+00  0.86160854332E-01  0.98419960673E+00  0.93800000000E+00 0. -1.
         22    1    1    2    0    0  0.23224007996E+00  0.12516408115E+00  0.27006424611E+01  0.27134979647E+01  0.00000000000E+00 0.  1.
</event>
<event>
 5    1  0.3005426E+001  0.1599491E+01  0.7818608E-02  0.3353916E+00
         11   -1    0    0    0    0  0.00000000000E+00  0.00000000000E+00  0.39999999674E+01  0.40000000000E+01  0.51100000000E-03 0.  1.
    9000002   -1    0    0    0    0 -0.00000000000E+00 -0.00000000000E+00  0.00000000000E+00  0.93800000000E+00  0.93800000000E+00 0.  1.
         11    1    1    2    0    0 -0.53700961352E-01 -0.19915990707E+00  0.87961980592E+00  0.90348200089E+00  0.51100000000E-03 0.  1.
    9000002    1    1    2    0    0  0.15779143514E+00  0.79381339667E+00  0.48430691676E+00  0.13302011259E+01  0.93800000000E+00 0.  1.
         22    1    1    2    0    0 -0.10409047379E+00 -0.59465348961E+00  0.26360732447E+01  0.27043168732E+01  0.00000000000E+00 0.  1.
</event>
<event>
 5    1  0.3005426E+001  0.1599370E+01  0.7818608E-02  0.3354048E+00
         11   -1    0    0    0    0  0.00000000000E+00  0.00000000000E+00  0.39999999674E+01  0.40000000000E+01  0.51100000000E-03 0. -1.
    9000002   -1    0    0    0    0 -0.00000000000E+00 -0.00000000000E+00  0.00000000000E+00  0.93800000000E+00  0.93800000000E+00 0.  1.
         11    1    1    2    0    0 -0.95795093306E-01 -0.89530538579E-01  0.11284535901E+01  0.11360458544E+01  0.51100000000E-03 0. -1.
    9000002    1    1    2    0    0  0.28528077316E+00  0.26109046557E+00  0.10096172213E+00  0.10196031679E+01  0.93800000000E+00 0.  1.
         22    1    1    2    0    0 -0.18948567985E+00 -0.17155992700E+00  0.27705846551E+01  0.27823509776E+01  0.00000000000E+00 0. -1.
</event>
<event>
 5    1  0.3005426E+001  0.1599676E+01  0.7818608E-02  0.3353715E+00
         11   -1    0    0    0    0  0.00000000000E+00  0.00000000000E+00  0.39999999674E+01  0.40000000000E+01  0.51100000000E-03 0.  1.
    9000002   -1    0    0    0    0 -0.00000000000E+00 -0.00000000000E+00  0.00000000000E+00  0.93800000000E+00  0.93800000000E+00 0.  1.
         11    1    1    2    0    0 -0.10960374022E+00 -0.10066687554E+00  0.12343352502E+01  0.12432741334E+01  0.51100000000E-03 0.  1.
    9000002    1    1    2    0    0  0.33952059769E+00  0.31666964794E+00  0.14671626614E+00  0.10568460460E+01  0.93800000000E+00 0.  1.
         22    1    1    2    0    0 -0.22991685748E+00 -0.21600277240E+00  0.26189484510E+01  0.26378798206E+01  0.00000000000E+00 0.  1.
</event>
<event>
 5    1  0.3005426E+001  0.1515116E+01  0.7818608E-02  0.3450981E+00
         11   -1    0    0    0    0  0.00000000000E+00  0.00000000000E+00  0.39999999674E+01  0.40000000000E+01  0.51100000000E-03 0.  1.
    9000002   -1    0    0    0    0 -0.00000000000E+00 -0.00000000000E+00  0.00000000000E+00  0.93800000000E+00  0.93800000000E+00 0.  1.
         11    1    1    2    0    0  0.17871877956E+00  0.26194795801E+00  0.10723929291E+01  0.11182951267E+01  0.51100000000E-03 0.  1.
    9000002    1    1    2    0    0  0.89151298172E-01 -0.86393440833E-01  0.74969620215E-01  0.94914499658E+00  0.93800000000E+00 0.  1.
         22    1    1    2    0    0 -0.26787007773E+00 -0.17555451718E+00  0.28526374180E+01  0.28705598767E+01  0.00000000000E+00 0.  1.
</event>
<event>
 5    1  0.3005426E+001  0.1542383E+01  0.7818608E-02  0.3418376E+00
         11   -1    0    0    0    0  0.00000000000E+00  0.00000000000E+00  0.39999999674E+01  0.40000000000E+01  0.51100000000E-03 0.  1.
    9000002   -1    0    0    0    0 -0.00000000000E+00 -0.00000000000E+00  0.00000000000E+00  0.93800000000E+00  0.93800000000E+00 0. -1.
         11    1    1    2    0    0  0.17238422902E-01  0.16559459754E+00  0.51740446784E+00  0.54353139598E+00  0.51100000000E-03 0.  1.
    9000002    1    1    2    0    0 -0.38927285324E+00  0.21471982566E+00  0.18517713228E+00  0.10544062443E+01  0.93800000000E+00 0. -1.
         22    1    1    2    0    0  0.37203443034E+00 -0.38031442319E+00  0.32974183672E+01  0.33400623597E+01  0.00000000000E+00 0.  1.
</event>
<event>
 5    1  0.3005426E+001  0.1589806E+01  0.7818608E-02  0.3364502E+00
         11   -1    0    0    0    0  0.00000000000E+00  0.00000000000E+00  0.39999999674E+01  0.40000000000E+01  0.51100000000E-03 0. -1.
    9000002   -1    0    0    0    0 -0.00000000000E+00 -0.00000000000E+00  0.00000000000E+00  0.93800000000E+00  0.93800000000E+00 0. -1.
         11    1    1    2    0    0 -0.96421337959E-01 -0.43899840578E-01  0.28472544036E+00  0.30379780763E+00  0.51100000000E-03 0. -1.
    9000002    1    1    2    0    0  0.45271640482E+00  0.33342582516E+00  0.22835662775E+00  0.11171909745E+01  0.93800000000E+00 0. -1.
         22    1    1    2    0    0 -0.35629506686E+00 -0.28952598458E+00  0.34869178993E+01  0.35170112179E+01  0.00000000000E+00 0. -1.
</event>
<event>
 5    1  0.3005426E+001  0.1599677E+01  0.7818608E-02  0.3353715E+00
         11   -1    0    0    0    0  0.00000000000E+00  0.00000000000E+00  0.39999999674E+01  0.40000000000E+01  0.51100000000E-03 0. -1.
    9000002   -1    0    0    0    0 -0.00000000000E+00 -0.00000000000E+00  0.00000000000E+00  0.93800000000E+00  0.93800000000E+00 0.  1.
         11    1    1    2    0    0 -0.50763546280E-01  0.93395961857E-01  0.79129991521E+00  0.79840814140E+00  0.51100000000E-03 0. -1.
    9000002    1    1    2    0    0  0.24360449712E+00 -0.45333652872E+00  0.18176459763E+00  0.10852370839E+01  0.93800000000E+00 0.  1.
         22    1    1    2    0    0 -0.19284095083E+00  0.35994056687E+00  0.30269354545E+01  0.30543547747E+01  0.00000000000E+00 0. -1.
</event>
<event>
 5    1  0.3005426E+001  0.1599673E+01  0.7818608E-02  0.3353718E+00
         11   -1    0    0    0    0  0.00000000000E+00  0.00000000000E+00  0.39999999674E+01  0.40000000000E+01  0.51100000000E-03 0. -1.
    9000002   -1    0    0    0    0 -0.00000000000E+00 -0.00000000000E+00  0.00000000000E+00  0.93800000000E+00  0.93800000000E+00 0.  1.
         11    1    1    2    0    0  0.16175389895E+00  0.83595173550E-01  0.14122984597E+01  0.14239872462E+01  0.51100000000E-03 0. -1.
    9000002    1    1    2    0    0 -0.44461049696E+00 -0.22583814588E+00  0.17020194416E+00  0.10758689808E+01  0.93800000000E+00 0.  1.
         22    1    1    2    0    0  0.28285659801E+00  0.14224297232E+00  0.24174995635E+01  0.24381437730E+01  0.00000000000E+00 0. -1.
</event>
<event>
 5    1  0.3005426E+001  0.1599513E+01  0.7818608E-02  0.3353892E+00
         11   -1    0    0    0    0  0.00000000000E+00  0.00000000000E+00  0.39999999674E+01  0.40000000000E+01  0.51100000000E-03 0.  1.
    9000002   -1    0    0    0    0 -0.00000000000E+00 -0.00000000000E+00  0.00000000000E+00  0.93800000000E+00  0.93800000000E+00 0.  1.
         11    1    1    2    0    0 -0.26358553121E-01 -0.42030322388E-01  0.37147306414E+00  0.37477169026E+00  0.51100000000E-03 0.  1.
    9000002    1    1    2    0    0  0.17879315175E+00  0.43267561965E+00  0.14941338778E+00  0.10589350988E+01  0.93800000000E+00 0.  1.
         22    1    1    2    0    0 -0.15243459863E+00 -0.39064529726E+00  0.34791135154E+01  0.35042932110E+01  0.00000000000E+00 0.  1.
</event>
<event>
 5    1  0.3005426E+001  0.1595414E+01  0.7818608E-02  0.3358356E+00
         11   -1    0    0    0    0  0.00000000000E+00  0.00000000000E+00  0.39999999674E+01  0.40000000000E+01  0.51100000000E-03 0.  1.
    9000002   -1    0    0    0    0 -0.00000000000E+00 -0.00000000000E+00  0.00000000000E+00  0.93800000000E+00  0.93800000000E+00 0.  1.
         11    1    1    2    0    0  0.97881698803E-01 -0.60688271448E-01  0.54183686253E+00  0.55394163950E+00  0.51100000000E-03 0.  1.
    9000002    1    1    2    0    0 -0.34090798644E+00  0.26916922786E+00  0.13149930737E+00  0.10420203435E+01  0.93800000000E+00 0.  1.
         22    1    1    2    0    0  0.24302628764E+00 -0.20848095642E+00  0.33266637975E+01  0.33420380170E+01  0.00000000000E+00 0.  1.
</event>
<event>
 5    1  0.3005426E+001  0.1599673E+01  0.7818608E-02  0.3353718E+00
         11   -1    0    0    0    0  0.00000000000E+00  0.00000000000E+00  0.39999999674E+01  0.40000000000E+01  0.51100000000E-03 0.  1.
    9000002   -1    0    0    0    0 -0.00000000000E+00 -0.00000000000E+00  0.00000000000E+00  0.93800000000E+00  0.93800000000E+00 0. -1.
         11    1    1    2    0    0  0.73432405366E-01  0.99346485811E-01  0.12589334903E+01  0.12649805677E+01  0.51100000000E-03 0.  1.
    9000002    1    1    2    0    0 -0.22376770213E+00 -0.31352243273E+00  0.99894512156E-01  0.10189166864E+01  0.93800000000E+00 0. -1.
         22    1    1    2    0    0  0.15033529677E+00  0.21417594691E+00  0.26411719649E+01  0.26541027459E+01  0.00000000000E+00 0.  1.
</event>
<event>
 5    1  0.3005426E+001  0.1599520E+01  0.7818608E-02  0.3353885E+00
         11   -1    0    0    0    0  0.00000000000E+00  0.00000000000E+00  0.39999999674E+01  0.40000000000E+01  0.51100000000E-03 0. -1.
    9000002   -1    0    0    0    0 -0.00000000000E+00 -0.00000000000E+00  0.00000000000E+00  0.93800000000E+00  0.93800000000E+00 0.  1.
         11    1    1    2    0    0  0.49616562422E-01 -0.20742117637E+00  0.94660459862E+00  0.97033286810E+00  0.51100000000E-03 0. -1.
    9000002    1    1    2    0    0 -0.22147364737E+00  0.79731642087E+00  0.50950820884E+00  0.13506319507E+01  0.93800000000E+00 0.  1.
         22    1    1    2    0    0  0.17185708495E+00 -0.58989524450E+00  0.25438871599E+01  0.26170351812E+01  0.00000000000E+00 0. -1.
</event>
<event>
 5    1  0.3005426E+001  0.1599361E+01  0.7818608E-02  0.3354057E+00
         11   -1    0    0    0    0  0.00000000000E+00  0.00000000000E+00  0.39999999674E+01  0.40000000000E+01  0.51100000000E-03 0.  1.
    9000002   -1    0    0    0    0 -0.00000000000E+00 -0.00000000000E+00  0.00000000000E+00  0.93800000000E+00  0.93800000000E+00 0.  1.
         11    1    1    2    0    0 -0.13619468383E+00  0.45679164952E+00  0.11693852555E+01  0.12628023360E+01  0.51100000000E-03 0.  1.
    9000002    1    1    2    0    0  0.28316045340E+00 -0.10986283585E+01  0.11431301862E+01  0.18638011522E+01  0.93800000000E+00 0.  1.
         22    1    1    2    0    0 -0.14696576957E+00  0.64183670898E+00  0.16874845257E+01  0.18113965117E+01  0.00000000000E+00 0.  1.
</event>
<event>
 5    1  0.3005426E+001  0.1594513E+01  0.7818608E-02  0.3359340E+00
         11   -1    0    0    0    0  0.00000000000E+00  0.00000000000E+00  0.39999999674E+01  0.40000000000E+01  0.51100000000E-03 0.  1.
    9000002   -1    0    0    0    0 -0.00000000000E+00 -0.00000000000E+00  0.00000000000E+00  0.93800000000E+00  0.93800000000E+00 0. -1.
         11    1    1    2    0    0 -0.13478812388E-01  0.51046895741E-02  0.94168836510E+00  0.94179879715E+00  0.51100000000E-03 0.  1.
    9000002    1    1    2    0    0  0.12204607031E+00  0.28019993849E+00  0.66410792097E-01  0.98876773922E+00  0.93800000000E+00 0. -1.
         22    1    1    2    0    0 -0.10856725792E+00 -0.28530462807E+00  0.29919008102E+01  0.30074334636E+01  0.00000000000E+00 0.  1.
</event>
<event>
 5    1  0.3005426E+001  0.1599674E+01  0.7818608E-02  0.3353717E+00
         11   -1    0    0    0    0  0.00000000000E+00  0.00000000000E+00  0.39999999674E+01  0.40000000000E+01  0.51100000000E-03 0. -1.
    9000002   -1    0    0    0    0 -0.00000000000E+00 -0.00000000000E+00  0.00000000000E+00  0.93800000000E+00  0.93800000000E+00 0. -1.
         11    1    1    2    0    0 -0.53782460715E-01  0.25473176723E-01  0.62274700412E+00  0.62558414948E+00  0.51100000000E-03 0. -1.
    9000002    1    1    2    0    0  0.34538277057E+00 -0.16356319537E+00  0.98291202809E-01  0.10176184637E+01  0.93800000000E+00 0. -1.
         22    1    1    2    0    0 -0.29160030985E+00  0.13809001864E+00  0.32789617604E+01  0.32947973868E+01  0.00000000000E+00 0. -1.
</event>
<event>
 5    1  0.3005426E+001  0.1595819E+01  0.7818608E-02  0.3357914E+00
         11   -1    0    0    0    0  0.00000000000E+00  0.00000000000E+00  0.39999999674E+01  0.40000000000E+01  0.51100000000E-03 0. -1.
    9000002   -1    0    0    0    0 -0.00000000000E+00 -0.00000000000E+00  0.00000000000E+00  0.93800000000E+00  0.93800000000E+00 0.  1.
         11    1    1    2    0    0 -0.22584945952E+00  0.15961809007E+00  0.13918198226E+01  0.14190308639E+01  0.51100000000E-03 0. -1.
    9000002    1    1    2    0    0  0.44980345084E+00 -0.32282813087E+00  0.21553969387E+00  0.11103344118E+01  0.93800000000E+00 0.  1.
         22    1    1    2    0    0 -0.22395399133E+00  0.16321004080E+00  0.23926404509E+01  0.24086347243E+01  0.00000000000E+00 0. -1.
</event>
<event>
 5    1  0.3005426E+001  0.1597581E+01  0.7818608E-02  0.3355993E+00
         11   -1    0    0    0    0  0.00000000000E+00  0.00000000000E+00  0.39999999674E+01  0.40000000000E+01  0.51100000000E-03 0.  1.
    9000002   -1    0    0    0    0 -0.00000000000E+00 -0.00000000000E+00  0.00000000000E+00  0.93800000000E+00  0.93800000000E+00 0. -1.
         11    1    1    2    0    0 -0.40813105587E-01 -0.18439953940E-01  0.37929256042E+00  0.38192780601E+00  0.51100000000E-03 0.  1.
    9000002    1    1    2    0    0  0.68244642559E+00  0.24068057347E-01  0.33405957010E+00  0.12073740893E+01  0.93800000000E+00 0. -1.
         22    1    1    2    0    0 -0.64163332000E+00 -0.56281034074E-02  0.32866478368E+01  0.33486981047E+01  0.00000000000E+00 0.  1.
</event>
<event>
 5    1  0.3005426E+001  0.1591136E+01  0.7818608E-02  0.3363041E+00
         11   -1    0    0    0    0  0.00000000000E+00  0.00000000000E+00  0.39999999674E+01  0.40000000000E+01  0.51100000000E-03 0. -1.
    9000002   -1    0    0    0    0 -0.00000000000E+00 -0.00000000000E+00  0.00000000000E+00  0.93800000000E+00  0.93800000000E+00 0.  1.
         11    1    1    2    0    0 -0.20219248548E+00 -0.59924059983E-01  0.79578030012E+00  0.82324919759E+00  0.51100000000E-03 0. -1.
    9000002    1    1    2    0    0  0.52407791277E+00  0.22292998032E+00  0.23315214657E+00  0.11218553197E+01  0.93800000000E+00 0.  1.
         22    1    1    2    0    0 -0.32188542729E+00 -0.16300592034E+00  0.29710675207E+01  0.29928954828E+01  0.00000000000E+00 0. -1.
</event>
<event>
 5    1  0.3005426E+001  0.1599674E+01  0.7818608E-02  0.3353718E+00
         11   -1    0    0    0    0  0.00000000000E+00  0.00000000000E+00  0.39999999674E+01  0.40000000000E+01  0.51100000000E-03 0.  1.
    9000002   -1    0    0    0    0 -0.00000000000E+00 -0.00000000000E+00  0.00000000000E+00  0.93800000000E+00  0.93800000000E+00 0. -1.
         11    1    1    2    0    0  0.93062401263E-01 -0.18127751560E+00  0.10701318009E+01  0.10893596654E+01  0.51100000000E-03 0.  1.
    9000002    1    1    2    0    0 -0.31952728318E+00  0.61303591160E+00  0.34076491762E+00  0.12140327189E+01  0.93800000000E+00 0. -1.
         22    1    1    2    0    0  0.22646488191E+00 -0.43175839600E+00  0.25891032488E+01  0.26346076156E+01  0.00000000000E+00 0.  1.
</event>
<event>
 5    1  0.3005426E+001  0.1599677E+01  0.7818608E-02  0.3353714E+00
         11   -1    0    0    0    0  0.00000000000E+00  0.00000000000E+00  0.39999999674E+01  0.40000000000E+01  0.51100000000E-03 0. -1.
    9000002   -1    0    0    0    0 -0.00000000000E+00 -0.00000000000E+00  0.00000000000E+00  0.93800000000E+00  0.93800000000E+00 0. -1.
         11    1    1    2    0    0  0.76574389917E-01  0.19132557445E-01  0.60249853476E+00  0.60764663864E+00  0.51100000000E-03 0. -1.
    9000002    1    1    2    0    0 -0.48813482807E+00 -0.12264249005E+00  0.17350650634E+00  0.10785477729E+01  0.93800000000E+00 0. -1.
         22    1    1    2    0    0  0.41156043816E+00  0.10350993261E+00  0.32239949263E+01  0.32518055884E+01  0.00000000000E+00 0. -1.
</event>
<event>
 5    1  0.3005426E+001  0.1544102E+01  0.7818608E-02  0.3416362E+00
         11   -1    0    0    0    0  0.00000000000E+00  0.00000000000E+00  0.39999999674E+01  0.40000000000E+01  0.51100000000E-03 0. -1.
    9000002   -1    0    0    0    0 -0.00000000000E+00 -0.00000000000E+00  0.00000000000E+00  0.93800000000E+00  0.93800000000E+00 0. -1.
         11    1    1    2    0    0 -0.15193468320E+00 -0.14220251958E+00  0.92566810075E+00  0.94877152065E+00  0.51100000000E-03 0. -1.
    9000002    1    1    2    0    0 -0.37866933895E-01 -0.15783557422E+00  0.59751194089E-01  0.95381349244E+00  0.93800000000E+00 0. -1.
         22    1    1    2    0    0  0.18980161709E+00  0.30003809380E+00  0.30145806725E+01  0.30354149869E+01  0.00000000000E+00 0. -1.
</event>
<event>
 5    1  0.3005426E+001  0.1599593E+01  0.7818608E-02  0.3353805E+00
         11   -1    0    0    0    0  0.00000000000E+00  0.00000000000E+00  0.39999999674E+01  0.40000000000E+01  0.51100000000E-03 0. -1.
    9000002   -1    0    0    0    0 -0.00000000000E+00 -0.00000000000E+00  0.00000000000E+00  0.93800000000E+00  0.93800000000E+00 0. -1.
         11    1    1    2    0    0 -0.47724264828E-01 -0.10625791159E+00  0.10765453241E+01  0.10828289086E+01  0.51100000000E-03 0. -1.
    9000002    1    1    2    0    0  0.14182738447E+00  0.40168960827E+00  0.12290061064E+00  0.10375057149E+01  0.93800000000E+00 0. -1.
         22    1    1    2    0    0 -0.94103119640E-01 -0.29543169668E+00  0.28005540326E+01  0.28176653765E+01  0.00000000000E+00 0. -1.
</event>
<event>
 5    1  0.3005426E+001  0.1599668E+01  0.7818608E-02  0.3353724E+00
         11   -1    0    0    0    0  0.00000000000E+00  0.00000000000E+00  0.39999999674E+01  0.40000000000E+01  0.51100000000E-03 0.  1.
    9000002   -1    0    0    0    0 -0.00000000000E+00 -0.00000000000E+00  0.00000000000E+00  0.93800000000E+00  0.93800000000E+00 0. -1.
         11    1    1    2    0    0  0.78974904008E-01  0.12251023554E+00  0.13344369008E+01  0.13423739779E+01  0.51100000000E-03 0.  1.
    9000002    1    1    2    0    0 -0.22077762361E+00 -0.35204940481E+00  0.11672281191E+00  0.10325452810E+01  0.93800000000E+00 0. -1.
         22    1    1    2    0    0  0.14180271960E+00  0.22953916927E+00  0.25488402547E+01  0.25630807411E+01  0.00000000000E+00 0.  1.
</event>
<event>
 5    1  0.3005426E+001  0.1599038E+01  0.7818608E-02  0.3354408E+00
         11   -1    0    0    0    0  0.00000000000E+00  0.00000000000E+00  0.39999999674E+01  0.40000000000E+01  0.51100000000E-03 0.  1.
    9000002   -1    0    0    0    0 -0.00000000000E+00 -0.00000000000E+00  0.00000000000E+00  0.93800000000E+00  0.93800000000E+00 0.  1.
         11    1    1    2    0    0  0.13377281025E+00 -0.94508620827E-01  0.13317290839E+01  0.13417636372E+01  0.51100000000E-03 0.  1.
    9000002    1    1    2    0    0 -0.30756635974E+00  0.29509649054E+00  0.12351712202E+00  0.10376798561E+01  0.93800000000E+00 0.  1.
         22    1    1    2    0    0  0.17379354949E+00 -0.20058786972E+00  0.25447537614E+01  0.25585565067E+01  0.00000000000E+00 0.  1.
</event>
<event>
 5    1  0.3005426E+001  0.1599675E+01  0.7818608E-02  0.3353716E+00
         11   -1    0    0    0    0  0.00000000000E+00  0.00000000000E+00  0.39999999674E+01  0.40000000000E+01  0.51100000000E-03 0. -1.
    9000002   -1    0    0    0    0 -0.00000000000E+00 -0.00000000000E+00  0.00000000000E+00  0.93800000000E+00  0.93800000000E+00 0.  1.
         11    1    1    2    0    0  0.75632093989E-01  0.85407028315E-01  0.11649660752E+01  0.11705386759E+01  0.51100000000E-03 0. -1.
    9000002    1    1    2    0    0 -0.25750695203E+00 -0.28384289087E+00  0.98864888952E-01  0.10180839274E+01  0.93800000000E+00 0.  1.
         22    1    1    2    0    0  0.18187485804E+00  0.19843586256E+00  0.27361690032E+01  0.27493773967E+01  0.00000000000E+00 0. -1.
</event>
<event>
 5    1  0.3005426E+001  0.1599676E+01  0.7818608E-02  0.3353715E+00
         11   -1    0    0    0    0  0.00000000000E+00  0.00000000000E+00  0.39999999674E+01  0.40000000000E+01  0.51100000000E-03 0.  1.
    9000002   -1    0    0    0    0 -0.00000000000E+00 -0.00000000000E+00  0.00000000000E+00  0.93800000000E+00  0.93800000000E+00 0.  1.
         11    1    1    2    0    0  0.28616266316E-01 -0.66976283762E-01  0.51273545195E+00  0.51788282274E+00  0.51100000000E-03 0.  1.
    9000002    1    1    2    0    0 -0.20664637196E+00  0.49955245973E+00  0.20150662715E+00  0.11012285430E+01  0.93800000000E+00 0.  1.
         22    1    1    2    0    0  0.17803010565E+00 -0.43257617597E+00  0.32857578883E+01  0.33188886343E+01  0.00000000000E+00 0.  1.
</event>
<event>
 5    1  0.3005426E+001  0.1594626E+01  0.7818608E-02  0.3359217E+00
         11   -1    0    0    0    0  0.00000000000E+00  0.00000000000E+00  0.39999999674E+01  0.40000000000E+01  0.51100000000E-03 0.  1.
    9000002   -1    0    0    0    0 -0.00000000000E+00 -0.00000000000E+00  0.00000000000E+00  0.93800000000E+00  0.93800000000E+00 0. -1.
         11    1    1    2    0    0 -0.85291303543E-01 -0.33498389184E-01  0.54211676061E+00  0.54980686772E+00  0.51100000000E-03 0.  1.
    9000002    1    1    2    0    0  0.24895363545E+00  0.46751241965E+00  0.19773384987E+00  0.10952116008E+01  0.93800000000E+00 0. -1.
         22    1    1    2    0    0 -0.16366233191E+00 -0.43401403047E+00  0.32601493569E+01  0.32929815315E+01  0.00000000000E+00 0.  1.
</event>
<event>
 5    1  0.3005426E+001  0.1599644E+01  0.7818608E-02  0.3353750E+00
         11   -1    0    0    0    0  0.00000000000E+00  0.00000000000E+00  0.39999999674E+01  0.40000000000E+01  0.51100000000E-03 0. -1.
    9000002   -1    0    0    0    0 -0.00000000000E+00 -0.00000000000E+00  0.00000000000E+00  0.93800000000E+00  0.93800000000E+00 0.  1.
         11    1    1    2    0    0 -0.21996868635E-01 -0.28963031121E-01  0.30145647499E+00  0.30364286067E+00  0.51100000000E-03 0. -1.
    9000002    1    1    2    0    0  0.26709016698E+00  0.32783601859E+00  0.12100763302E+00  0.10360021523E+01  0.93800000000E+00 0.  1.
         22    1    1    2    0    0 -0.24509329835E+00 -0.29887298746E+00  0.35775358594E+01  0.35983549870E+01  0.00000000000E+00 0. -1.
</event>
<event>
 5    1  0.3005426E+001  0.1599530E+01  0.7818608E-02  0.3353874E+00
         11   -1    0    0    0    0  0.00000000000E+00  0.00000000000E+00  0.39999999674E+01  0.40000000000E+01  0.51100000000E-03 0.  1.
    9000002   -1    0    0    0    0 -0.00000000000E+00 -0.00000000000E+00  0.00000000000E+00  0.93800000000E+00  0.93800000000E+00 0.  1.
         11    1    1    2    0    0  0.89935071227E-01  0.18100883175E-01  0.66363796968E+00  0.66994893457E+00  0.51100000000E-03 0.  1.
    9000002    1    1    2    0    0 -0.54559198223E+00 -0.15685511990E+00  0.22350164342E+00  0.11189598404E+01  0.93800000000E+00 0.  1.
         22    1    1    2    0    0  0.45565691100E+00  0.13875423673E+00  0.31128603543E+01  0.31490912251E+01  0.00000000000E+00 0.  1.
</event>
<event>
 5    1  0.3005426E+001  0.1599676E+01  0.7818608E-02  0.3353715E+00
         11   -1    0    0    0    0  0.00000000000E+00  0.00000000000E+00  0.39999999674E+01  0.40000000000E+01  0.51100000000E-03 0.  1.
    9000002   -1    0    0    0    0 -0.00000000000E+00 -0.00000000000E+00  0.00000000000E+00  0.93800000000E+00  0.93800000000E+00 0. -1.
         11    1    1    2    0    0 -0.49275293944E-01 -0.25229750719E-01  0.56780839441E+00  0.57050085784E+00  0.51100000000E-03 0.  1.
    9000002    1    1    2    0    0  0.33646192020E+00  0.17033719728E+00  0.95659619023E-01  0.10154881325E+01  0.93800000000E+00 0. -1.
         22    1    1    2    0    0 -0.28718662626E+00 -0.14510744656E+00  0.33365319539E+01  0.33520110097E+01  0.00000000000E+00 0.  1.
</event>
<event>
 5    1  0.3005426E+001  0.1552834E+01  0.7818608E-02  0.3406202E+00
         11   -1    0    0    0    0  0.00000000000E+00  0.00000000000E+00  0.39999999674E+01  0.40000000000E+01  0.51100000000E-03 0.  1.
    9000002   -1    0    0    0    0 -0.00000000000E+00 -0.00000000000E+00  0.00000000000E+00  0.93800000000E+00  0.93800000000E+00 0. -1.
         11    1    1    2    0    0  0.21717641742E-01 -0.18569571647E+00  0.75196238918E+00  0.77485627760E+00  0.51100000000E-03 0.  1.
    9000002    1    1    2    0    0 -0.15209076561E+00 -0.10168310349E+00  0.57890849250E-01  0.95742697108E+00  0.93800000000E+00 0. -1.
         22    1    1    2    0    0  0.13037312387E+00  0.28737881996E+00  0.31901467289E+01  0.32057167513E+01  0.00000000000E+00 0.  1.
</event>
<event>
 5    1  0.3005426E+001  0.1599674E+01  0.7818608E-02  0.3353717E+00
         11   -1    0    0    0    0  0.00000000000E+00  0.00000000000E+00  0.39999999674E+01  0.40000000000E+01  0.51100000000E-03 0. -1.
    9000002   -1    0    0    0    0 -0.00000000000E+00 -0.00000000000E+00  0.00000000000E+00  0.93800000000E+00  0.93800000000E+00 0. -1.
         11    1    1    2    0    0 -0.30015181254E-01 -0.12875382303E+00  0.13012792748E+01  0.13079780083E+01  0.51100000000E-03 0. -1.
    9000002    1    1    2    0    0  0.93117087446E-01  0.38995157604E+00  0.10843293184E+00  0.10258336728E+01  0.93800000000E+00 0. -1.
         22    1    1    2    0    0 -0.63101906192E-01 -0.26119775301E+00  0.25902877608E+01  0.26041883189E+01  0.00000000000E+00 0. -1.
</event>
<event>
 5    1  0.3005426E+001  0.1591143E+01  0.7818608E-02  0.3363033E+00
         11   -1    0    0    0    0  0.00000000000E+00  0.00000000000E+00  0.39999999674E+01  0.40000000000E+01  0.51100000000E-03 0. -1.
    9000002   -1    0    0    0    0 -0.00000000000E+00 -0.00000000000E+00  0.00000000000E+00  0.93800000000E+00  0.93800000000E+00 0. -1.
         11    1    1    2    0    0  0.32692450475E-01 -0.23276638014E-01  0.69124378904E+00  0.69240799765E+00  0.51100000000E-03 0. -1.
    9000002    1    1    2    0    0 -0.28490911906E-01 -0.32237825639E+00  0.76830048371E-01  0.99523179641E+00  0.93800000000E+00 0. -1.
         22    1    1    2    0    0 -0.42015385683E-02  0.34565489440E+00  0.32319261299E+01  0.32503602059E+01  0.00000000000E+00 0. -1.
</event>
<event>
 5    1  0.3005426E+001  0.1599677E+01  0.7818608E-02  0.3353715E+00
         11   -1    0    0    0    0  0.00000000000E+00  0.00000000000E+00  0.39999999674E+01  0.40000000000E+01  0.51100000000E-03 0.  1.
    9000002   -1    0    0    0    0 -0.00000000000E+00 -0.00000000000E+00  0.00000000000E+00  0.93800000000E+00  0.93800000000E+00 0. -1.
         11    1    1    2    0    0  0.30753132228E+00 -0.32919218130E+00  0.10455974040E+01  0.11385153485E+01  0.51100000000E-03 0.  1.
    9000002    1    1    2    0    0 -0.80006937316E+00  0.85839200847E+00  0.12724193582E+01  0.19687160448E+01  0.93800000000E+00 0. -1.
         22    1    1    2    0    0  0.49253805088E+00 -0.52919982717E+00  0.16819832052E+01  0.18307686067E+01  0.00000000000E+00 0.  1.
</event>
<event>
 5    1  0.3005426E+001  0.1573674E+01  0.7818608E-02  0.3382442E+00
         11   -1    0    0    0    0  0.00000000000E+00  0.00000000000E+00  0.39999999674E+01  0.40000000000E+01  0.51100000000E-03 0. -1.
    9000002   -1    0    0    0    0 -0.00000000000E+00 -0.00000000000E+00  0.00000000000E+00  0.93800000000E+00  0.93800000000E+00 0. -1.
         11    1    1    2    0    0 -0.62883860722E-01  0.41981457084E-02  0.14660905499E+00  0.15958220607E+00  0.51100000000E-03 0. -1.
    9000002    1    1    2    0    0 -0.29180575194E+00  0.19476997203E+00  0.10379137884E+00  0.10068279839E+01  0.93800000000E+00 0. -1.
         22    1    1    2    0    0  0.35468961266E+00 -0.19896811774E+00  0.37495995335E+01  0.37715898100E+01  0.00000000000E+00 0. -1.
</event>
<event>
 5    1  0.3005426E+001  0.1599072E+01  0.7818608E-02  0.3354371E+00
         11   -1    0    0    0    0  0.00000000000E+00  0.00000000000E+00  0.39999999674E+01  0.40000000000E+01  0.51100000000E-03 0.  1.
    9000002   -1    0    0    0    0 -0.00000000000E+00 -0.00000000000E+00  0.00000000000E+00  0.93800000000E+00  0.93800000000E+00 0. -1.
         11    1    1    2    0    0  0.39600790727E-01 -0.12581336525E+00  0.14860685118E+01  0.14919105565E+01  0.51100000000E-03 0.  1.
    9000002    1    1    2    0    0 -0.17945000228E+00  0.32485252170E+00  0.93066548548E-01  0.10130334874E+01  0.93800000000E+00 0. -1.
         22    1    1    2    0    0  0.13984921155E+00 -0.19903915645E+00  0.24208649070E+01  0.24330559561E+01  0.00000000000E+00 0.  1.
</event>
<event>
 5    1  0.3005426E+001  0.1599662E+01  0.7818608E-02  0.3353730E+00
         11   -1    0    0    0    0  0.00000000000E+00  0.00000000000E+00  0.39999999674E+01  0.40000000000E+01  0.51100000000E-03 0. -1.
    9000002   -1    0    0    0    0 -0.00000000000E+00 -0.00000000000E+00  0.00000000000E+00  0.93800000000E+00  0.93800000000E+00 0. -1.
         11    1    1    2    0    0  0.70826306888E-01  0.76101962189E-01  0.97857587330E+00  0.98408275837E+00  0.51100000000E-03 0. -1.
    9000002    1    1    2    0    0 -0.26856094769E+00 -0.29391094578E+00  0.10690377139E+00  0.10245882310E+01  0.93800000000E+00 0. -1.
         22    1    1    2    0    0  0.19773464080E+00  0.21780898359E+00  0.29145203227E+01  0.29293290107E+01  0.00000000000E+00 0. -1.
</event>
<event>
 5    1  0.3005426E+001  0.1599676E+01  0.7818608E-02  0.3353715E+00
         11   -1    0    0    0    0  0.00000000000E+00  0.00000000000E+00  0.39999999674E+01  0.40000000000E+01  0.51100000000E-03 0. -1.
    9000002   -1    0    0    0    0 -0.00000000000E+00 -0.00000000000E+00  0.00000000000E+00  0.93800000000E+00  0.93800000000E+00 0.  1.
         11    1    1    2    0    0  0.27794849091E-01 -0.82973153071E-02  0.29346483811E+00  0.29489535671E+00  0.51100000000E-03 0. -1.
    9000002    1    1    2    0    0 -0.36593758647E+00  0.10512326001E+00  0.97545313150E-01  0.10170153908E+01  0.93800000000E+00 0.  1.
         22    1    1    2    0    0  0.33814273738E+00 -0.96825944705E-01  0.36089898161E+01  0.36260892525E+01  0.00000000000E+00 0. -1.
</event>
<event>
 5    1  0.3005426E+001  0.1599437E+01  0.7818608E-02  0.3353975E+00
         11   -1    0    0    0    0  0.00000000000E+00  0.00000000000E+00  0.39999999674E+01  0.40000000000E+01  0.51100000000E-03 0. -1.
    9000002   -1    0    0    0    0 -0.00000000000E+00 -0.00000000000E+00  0.00000000000E+00  0.93800000000E+00  0.93800000000E+00 0. -1.
         11    1    1    2    0    0 -0.38007483517E-02 -0.83138673616E-01  0.34332069905E+00  0.35326455845E+00  0.51100000000E-03 0. -1.
    9000002    1    1    2    0    0 -0.72696738878E-01  0.85269207765E+00  0.55084375969E+00  0.13840669936E+01  0.93800000000E+00 0. -1.
         22    1    1    2    0    0  0.76497487230E-01 -0.76955340403E+00  0.31058355086E+01  0.32006684480E+01  0.00000000000E+00 0. -1.
</event>
<event>
 5    1  0.3005426E+001  0.1599676E+01  0.7818608E-02  0.3353715E+00
         11   -1    0    0    0    0  0.00000000000E+00  0.00000000000E+00  0.39999999674E+01  0.40000000000E+01  0.51100000000E-03 0. -1.
    9000002   -1    0    0    0    0 -0.00000000000E+00 -0.00000000000E+00  0.00000000000E+00  0.93800000000E+00  0.93800000000E+00 0. -1.
         11    1    1    2    0    0  0.30776841288E-01 -0.10301010832E+00  0.10089890265E+01  0.10147006520E+01  0.51100000000E-03 0. -1.
    9000002    1    1    2    0    0 -0.11627501092E+00  0.39365424632E+00  0.11380142161E+00  0.10301836280E+01  0.93800000000E+00 0. -1.
         22    1    1    2    0    0  0.85498169630E-01 -0.29064413799E+00  0.28772095192E+01  0.28931157200E+01  0.00000000000E+00 0. -1.
</event>
<event>
 5    1  0.3005426E+001  0.1599677E+01  0.7818608E-02  0.3353714E+00
         11   -1    0    0    0    0  0.00000000000E+00  0.00000000000E+00  0.39999999674E+01  0.40000000000E+01  0.51100000000E-03 0.  1.
    9000002   -1    0    0    0    0 -0.00000000000E+00 -0.00000000000E+00  0.00000000000E+00  0.93800000000E+00  0.93800000000E+00 0. -1.
         11    1    1    2    0    0 -0.26064892053E-01 -0.25146093976E+00  0.14512713002E+01  0.14731261422E+01  0.51100000000E-03 0. -1.
    9000002    1    1    2    0    0  0.65194005462E-01  0.64178808523E+00  0.29330676610E+00  0.11755913677E+01  0.93800000000E+00 0. -1.
         22    1    1    2    0    0 -0.39129113409E-01 -0.39032714547E+00  0.22554219010E+01  0.22892824901E+01  0.00000000000E+00 0.  1.
</event>
<event>
 5    1  0.3005426E+001  0.1599626E+01  0.7818608E-02  0.3353769E+00
         11   -1    0    0    0    0  0.00000000000E+00  0.00000000000E+00  0.39999999674E+01  0.40000000000E+01  0.51100000000E-03 0. -1.
    9000002   -1    0    0    0    0 -0.00000000000E+00 -0.00000000000E+00  0.00000000000E+00  0.93800000000E+00  0.93800000000E+00 0. -1.
         11    1    1    2    0    0  0.33239962494E-01  0.14422688971E+00  0.14434071639E+01  0.14509758071E+01  0.51100000000E-03 0. -1.
    9000002    1    1    2    0    0 -0.83067932717E-01 -0.40936678308E+00  0.11800876361E+00  0.10335625345E+01  0.93800000000E+00 0. -1.
         22    1    1    2    0    0  0.49827970223E-01  0.26513989336E+00  0.24385840398E+01  0.24534616583E+01  0.00000000000E+00 0. -1.
</event>
<event>
 5    1  0.3005426E+001  0.1597123E+01  0.7818608E-02  0.3356491E+00
         11   -1    0    0    0    0  0.00000000000E+00  0.00000000000E+00  0.39999999674E+01  0.40000000000E+01  0.51100000000E-03 0. -1.
    9000002   -1    0    0    0    0 -0.00000000000E+00 -0.00000000000E+00  0.00000000000E+00  0.93800000000E+00  0.93800000000E+00 0.  1.
         11    1    1    2    0    0  0.71987307817E-01 -0.85133310790E-01  0.10934936033E+01  0.10991625788E+01  0.51100000000E-03 0. -1.
    9000002    1    1    2    0    0 -0.36562398547E+00  0.14212380881E+00  0.10580971128E+00  0.10222131729E+01  0.93800000000E+00 0.  1.
         22    1    1    2    0    0  0.29363667765E+00 -0.56990498022E-01  0.28006966528E+01  0.28166242483E+01  0.00000000000E+00 0. -1.
</event>
<event>
 5    1  0.3005426E+001  0.1599677E+01  0.7818608E-02  0.3353714E+00
         11   -1    0    0    0    0  0.00000000000E+00  0.00000000000E+00  0.39999999674E+01  0.40000000000E+01  0.51100000000E-03 0.  1.
    9000002   -1    0    0    0    0 -0.00000000000E+00 -0.00000000000E+00  0.00000000000E+00  0.93800000000E+00  0.93800000000E+00 0. -1.
         11    1    1    2    0    0 -0.44283702472E-01 -0.56504779344E-01  0.71669794179E+00  0.72028469183E+00  0.51100000000E-03 0. -1.
    9000002    1    1    2    0    0  0.24163284808E+00  0.30575272725E+00  0.10230708246E+00  0.10208731080E+01  0.93800000000E+00 0. -1.
         22    1    1    2    0    0 -0.19734914561E+00 -0.24924794791E+00  0.31809949431E+01  0.31968422002E+01  0.00000000000E+00 0.  1.
</event>
<event>
 5    1  0.3005426E+001  0.1545790E+01  0.7818608E-02  0.3414388E+00
         11   -1    0    0    0    0  0.00000000000E+00  0.00000000000E+00  0.39999999674E+01  0.40000000000E+01  0.51100000000E-03 0.  1.
    9000002   -1    0    0    0    0 -0.00000000000E+00 -0.00000000000E+00  0.00000000000E+00  0.93800000000E+00  0.93800000000E+00 0. -1.
         11    1    1    2    0    0 -0.43061717043E-01 -0.21943954486E+00  0.10857030272E+01  0.11084941812E+01  0.51100000000E-03 0.  1.
    9000002    1    1    2    0    0 -0.12036333925E+00 -0.66789572989E-01  0.53254811563E-01  0.94954107623E+00  0.93800000000E+00 0. -1.
         22    1    1    2    0    0  0.16342505629E+00  0.28622911785E+00  0.28610421285E+01  0.28799647425E+01  0.00000000000E+00 0.  1.
</event>
<event>
 5    1  0.3005426E+001  0.1599677E+01  0.7818608E-02  0.3353714E+00
         11   -1    0    0    0    0  0.00000000000E+00  0.00000000000E+00  0.39999999674E+01  0.40000000000E+01  0.51100000000E-03 0. -1.
    9000002   -1    0    0    0    0 -0.00000000000E+00 -0.00000000000E+00  0.00000000000E+00  0.93800000000E+00  0.93800000000E+00 0.  1.
         11    1    1    2    0    0  0.11433859030E+00  0.59069367177E-01  0.12865245762E+01  0.12929455710E+01  0.51100000000E-03 0. -1.
    9000002    1    1    2    0    0 -0.34808575222E+00 -0.17805635117E+00  0.10299491473E+00  0.10214302265E+01  0.93800000000E+00 0.  1.
         22    1    1    2    0    0  0.23374716192E+00  0.11898698400E+00  0.26104804765E+01  0.26236242025E+01  0.00000000000E+00 0. -1.
</event>
<event>
 5    1  0.3005426E+001  0.1599559E+01  0.7818608E-02  0.3353842E+00
         11   -1    0    0    0    0  0.00000000000E+00  0.00000000000E+00  0.39999999674E+01  0.40000000000E+01  0.51100000000E-03 0. -1.
    9000002   -1    0    0    0    0 -0.00000000000E+00 -0.00000000000E+00  0.00000000000E+00  0.93800000000E+00  0.93800000000E+00 0. -1.
         11    1    1    2    0    0  0.32967213064E-02  0.55683833344E-02  0.45006936393E-01  0.45472636924E-01  0.51100000000E-03 0. -1.
    9000002    1    1    2    0    0 -0.27870622977E+00 -0.24399722518E+00  0.92312638233E-01  0.10127079695E+01  0.93800000000E+00 0. -1.
         22    1    1    2    0    0  0.27540950847E+00  0.23842884185E+00  0.38626803927E+01  0.38798193935E+01  0.00000000000E+00 0. -1.
</event>
<event>
 5    1  0.3005426E+001  0.1592455E+01  0.7818608E-02  0.3361594E+00
         11   -1    0    0    0    0  0.00000000000E+00  0.00000000000E+00  0.39999999674E+01  0.40000000000E+01  0.51100000000E-03 0.  1.
    9000002   -1    0    0    0    0 -0.00000000000E+00 -0.00000000000E+00  0.00000000000E+00  0.93800000000E+00  0.93800000000E+00 0.  1.
         11    1    1    2    0    0  0.24801964094E-01  0.35860013344E-01  0.11830323331E+01  0.11838356475E+01  0.51100000000E-03 0.  1.
    9000002    1    1    2    0    0  0.20500260432E+00 -0.24028082926E+00  0.72375699962E-01  0.99239265749E+00  0.93800000000E+00 0.  1.
         22    1    1    2    0    0 -0.22980456841E+00  0.20442081591E+00  0.27445919343E+01  0.27617716950E+01  0.00000000000E+00 0.  1.
</event>
<event>
 5    1  0.3005426E+001  0.1599675E+01  0.7818608E-02  0.3353716E+00
         11   -1    0    0    0    0  0.00000000000E+00  0.00000000000E+00  0.39999999674E+01  0.40000000000E+01  0.51100000000E-03 0.  1.
    9000002   -1    0    0    0    0 -0.00000000000E+00 -0.00000000000E+00  0.00000000000E+00  0.93800000000E+00  0.93800000000E+00 0. -1.
         11    1    1    2    0    0  0.91248708101E-01  0.11196305953E-01  0.74949158862E+00  0.75510898984E+00  0.51100000000E-03 0.  1.
    9000002    1    1    2    0    0 -0.46429196342E+00 -0.53834480664E-01  0.14876970996E+00  0.10585091427E+01  0.93800000000E+00 0. -1.
         22    1    1    2    0    0  0.37304325532E+00  0.42638174712E-01  0.31017386688E+01  0.31243818674E+01  0.00000000000E+00 0.  1.
</event>
<event>
 5    1  0.3005426E+001  0.1595777E+01  0.7818608E-02  0.3357959E+00
         11   -1    0    0    0    0  0.00000000000E+00  0.00000000000E+00  0.39999999674E+01  0.40000000000E+01  0.51100000000E-03 0. -1.
    9000002   -1    0    0    0    0 -0.00000000000E+00 -0.00000000000E+00  0.00000000000E+00  0.93800000000E+00  0.93800000000E+00 0.  1.
         11    1    1    2    0    0  0.46267350461E-02  0.63470303166E-01  0.21710147785E+00  0.22623704132E+00  0.51100000000E-03 0. -1.
    9000002    1    1    2    0    0 -0.61411335820E-01 -0.49366627365E+00  0.17285337674E+00  0.10757323235E+01  0.93800000000E+00 0.  1.
         22    1    1    2    0    0  0.56784600774E-01  0.43019597049E+00  0.36100451128E+01  0.36360306352E+01  0.00000000000E+00 0. -1.
</event>
<event>
 5    1  0.3005426E+001  0.1599301E+01  0.7818608E-02  0.3354122E+00
         11   -1    0    0    0    0  0.00000000000E+00  0.00000000000E+00  0.39999999674E+01  0.40000000000E+01  0.51100000000E-03 0. -1.
    9000002   -1    0    0    0    0 -0.00000000000E+00 -0.00000000000E+00  0.00000000000E+00  0.93800000000E+00  0.93800000000E+00 0.  1.
         11    1    1    2    0    0  0.40615215814E-01  0.17936789222E+00  0.11961058125E+01  0.12101618951E+01  0.51100000000E-03 0. -1.
    9000002    1    1    2    0    0 -0.14154584814E+00 -0.50316989111E+00  0.18811122974E+00  0.10901582459E+01  0.93800000000E+00 0.  1.
         22    1    1    2    0    0  0.10093063233E+00  0.32380199889E+00  0.26157829251E+01  0.26376798590E+01  0.00000000000E+00 0. -1.
</event>
<event>
 5    1  0.3005426E+001  0.1597108E+01  0.7818608E-02  0.3356508E+00
         11   -1    0    0    0    0  0.00000000000E+00  0.00000000000E+00  0.39999999674E+01  0.40000000000E+01  0.51100000000E-03 0. -1.
    9000002   -1    0    0    0    0 -0.00000000000E+00 -0.00000000000E+00  0.00000000000E+00  0.93800000000E+00  0.93800000000E+00 0. -1.
         11    1    1    2    0    0  0.50534794083E-01 -0.67352215181E-01  0.12023939293E+01  0.12053387526E+01  0.51100000000E-03 0. -1.
    9000002    1    1    2    0    0 -0.21457058734E+00  0.39104661868E+00  0.13726550390E+00  0.10476849782E+01  0.93800000000E+00 0. -1.
         22    1    1    2    0    0  0.16403579326E+00 -0.32369440350E+00  0.26603405342E+01  0.26849762692E+01  0.00000000000E+00 0. -1.
</event>
<event>
 5    1  0.3005426E+001  0.1599677E+01  0.7818608E-02  0.3353714E+00
         11   -1    0    0    0    0  0.00000000000E+00  0.00000000000E+00  0.39999999674E+01  0.40000000000E+01  0.51100000000E-03 0. -1.
    9000002   -1    0    0    0    0 -0.00000000000E+00 -0.00000000000E+00  0.00000000000E+00  0.93800000000E+00  0.93800000000E+00 0. -1.
         11    1    1    2    0    0  0.71866223916E-01 -0.10071615557E+00  0.12899748281E+01  0.12958949866E+01  0.51100000000E-03 0. -1.
    9000002    1    1    2    0    0 -0.21827440963E+00  0.30325319185E+00  0.93861335353E-01  0.10140316398E+01  0.93800000000E+00 0. -1.
         22    1    1    2    0    0  0.14640818572E+00 -0.20253703628E+00  0.26161638039E+01  0.26280733736E+01  0.00000000000E+00 0. -1.
</event>
<event>
 5    1  0.3005426E+001  0.1599665E+01  0.7818608E-02  0.3353728E+00
         11   -1    0    0    0    0  0.00000000000E+00  0.00000000000E+00  0.39999999674E+01  0.40000000000E+01  0.51100000000E-03 0. -1.
    9000002   -1    0    0    0    0 -0.00000000000E+00 -0.00000000000E+00  0.00000000000E+00  0.93800000000E+00  0.93800000000E+00 0. -1.
         11    1    1    2    0    0  0.18737513843E+00 -0.28021228358E-01  0.11201675909E+01  0.11360767248E+01  0.51100000000E-03 0. -1.
    9000002    1    1    2    0    0 -0.61183299736E+00  0.89201523681E-01  0.26780841573E+00  0.11549293814E+01  0.93800000000E+00 0. -1.
         22    1    1    2    0    0  0.42445785893E+00 -0.61180295323E-01  0.26120239607E+01  0.26469938938E+01  0.00000000000E+00 0. -1.
</event>
<event>
 5    1  0.3005426E+001  0.1599671E+01  0.7818608E-02  0.3353721E+00
         11   -1    0    0    0    0  0.00000000000E+00  0.00000000000E+00  0.39999999674E+01  0.40000000000E+01  0.51100000000E-03 0.  1.
    9000002   -1    0    0    0    0 -0.00000000000E+00 -0.00000000000E+00  0.00000000000E+00  0.93800000000E+00  0.93800000000E+00 0. -1.
         11    1    1    2    0    0  0.99786804264E-02 -0.22441889963E-01  0.22882533343E+00  0.23014018951E+00  0.51100000000E-03 0.  1.
    9000002    1    1    2    0    0 -0.18944428082E+00  0.38857697048E+00  0.12660869410E+00  0.10405551206E+01  0.93800000000E+00 0. -1.
         22    1    1    2    0    0  0.17946560040E+00 -0.36613508051E+00  0.36445659398E+01  0.36673046899E+01  0.00000000000E+00 0.  1.
</event>
<event>
 5    1  0.3005426E+001  0.1599513E+01  0.7818608E-02  0.3353892E+00
         11   -1    0    0    0    0  0.00000000000E+00  0.00000000000E+00  0.39999999674E+01  0.40000000000E+01  0.51100000000E-03 0.  1.
    9000002   -1    0    0    0    0 -0.00000000000E+00 -0.00000000000E+00  0.00000000000E+00  0.93800000000E+00  0.93800000000E+00 0. -1.
         11    1    1    2    0    0 -0.15742847908E+00 -0.26025271832E-01  0.13865729688E+01  0.13957241489E+01  0.51100000000E-03 0.  1.
    9000002    1    1    2    0    0  0.42446272591E+00  0.34565652214E-01  0.12289427046E+00  0.10374538022E+01  0.93800000000E+00 0. -1.
         22    1    1    2    0    0 -0.26703424683E+00 -0.85403803820E-02  0.24905327281E+01  0.25048220489E+01  0.00000000000E+00 0.  1.
</event>
<event>
 5    1  0.3005426E+001  0.1599577E+01  0.7818608E-02  0.3353823E+00
         11   -1    0    0    0    0  0.00000000000E+00  0.00000000000E+00  0.39999999674E+01  0.40000000000E+01  0.51100000000E-03 0.  1.
    9000002   -1    0    0    0    0 -0.00000000000E+00 -0.00000000000E+00  0.00000000000E+00  0.93800000000E+00  0.93800000000E+00 0.  1.
         11    1    1    2    0    0  0.23244808708E+00  0.15090938124E+00  0.13926728045E+01  0.14199801252E+01  0.51100000000E-03 0.  1.
    9000002    1    1    2    0    0 -0.62250980008E+00 -0.36779651974E+00  0.37612851759E+00  0.12426219831E+01  0.93800000000E+00 0.  1.
         22    1    1    2    0    0  0.39006171300E+00  0.21688713849E+00  0.22311986453E+01  0.22753978917E+01  0.00000000000E+00 0.  1.
</event>
<event>
 5    1  0.3005426E+001  0.1599677E+01  0.7818608E-02  0.3353714E+00
         11   -1    0    0    0    0  0.00000000000E+00  0.00000000000E+00  0.39999999674E+01  0.40000000000E+01  0.51100000000E-03 0.  1.
    9000002   -1    0    0    0    0 -0.00000000000E+00 -0.00000000000E+00  0.00000000000E+00  0.93800000000E+00  0.93800000000E+00 0. -1.
         11    1    1    2    0    0 -0.24282722992E-01  0.13032304953E+00  0.14440440929E+01  0.14501163233E+01  0.51100000000E-03 0.  1.
    9000002    1    1    2    0    0  0.65861676729E-01 -0.35425825957E+00  0.87157806562E-01  0.10086015855E+01  0.93800000000E+00 0. -1.
         22    1    1    2    0    0 -0.41578953736E-01  0.22393521004E+00  0.24687980679E+01  0.24792820912E+01  0.00000000000E+00 0.  1.
</event>
<event>
 5    1  0.3005426E+001  0.1580685E+01  0.7818608E-02  0.3374597E+00
         11   -1    0    0    0    0  0.00000000000E+00  0.00000000000E+00  0.39999999674E+01  0.40000000000E+01  0.51100000000E-03 0.  1.
    9000002   -1    0    0    0    0 -0.00000000000E+00 -0.00000000000E+00  0.00000000000E+00  0.93800000000E+00  0.93800000000E+00 0.  1.
         11    1    1    2    0    0  0.15283499715E+00 -0.11950295686E-01  0.12049622096E+01  0.12146750733E+01  0.51100000000E-03 0.  1.
    9000002    1    1    2    0    0 -0.82313580158E-01 -0.23553135624E+00  0.56004496059E-01  0.97222993619E+00  0.93800000000E+00 0.  1.
         22    1    1    2    0    0 -0.70521416992E-01  0.24748165193E+00  0.27390332617E+01  0.27510949905E+01  0.00000000000E+00 0.  1.
</event>
<event>
 5    1  0.3005426E+001  0.1595850E+01  0.7818608E-02  0.3357880E+00
         11   -1    0    0    0    0  0.00000000000E+00  0.00000000000E+00  0.39999999674E+01  0.40000000000E+01  0.51100000000E-03 0. -1.
    9000002   -1    0    0    0    0 -0.00000000000E+00 -0.00000000000E+00  0.00000000000E+00  0.93800000000E+00  0.93800000000E+00 0. -1.
         11    1    1    2    0    0 -0.13066533320E+00  0.52148349012E-01  0.11442878124E+01  0.11529040455E+01  0.51100000000E-03 0. -1.
    9000002    1    1    2    0    0  0.29727826238E+00 -0.35473736980E+00  0.14911726578E+00  0.10565476448E+01  0.93800000000E+00 0. -1.
         22    1    1    2    0    0 -0.16661292919E+00  0.30258902078E+00  0.27065948892E+01  0.27285483096E+01  0.00000000000E+00 0. -1.
</event>
<event>
 5    1  0.3005426E+001  0.1599184E+01  0.7818608E-02  0.3354250E+00
         11   -1    0    0    0    0  0.00000000000E+00  0.00000000000E+00  0.39999999674E+01  0.40000000000E+01  0.51100000000E-03 0.  1.
    9000002   -1    0    0    0    0 -0.00000000000E+00 -0.00000000000E+00  0.00000000000E+00  0.93800000000E+00  0.93800000000E+00 0.  1.
         11    1    1    2    0    0 -0.26722360653E-01  0.93356638049E-02  0.11822908909E+00  0.12157145144E+00  0.51100000000E-03 0.  1.
    9000002    1    1    2    0    0  0.56644222611E+00 -0.18764751200E+00  0.24874351206E+00  0.11392039848E+01  0.93800000000E+00 0.  1.
         22    1    1    2    0    0 -0.53971986546E+00  0.17831184819E+00  0.36330273662E+01  0.36772245637E+01  0.00000000000E+00 0.  1.
</event>
<event>
 5    1  0.3005426E+001  0.1599677E+01  0.7818608E-02  0.3353714E+00
         11   -1    0    0    0    0  0.00000000000E+00  0.00000000000E+00  0.39999999674E+01  0.40000000000E+01  0.51100000000E-03 0. -1.
    9000002   -1    0    0    0    0 -0.00000000000E+00 -0.00000000000E+00  0.00000000000E+00  0.93800000000E+00  0.93800000000E+00 0.  1.
         11    1    1    2    0    0 -0.65208664016E-01 -0.21812405477E-01  0.75299270309E+00  0.75612579834E+00  0.51100000000E-03 0.  1.
    9000002    1    1    2    0    0  0.33869667250E+00  0.11359932306E+00  0.85639932972E-01  0.10073720466E+01  0.93800000000E+00 0.  1.
         22    1    1    2    0    0 -0.27348800848E+00 -0.91786917587E-01  0.31613673313E+01  0.31745021551E+01  0.00000000000E+00 0. -1.
</event>
<event>
 5    1  0.3005426E+001  0.1599677E+01  0.7818608E-02  0.3353714E+00
         11   -1    0    0    0    0  0.00000000000E+00  0.00000000000E+00  0.39999999674E+01  0.40000000000E+01  0.51100000000E-03 0.  1.
    9000002   -1    0    0    0    0 -0.00000000000E+00 -0.00000000000E+00  0.00000000000E+00  0.93800000000E+00  0.93800000000E+00 0.  1.
         11    1    1    2    0    0  0.49436171218E-01 -0.63767299476E-01  0.84702963008E+00  0.85086406603E+00  0.51100000000E-03 0.  1.
    9000002    1    1    2    0    0 -0.22890422926E+00  0.29280090269E+00  0.92846654670E-01  0.10132097592E+01  0.93800000000E+00 0.  1.
         22    1    1    2    0    0  0.17946805804E+00 -0.22903360322E+00  0.30601236826E+01  0.30739261748E+01  0.00000000000E+00 0.  1.
</event>
<event>
 5    1  0.3005426E+001  0.1599668E+01  0.7818608E-02  0.3353724E+00
         11   -1    0    0    0    0  0.00000000000E+00  0.00000000000E+00  0.39999999674E+01  0.40000000000E+01  0.51100000000E-03 0. -1.
    9000002   -1    0    0    0    0 -0.00000000000E+00 -0.00000000000E+00  0.00000000000E+00  0.93800000000E+00  0.93800000000E+00 0.  1.
         11    1    1    2    0    0  0.78020518991E-01  0.59252372793E-01  0.90153238516E+00  0.90684008936E+00  0.51100000000E-03 0. -1.
    9000002    1    1    2    0    0 -0.33576888964E+00 -0.24225663746E+00  0.11585261602E+00  0.10318405179E+01  0.93800000000E+00 0.  1.
         22    1    1    2    0    0  0.25774837065E+00  0.18300426467E+00  0.29826149662E+01  0.29993193928E+01  0.00000000000E+00 0. -1.
</event>
<event>
 5    1  0.3005426E+001  0.1596819E+01  0.7818608E-02  0.3356823E+00
         11   -1    0    0    0    0  0.00000000000E+00  0.00000000000E+00  0.39999999674E+01  0.40000000000E+01  0.51100000000E-03 0.  1.
    9000002   -1    0    0    0    0 -0.00000000000E+00 -0.00000000000E+00  0.00000000000E+00  0.93800000000E+00  0.93800000000E+00 0. -1.
         11    1    1    2    0    0 -0.96660584570E-01  0.24209896598E+00  0.13953160185E+01  0.14194584286E+01  0.51100000000E-03 0.  1.
    9000002    1    1    2    0    0  0.40198076725E+00 -0.66253061191E+00  0.44230173756E+00  0.12946081168E+01  0.93800000000E+00 0. -1.
         22    1    1    2    0    0 -0.30532018268E+00  0.42043164593E+00  0.21623822113E+01  0.22239334547E+01  0.00000000000E+00 0.  1.
</event>
<event>
 5    1  0.3005426E+001  0.1599248E+01  0.7818608E-02  0.3354180E+00
         11   -1    0    0    0    0  0.00000000000E+00  0.00000000000E+00  0.39999999674E+01  0.40000000000E+01  0.51100000000E-03 0. -1.
    9000002   -1    0    0    0    0 -0.00000000000E+00 -0.00000000000E+00  0.00000000000E+00  0.93800000000E+00  0.93800000000E+00 0. -1.
         11    1    1    2    0    0 -0.19768922876E+00  0.27698165467E-02  0.12826048010E+01  0.12977534587E+01  0.51100000000E-03 0. -1.
    9000002    1    1    2    0    0  0.55260567131E+00 -0.70705706858E-01  0.21507413053E+00  0.11119681680E+01  0.93800000000E+00 0. -1.
         22    1    1    2    0    0 -0.35491644255E+00  0.67935890311E-01  0.25023210359E+01  0.25282783733E+01  0.00000000000E+00 0. -1.
</event>
<event>
 5    1  0.3005426E+001  0.1510100E+01  0.7818608E-02  0.3457116E+00
         11   -1    0    0    0    0  0.00000000000E+00  0.00000000000E+00  0.39999999674E+01  0.40000000000E+01  0.51100000000E-03 0.  1.
    9000002   -1    0    0    0    0 -0.00000000000E+00 -0.00000000000E+00  0.00000000000E+00  0.93800000000E+00  0.93800000000E+00 0.  1.
         11    1    1    2    0    0  0.24997567822E+00  0.53371142702E+00  0.13443448138E+01  0.14678552267E+01  0.51100000000E-03 0.  1.
    9000002    1    1    2    0    0  0.53177095911E-01 -0.77160566262E+00  0.55853147756E+00  0.13379105028E+01  0.93800000000E+00 0.  1.
         22    1    1    2    0    0 -0.30315277413E+00  0.23789423560E+00  0.20971236760E+01  0.21322342705E+01  0.00000000000E+00 0.  1.
</event>
<event>
 5    1  0.3005426E+001  0.1568534E+01  0.7818608E-02  0.3388240E+00
         11   -1    0    0    0    0  0.00000000000E+00  0.00000000000E+00  0.39999999674E+01  0.40000000000E+01  0.51100000000E-03 0.  1.
    9000002   -1    0    0    0    0 -0.00000000000E+00 -0.00000000000E+00  0.00000000000E+00  0.93800000000E+00  0.93800000000E+00 0. -1.
         11    1    1    2    0    0  0.14097304191E+00 -0.21853241185E+00  0.14429622243E+01  0.14662094173E+01  0.51100000000E-03 0.  1.
    9000002    1    1    2    0    0  0.16641288963E+00  0.50093522811E+00  0.22103330308E+00  0.10987852719E+01  0.93800000000E+00 0. -1.
         22    1    1    2    0    0 -0.30738593154E+00 -0.28240281626E+00  0.23360044400E+01  0.23730053108E+01  0.00000000000E+00 0.  1.
</event>
<event>
 5    1  0.3005426E+001  0.1599675E+01  0.7818608E-02  0.3353717E+00
         11   -1    0    0    0    0  0.00000000000E+00  0.00000000000E+00  0.39999999674E+01  0.40000000000E+01  0.51100000000E-03 0. -1.
    9000002   -1    0    0    0    0 -0.00000000000E+00 -0.00000000000E+00  0.00000000000E+00  0.93800000000E+00  0.93800000000E+00 0. -1.
         11    1    1    2    0    0  0.13510257257E+00  0.88946607843E-01  0.71023004169E+00  0.72841689807E+00  0.51100000000E-03 0. -1.
    9000002    1    1    2    0    0 -0.66451934463E+00 -0.44416635526E+00  0.47049528915E+00  0.13191207404E+01  0.93800000000E+00 0. -1.
         22    1    1    2    0    0  0.52941677205E+00  0.35521974742E+00  0.28192746365E+01  0.28904623616E+01  0.00000000000E+00 0. -1.
</event>
<event>
 5    1  0.3005426E+001  0.1599670E+01  0.7818608E-02  0.3353722E+00
         11   -1    0    0    0    0  0.00000000000E+00  0.00000000000E+00  0.39999999674E+01  0.40000000000E+01  0.51100000000E-03 0. -1.
    9000002   -1    0    0    0    0 -0.00000000000E+00 -0.00000000000E+00  0.00000000000E+00  0.93800000000E+00  0.93800000000E+00 0. -1.
         11    1    1    2    0    0 -0.38921605459E-01  0.11987708281E-01  0.42116483645E+00  0.42312962211E+00  0.51100000000E-03 0. -1.
    9000002    1    1    2    0    0  0.37269460316E+00 -0.97507298475E-01  0.99925293144E-01  0.10189396472E+01  0.93800000000E+00 0. -1.
         22    1    1    2    0    0 -0.33377299770E+00  0.85519590194E-01  0.34789098378E+01  0.34959307307E+01  0.00000000000E+00 0. -1.
</event>
<event>
 5    1  0.3005426E+001  0.1599674E+01  0.7818608E-02  0.3353717E+00
         11   -1    0    0    0    0  0.00000000000E+00  0.00000000000E+00  0.39999999674E+01  0.40000000000E+01  0.51100000000E-03 0.  1.
    9000002   -1    0    0    0    0 -0.00000000000E+00 -0.00000000000E+00  0.00000000000E+00  0.93800000000E+00  0.93800000000E+00 0.  1.
         11    1    1    2    0    0  0.20713847742E-01  0.49381170828E-01  0.58437869937E+00  0.58682730758E+00  0.51100000000E-03 0.  1.
    9000002    1    1    2    0    0 -0.14188282973E+00 -0.33894284743E+00  0.90709025163E-01  0.10114767019E+01  0.93800000000E+00 0.  1.
         22    1    1    2    0    0  0.12116898199E+00  0.28956167661E+00  0.33249122428E+01  0.33396959905E+01  0.00000000000E+00 0.  1.
</event>
<event>
 5    1  0.3005426E+001  0.1599676E+01  0.7818608E-02  0.3353715E+00
         11   -1    0    0    0    0  0.00000000000E+00  0.00000000000E+00  0.39999999674E+01  0.40000000000E+01  0.51100000000E-03 0.  1.
    9000002   -1    0    0    0    0 -0.00000000000E+00 -0.00000000000E+00  0.00000000000E+00  0.93800000000E+00  0.93800000000E+00 0. -1.
         11    1    1    2    0    0  0.30521288661E-01  0.36771326238E-01  0.51724154215E+00  0.51944465879E+00  0.51100000000E-03 0.  1.
    9000002    1    1    2    0    0 -0.23122960566E+00 -0.27253489821E+00  0.85724342249E-01  0.10074398563E+01  0.93800000000E+00 0. -1.
         22    1    1    2    0    0  0.20070831700E+00  0.23576357197E+00  0.33970340830E+01  0.34111154849E+01  0.00000000000E+00 0.  1.
</event>
<event>
 5    1  0.3005426E+001  0.1599676E+01  0.7818608E-02  0.3353715E+00
         11   -1    0    0    0    0  0.00000000000E+00  0.00000000000E+00  0.39999999674E+01  0.40000000000E+01  0.51100000000E-03 0. -1.
    9000002   -1    0    0    0    0 -0.00000000000E+00 -0.00000000000E+00  0.00000000000E+00  0.93800000000E+00  0.93800000000E+00 0.  1.
         11    1    1    2    0    0  0.83887062054E-01  0.23753336670E-01  0.82252148297E+00  0.82712944044E+00  0.51100000000E-03 0. -1.
    9000002    1    1    2    0    0 -0.39765996379E+00 -0.10916139236E+00  0.11488796543E+00  0.10310639655E+01  0.93800000000E+00 0.  1.
         22    1    1    2    0    0  0.31377290174E+00  0.85408055693E-01  0.30625905190E+01  0.30798065940E+01  0.00000000000E+00 0. -1.
</event>
<event>
 5    1  0.3005426E+001  0.1599634E+01  0.7818608E-02  0.3353761E+00
         11   -1    0    0    0    0  0.00000000000E+00  0.00000000000E+00  0.39999999674E+01  0.40000000000E+01  0.51100000000E-03 0.  1.
    9000002   -1    0    0    0    0 -0.00000000000E+00 -0.00000000000E+00  0.00000000000E+00  0.93800000000E+00  0.93800000000E+00 0. -1.
         11    1    1    2    0    0 -0.42736175867E-02  0.85771553843E-02  0.11962224743E+00  0.12000656067E+00  0.51100000000E-03 0.  1.
    9000002    1    1    2    0    0  0.22469740200E+00 -0.30019263778E+00  0.94582451936E-01  0.10145907463E+01  0.93800000000E+00 0. -1.
         22    1    1    2    0    0 -0.22042378441E+00  0.29161548239E+00  0.37857952680E+01  0.38034026930E+01  0.00000000000E+00 0.  1.
</event>
<event>
 5    1  0.3005426E+001  0.1573725E+01  0.7818608E-02  0.3382385E+00
         11   -1    0    0    0    0  0.00000000000E+00  0.00000000000E+00  0.39999999674E+01  0.40000000000E+01  0.51100000000E-03 0. -1.
    9000002   -1    0    0    0    0 -0.00000000000E+00 -0.00000000000E+00  0.00000000000E+00  0.93800000000E+00  0.93800000000E+00 0. -1.
         11    1    1    2    0    0 -0.11933987357E+00  0.19999790428E+00  0.11921742679E+01  0.12147102178E+01  0.51100000000E-03 0. -1.
    9000002    1    1    2    0    0  0.47506392077E+00 -0.72303683321E-01  0.18092766725E+00  0.10693420277E+01  0.93800000000E+00 0. -1.
         22    1    1    2    0    0 -0.35572404720E+00 -0.12769422096E+00  0.26268980322E+01  0.26539477545E+01  0.00000000000E+00 0. -1.
</event>
<event>
 5    1  0.3005426E+001  0.1598346E+01  0.7818608E-02  0.3355161E+00
         11   -1    0    0    0    0  0.00000000000E+00  0.00000000000E+00  0.39999999674E+01  0.40000000000E+01  0.51100000000E-03 0.  1.
    9000002   -1    0    0    0    0 -0.00000000000E+00 -0.00000000000E+00  0.00000000000E+00  0.93800000000E+00  0.93800000000E+00 0.  1.
         11    1    1    2    0    0 -0.79208587573E-02 -0.29561534142E-01  0.19174460276E+00  0.19417228976E+00  0.51100000000E-03 0.  1.
    9000002    1    1    2    0    0  0.43223691868E+00  0.32256897329E+00  0.20175371015E+00  0.11006489249E+01  0.93800000000E+00 0.  1.
         22    1    1    2    0    0 -0.42431605993E+00 -0.29300743915E+00  0.36065016545E+01  0.36431787853E+01  0.00000000000E+00 0.  1.
</event>
<event>
 5    1  0.3005426E+001  0.1599673E+01  0.7818608E-02  0.3353718E+00
         11   -1    0    0    0    0  0.00000000000E+00  0.00000000000E+00  0.39999999674E+01  0.40000000000E+01  0.51100000000E-03 0. -1.
    9000002   -1    0    0    0    0 -0.00000000000E+00 -0.00000000000E+00  0.00000000000E+00  0.93800000000E+00  0.93800000000E+00 0.  1.
         11    1    1    2    0    0 -0.30607159279E-01  0.33739333121E-01  0.50373944529E+00  0.50579524579E+00  0.51100000000E-03 0. -1.
    9000002    1    1    2    0    0  0.23954597912E+00 -0.27389321957E+00  0.88917522628E-01  0.10100248005E+01  0.93800000000E+00 0.  1.
         22    1    1    2    0    0 -0.20893881984E+00  0.24015388644E+00  0.34073429994E+01  0.34221799537E+01  0.00000000000E+00 0. -1.
</event>
<event>
 5    1  0.3005426E+001  0.1599662E+01  0.7818608E-02  0.3353730E+00
         11   -1    0    0    0    0  0.00000000000E+00  0.00000000000E+00  0.39999999674E+01  0.40000000000E+01  0.51100000000E-03 0. -1.
    9000002   -1    0    0    0    0 -0.00000000000E+00 -0.00000000000E+00  0.00000000000E+00  0.93800000000E+00  0.93800000000E+00 0. -1.
         11    1    1    2    0    0 -0.11365125662E+00  0.62677213236E-01  0.47836416366E+00  0.49565872874E+00  0.51100000000E-03 0. -1.
    9000002    1    1    2    0    0  0.80614490443E+00 -0.41904531102E+00  0.63422530318E+00  0.14517418210E+01  0.93800000000E+00 0. -1.
         22    1    1    2    0    0 -0.69249364781E+00  0.35636809778E+00  0.28874105005E+01  0.29905994503E+01  0.00000000000E+00 0. -1.
</event>
<event>
 5    1  0.3005426E+001  0.1599677E+01  0.7818608E-02  0.3353714E+00
         11   -1    0    0    0    0  0.00000000000E+00  0.00000000000E+00  0.39999999674E+01  0.40000000000E+01  0.51100000000E-03 0.  1.
    9000002   -1    0    0    0    0 -0.00000000000E+00 -0.00000000000E+00  0.00000000000E+00  0.93800000000E+00  0.93800000000E+00 0.  1.
         11    1    1    2    0    0 -0.12007324967E+00  0.25068740735E-01  0.85135780365E+00  0.86014905569E+00  0.51100000000E-03 0.  1.
    9000002    1    1    2    0    0  0.53313630145E+00 -0.11113969286E+00  0.20464410949E+00  0.11037706097E+01  0.93800000000E+00 0.  1.
         22    1    1    2    0    0 -0.41306305178E+00  0.86070952129E-01  0.29439980542E+01  0.29740803346E+01  0.00000000000E+00 0.  1.
</event>
<event>
 5    1  0.3005426E+001  0.1573079E+01  0.7818608E-02  0.3383112E+00
         11   -1    0    0    0    0  0.00000000000E+00  0.00000000000E+00  0.39999999674E+01  0.40000000000E+01  0.51100000000E-03 0. -1.
    9000002   -1    0    0    0    0 -0.00000000000E+00 -0.00000000000E+00  0.00000000000E+00  0.93800000000E+00  0.93800000000E+00 0.  1.
         11    1    1    2    0    0 -0.62923789158E-01 -0.20522783308E-01  0.10676889505E+00  0.12562024497E+00  0.51100000000E-03 0. -1.
    9000002    1    1    2    0    0  0.13651513069E+00 -0.37045649309E+00  0.12746213883E+00  0.10256534459E+01  0.93800000000E+00 0.  1.
         22    1    1    2    0    0 -0.73591341531E-01  0.39097927640E+00  0.37657689335E+01  0.37867263092E+01  0.00000000000E+00 0. -1.
</event>
<event>
 5    1  0.3005426E+001  0.1599675E+01  0.7818608E-02  0.3353716E+00
         11   -1    0    0    0    0  0.00000000000E+00  0.00000000000E+00  0.39999999674E+01  0.40000000000E+01  0.51100000000E-03 0. -1.
    9000002   -1    0    0    0    0 -0.00000000000E+00 -0.00000000000E+00  0.00000000000E+00  0.93800000000E+00  0.93800000000E+00 0.  1.
         11    1    1    2    0    0 -0.58838722496E-01  0.15165257029E+00  0.13455258317E+01  0.13553230324E+01  0.51100000000E-03 0. -1.
    9000002    1    1    2    0    0  0.17008692668E+00 -0.43821453008E+00  0.15053217650E+00  0.10599365420E+01  0.93800000000E+00 0.  1.
         22    1    1    2    0    0 -0.11124820418E+00  0.28656195979E+00  0.25039419592E+01  0.25227404255E+01  0.00000000000E+00 0. -1.
</event>
<event>
 5    1  0.3005426E+001  0.1598317E+01  0.7818608E-02  0.3355192E+00
         11   -1    0    0    0    0  0.00000000000E+00  0.00000000000E+00  0.39999999674E+01  0.40000000000E+01  0.51100000000E-03 0.  1.
    9000002   -1    0    0    0    0 -0.00000000000E+00 -0.00000000000E+00  0.00000000000E+00  0.93800000000E+00  0.93800000000E+00 0.  1.
         11    1    1    2    0    0 -0.62237715208E-01  0.10516330469E+00  0.76572700365E+00  0.77541663581E+00  0.51100000000E-03 0.  1.
    9000002    1    1    2    0    0  0.24446552413E+00 -0.36521564491E+00  0.13214712434E+00  0.10442474430E+01  0.93800000000E+00 0.  1.
         22    1    1    2    0    0 -0.18222780892E+00  0.26005234022E+00  0.31021258394E+01  0.31183359212E+01  0.00000000000E+00 0.  1.
</event>
<event>
 5    1  0.3005426E+001  0.1595344E+01  0.7818608E-02  0.3358432E+00
         11   -1    0    0    0    0  0.00000000000E+00  0.00000000000E+00  0.39999999674E+01  0.40000000000E+01  0.51100000000E-03 0. -1.
    9000002   -1    0    0    0    0 -0.00000000000E+00 -0.00000000000E+00  0.00000000000E+00  0.93800000000E+00  0.93800000000E+00 0.  1.
         11    1    1    2    0    0  0.18464863791E-01 -0.13674997343E+00  0.14212615977E+01  0.14279447807E+01  0.51100000000E-03 0. -1.
    9000002    1    1    2    0    0 -0.25476035480E+00  0.33248624604E+00  0.12230230954E+00  0.10345297468E+01  0.93800000000E+00 0.  1.
         22    1    1    2    0    0  0.23629549100E+00 -0.19573627261E+00  0.24564360601E+01  0.24755254724E+01  0.00000000000E+00 0. -1.
</event>
<event>
 5    1  0.3278162E+001  0.1596428E+01  0.7818608E-02  0.3357249E+00
         11   -1    0    0    0    0  0.00000000000E+00  0.00000000000E+00  0.39999999674E+01  0.40000000000E+01  0.51100000000E-03 0.  1.
    9000002   -1    0    0    0    0 -0.00000000000E+00 -0.00000000000E+00  0.00000000000E+00  0.93800000000E+00  0.93800000000E+00 0.  1.
         11    1    1    2    0    0 -0.40779977662E-01 -0.10018560287E+00  0.14713791110E+01  0.14753497589E+01  0.51100000000E-03 0.  1.
    9000002    1    1    2    0    0 -0.65589945453E-01  0.29972698764E+00  0.65397632396E-01  0.98906984505E+00  0.93800000000E+00 0.  1.
         22    1    1    2    0    0  0.10636992312E+00 -0.19954138477E+00  0.24632232239E+01  0.24735803960E+01  0.00000000000E+00 0.  1.
</event>
<event>
 5    1  0.3005426E+001  0.1599677E+01  0.7818608E-02  0.3353715E+00
         11   -1    0    0    0    0  0.00000000000E+00  0.00000000000E+00  0.39999999674E+01  0.40000000000E+01  0.51100000000E-03 0.  1.
    9000002   -1    0    0    0    0 -0.00000000000E+00 -0.00000000000E+00  0.00000000000E+00  0.93800000000E+00  0.93800000000E+00 0. -1.
         11    1    1    2    0    0 -0.13249778632E+00  0.71428371981E-01  0.96411087959E+00  0.97579082030E+00  0.51100000000E-03 0.  1.
    9000002    1    1    2    0    0  0.51681214058E+00 -0.27604019574E+00  0.23880718547E+00  0.11314441436E+01  0.93800000000E+00 0. -1.
         22    1    1    2    0    0 -0.38431435426E+00  0.20461182376E+00  0.27970819023E+01  0.28307650361E+01  0.00000000000E+00 0. -1.
</event>
<event>
 5    1  0.3005426E+001  0.1599661E+01  0.7818608E-02  0.3353732E+00
         11   -1    0    0    0    0  0.00000000000E+00  0.00000000000E+00  0.39999999674E+01  0.40000000000E+01  0.51100000000E-03 0.  1.
    9000002   -1    0    0    0    0 -0.00000000000E+00 -0.00000000000E+00  0.00000000000E+00  0.93800000000E+00  0.93800000000E+00 0. -1.
         11    1    1    2    0    0  0.85315731915E-01 -0.15963790357E+00  0.11454105376E+01  0.11596243337E+01  0.51100000000E-03 0.  1.
    9000002    1    1    2    0    0 -0.26801127826E+00  0.51650901874E+00  0.23537192395E+00  0.11286520962E+01  0.93800000000E+00 0. -1.
         22    1    1    2    0    0  0.18269554635E+00 -0.35687111517E+00  0.26192175058E+01  0.26497235701E+01  0.00000000000E+00 0.  1.
</event>
<event>
 5    1  0.3005426E+001  0.1594970E+01  0.7818608E-02  0.3358841E+00
         11   -1    0    0    0    0  0.00000000000E+00  0.00000000000E+00  0.39999999674E+01  0.40000000000E+01  0.51100000000E-03 0.  1.
    9000002   -1    0    0    0    0 -0.00000000000E+00 -0.00000000000E+00  0.00000000000E+00  0.93800000000E+00  0.93800000000E+00 0. -1.
         11    1    1    2    0    0 -0.29680070725E-01 -0.11069587063E+00  0.13458388444E+01  0.13507097907E+01  0.51100000000E-03 0.  1.
    9000002    1    1    2    0    0  0.30336681853E+00  0.25452001587E+00  0.10963409070E+00  0.10240485823E+01  0.93800000000E+00 0. -1.
         22    1    1    2    0    0 -0.27368674780E+00 -0.14382414524E+00  0.25445270322E+01  0.25632416270E+01  0.00000000000E+00 0. -1.
</event>
<event>
 5    1  0.3005426E+001  0.1599666E+01  0.7818608E-02  0.3353726E+00
         11   -1    0    0    0    0  0.00000000000E+00  0.00000000000E+00  0.39999999674E+01  0.40000000000E+01  0.51100000000E-03 0. -1.
    9000002   -1    0    0    0    0 -0.00000000000E+00 -0.00000000000E+00  0.00000000000E+00  0.93800000000E+00  0.93800000000E+00 0.  1.
         11    1    1    2    0    0 -0.85103493255E-01 -0.28145238007E-01  0.93596166662E+00  0.94024425629E+00  0.51100000000E-03 0. -1.
    9000002    1    1    2    0    0  0.36717876319E+00  0.11103399505E+00  0.99059759626E-01  0.10182365286E+01  0.93800000000E+00 0.  1.
         22    1    1    2    0    0 -0.28207526993E+00 -0.82888757041E-01  0.29649785411E+01  0.29795192151E+01  0.00000000000E+00 0. -1.
</event>
<event>
 5    1  0.3005426E+001  0.1596386E+01  0.7818608E-02  0.3357295E+00
         11   -1    0    0    0    0  0.00000000000E+00  0.00000000000E+00  0.39999999674E+01  0.40000000000E+01  0.51100000000E-03 0.  1.
    9000002   -1    0    0    0    0 -0.00000000000E+00 -0.00000000000E+00  0.00000000000E+00  0.93800000000E+00  0.93800000000E+00 0.  1.
         11    1    1    2    0    0  0.25548081290E-01 -0.55703763994E-01  0.11037483934E+01  0.11054485021E+01  0.51100000000E-03 0.  1.
    9000002    1    1    2    0    0 -0.30279901438E+00  0.13585127899E+00  0.76334784066E-01  0.99790471107E+00  0.93800000000E+00 0.  1.
         22    1    1    2    0    0  0.27725093309E+00 -0.80147515000E-01  0.28199167899E+01  0.28346467868E+01  0.00000000000E+00 0.  1.
</event>
<event>
 5    1  0.3005426E+001  0.1589636E+01  0.7818608E-02  0.3364690E+00
         11   -1    0    0    0    0  0.00000000000E+00  0.00000000000E+00  0.39999999674E+01  0.40000000000E+01  0.51100000000E-03 0. -1.
    9000002   -1    0    0    0    0 -0.00000000000E+00 -0.00000000000E+00  0.00000000000E+00  0.93800000000E+00  0.93800000000E+00 0. -1.
         11    1    1    2    0    0  0.80773510954E-02 -0.32410135992E+00  0.13882850004E+01  0.14256375551E+01  0.51100000000E-03 0. -1.
    9000002    1    1    2    0    0  0.11590252932E+00  0.58743692144E+00  0.26010669167E+00  0.11428101435E+01  0.93800000000E+00 0. -1.
         22    1    1    2    0    0 -0.12397988042E+00 -0.26333556151E+00  0.23516082753E+01  0.23695523014E+01  0.00000000000E+00 0. -1.
</event>
<event>
 5    1  0.3005426E+001  0.1599625E+01  0.7818608E-02  0.3353770E+00
         11   -1    0    0    0    0  0.00000000000E+00  0.00000000000E+00  0.39999999674E+01  0.40000000000E+01  0.51100000000E-03 0. -1.
    9000002   -1    0    0    0    0 -0.00000000000E+00 -0.00000000000E+00  0.00000000000E+00  0.93800000000E+00  0.93800000000E+00 0.  1.
         11    1    1    2    0    0  0.53599363647E-01 -0.15167250869E-01  0.53596552687E+00  0.53885271123E+00  0.51100000000E-03 0. -1.
    9000002    1    1    2    0    0 -0.40693706616E+00  0.14823187035E+00  0.12712908456E+00  0.10409496949E+01  0.93800000000E+00 0.  1.
         22    1    1    2    0    0  0.35333770251E+00 -0.13306461948E+00  0.33369053559E+01  0.33581975939E+01  0.00000000000E+00 0. -1.
</event>
<event>
 5    1  0.3005426E+001  0.1598490E+01  0.7818608E-02  0.3355004E+00
         11   -1    0    0    0    0  0.00000000000E+00  0.00000000000E+00  0.39999999674E+01  0.40000000000E+01  0.51100000000E-03 0.  1.
    9000002   -1    0    0    0    0 -0.00000000000E+00 -0.00000000000E+00  0.00000000000E+00  0.93800000000E+00  0.93800000000E+00 0.  1.
         11    1    1    2    0    0  0.83556741497E-01  0.42968073048E+00  0.13470857652E+01  0.14164206928E+01  0.51100000000E-03 0.  1.
    9000002    1    1    2    0    0 -0.16867248277E+00 -0.10602819104E+01  0.97529696001E+00  0.17273379218E+01  0.93800000000E+00 0.  1.
         22    1    1    2    0    0  0.85115741275E-01  0.63060117996E+00  0.16776172422E+01  0.17942413853E+01  0.00000000000E+00 0.  1.
</event>
<event>
 5    1  0.3005426E+001  0.1599654E+01  0.7818608E-02  0.3353739E+00
         11   -1    0    0    0    0  0.00000000000E+00  0.00000000000E+00  0.39999999674E+01  0.40000000000E+01  0.51100000000E-03 0.  1.
    9000002   -1    0    0    0    0 -0.00000000000E+00 -0.00000000000E+00  0.00000000000E+00  0.93800000000E+00  0.93800000000E+00 0. -1.
         11    1    1    2    0    0  0.14758459636E+00 -0.40249935747E-01  0.12273434393E+01  0.12368401067E+01  0.51100000000E-03 0.  1.
    9000002    1    1    2    0    0 -0.45281298004E+00  0.14006627239E+00  0.15316299153E+00  0.10620551104E+01  0.93800000000E+00 0. -1.
         22    1    1    2    0    0  0.30522838368E+00 -0.99816336639E-01  0.26194935365E+01  0.26391047829E+01  0.00000000000E+00 0.  1.
</event>
<event>
 5    1  0.3005426E+001  0.1550114E+01  0.7818608E-02  0.3409354E+00
         11   -1    0    0    0    0  0.00000000000E+00  0.00000000000E+00  0.39999999674E+01  0.40000000000E+01  0.51100000000E-03 0.  1.
    9000002   -1    0    0    0    0 -0.00000000000E+00 -0.00000000000E+00  0.00000000000E+00  0.93800000000E+00  0.93800000000E+00 0. -1.
         11    1    1    2    0    0  0.13577465826E+00  0.20483344036E+00  0.93952496024E+00  0.97113279635E+00  0.51100000000E-03 0.  1.
    9000002    1    1    2    0    0 -0.24527798382E+00  0.48181982720E-01  0.80391573571E-01  0.97405831340E+00  0.93800000000E+00 0. -1.
         22    1    1    2    0    0  0.10950332557E+00 -0.25301542308E+00  0.29800834336E+01  0.29928088902E+01  0.00000000000E+00 0. -1.
</event>
<event>
 5    1  0.3005426E+001  0.1454961E+01  0.7818608E-02  0.3527579E+00
         11   -1    0    0    0    0  0.00000000000E+00  0.00000000000E+00  0.39999999674E+01  0.40000000000E+01  0.51100000000E-03 0. -1.
    9000002   -1    0    0    0    0 -0.00000000000E+00 -0.00000000000E+00  0.00000000000E+00  0.93800000000E+00  0.93800000000E+00 0.  1.
         11    1    1    2    0    0  0.50481808296E-01  0.17848840968E+00  0.14032483036E+00  0.23258943333E+00  0.51100000000E-03 0. -1.
    9000002    1    1    2    0    0 -0.36926257538E+00  0.67698502526E+00  0.66835391742E+00  0.13860752263E+01  0.93800000000E+00 0.  1.
         22    1    1    2    0    0  0.31878076709E+00 -0.85547343494E+00  0.31913212196E+01  0.33193353404E+01  0.00000000000E+00 0. -1.
</event>
<event>
 5    1  0.3005426E+001  0.1599677E+01  0.7818608E-02  0.3353714E+00
         11   -1    0    0    0    0  0.00000000000E+00  0.00000000000E+00  0.39999999674E+01  0.40000000000E+01  0.51100000000E-03 0.  1.
    9000002   -1    0    0    0    0 -0.00000000000E+00 -0.00000000000E+00  0.00000000000E+00  0.93800000000E+00  0.93800000000E+00 0.  1.
         11    1    1    2    0    0 -0.11431722735E+00 -0.33475315526E-01  0.11426854402E+01  0.11488774093E+01  0.51100000000E-03 0.  1.
    9000002    1    1    2    0    0  0.38824635312E+00  0.11474210628E+00  0.11062388394E+00  0.10276101524E+01  0.93800000000E+00 0.  1.
         22    1    1    2    0    0 -0.27392912577E+00 -0.81266790754E-01  0.27466906433E+01  0.27615124383E+01  0.00000000000E+00 0.  1.
</event>
<event>
 5    1  0.3005426E+001  0.1599674E+01  0.7818608E-02  0.3353717E+00
         11   -1    0    0    0    0  0.00000000000E+00  0.00000000000E+00  0.39999999674E+01  0.40000000000E+01  0.51100000000E-03 0.  1.
    9000002   -1    0    0    0    0 -0.00000000000E+00 -0.00000000000E+00  0.00000000000E+00  0.93800000000E+00  0.93800000000E+00 0.  1.
         11    1    1    2    0    0 -0.43556622606E-01 -0.15890822820E+00  0.11228315695E+01  0.11348568187E+01  0.51100000000E-03 0.  1.
    9000002    1    1    2    0    0  0.14309161026E+00  0.54027465518E+00  0.21612698131E+00  0.11130708800E+01  0.93800000000E+00 0.  1.
         22    1    1    2    0    0 -0.99534987654E-01 -0.38136642698E+00  0.26610414166E+01  0.26900723013E+01  0.00000000000E+00 0.  1.
</event>
<event>
 5    1  0.3005426E+001  0.1599672E+01  0.7818608E-02  0.3353719E+00
         11   -1    0    0    0    0  0.00000000000E+00  0.00000000000E+00  0.39999999674E+01  0.40000000000E+01  0.51100000000E-03 0.  1.
    9000002   -1    0    0    0    0 -0.00000000000E+00 -0.00000000000E+00  0.00000000000E+00  0.93800000000E+00  0.93800000000E+00 0. -1.
         11    1    1    2    0    0  0.51710312369E-01 -0.23987008399E-01  0.61829959530E+00  0.62092188208E+00  0.51100000000E-03 0.  1.
    9000002    1    1    2    0    0 -0.33043865230E+00  0.14065657189E+00  0.86570438268E-01  0.10081232142E+01  0.93800000000E+00 0. -1.
         22    1    1    2    0    0  0.27872833993E+00 -0.11666956349E+00  0.32951299338E+01  0.33089549038E+01  0.00000000000E+00 0.  1.
</event>
<event>
 5    1  0.3005426E+001  0.1547475E+01  0.7818608E-02  0.3412423E+00
         11   -1    0    0    0    0  0.00000000000E+00  0.00000000000E+00  0.39999999674E+01  0.40000000000E+01  0.51100000000E-03 0. -1.
    9000002   -1    0    0    0    0 -0.00000000000E+00 -0.00000000000E+00  0.00000000000E+00  0.93800000000E+00  0.93800000000E+00 0. -1.
         11    1    1    2    0    0  0.18798399351E+00 -0.69970352596E-01  0.94907804944E+00  0.97004290478E+00  0.51100000000E-03 0. -1.
    9000002    1    1    2    0    0  0.46995428220E-01 -0.23038372855E+00  0.77435407638E-01  0.97011621727E+00  0.93800000000E+00 0. -1.
         22    1    1    2    0    0 -0.23497942173E+00  0.30035408115E+00  0.29734865103E+01  0.29978408779E+01  0.00000000000E+00 0.  1.
</event>
<event>
 5    1  0.3005426E+001  0.1599654E+01  0.7818608E-02  0.3353739E+00
         11   -1    0    0    0    0  0.00000000000E+00  0.00000000000E+00  0.39999999674E+01  0.40000000000E+01  0.51100000000E-03 0.  1.
    9000002   -1    0    0    0    0 -0.00000000000E+00 -0.00000000000E+00  0.00000000000E+00  0.93800000000E+00  0.93800000000E+00 0. -1.
         11    1    1    2    0    0 -0.96588081412E-01  0.85039833192E-01  0.14581777784E+01  0.14638455264E+01  0.51100000000E-03 0.  1.
    9000002    1    1    2    0    0  0.25833845640E+00 -0.24344519945E+00  0.84552794382E-01  0.10064777684E+01  0.93800000000E+00 0. -1.
         22    1    1    2    0    0 -0.16175037498E+00  0.15840536626E+00  0.24572693946E+01  0.24676767052E+01  0.00000000000E+00 0.  1.
</event>
<event>
 5    1  0.3005426E+001  0.1599433E+01  0.7818608E-02  0.3353978E+00
         11   -1    0    0    0    0  0.00000000000E+00  0.00000000000E+00  0.39999999674E+01  0.40000000000E+01  0.51100000000E-03 0.  1.
    9000002   -1    0    0    0    0 -0.00000000000E+00 -0.00000000000E+00  0.00000000000E+00  0.93800000000E+00  0.93800000000E+00 0.  1.
         11    1    1    2    0    0  0.73012591459E-03  0.24281148957E-01  0.17362813240E+00  0.17531998391E+00  0.51100000000E-03 0.  1.
    9000002    1    1    2    0    0 -0.92358467138E-01 -0.38746558724E+00  0.10719850245E+00  0.10246927279E+01  0.93800000000E+00 0.  1.
         22    1    1    2    0    0  0.91628341224E-01  0.36318443828E+00  0.37191733325E+01  0.37379872882E+01  0.00000000000E+00 0.  1.
</event>
<event>
 5    1  0.3005426E+001  0.1599274E+01  0.7818608E-02  0.3354151E+00
         11   -1    0    0    0    0  0.00000000000E+00  0.00000000000E+00  0.39999999674E+01  0.40000000000E+01  0.51100000000E-03 0. -1.
    9000002   -1    0    0    0    0 -0.00000000000E+00 -0.00000000000E+00  0.00000000000E+00  0.93800000000E+00  0.93800000000E+00 0.  1.
         11    1    1    2    0    0 -0.28566268084E-01  0.77275642531E-01  0.65766149607E+00  0.66280197732E+00  0.51100000000E-03 0. -1.
    9000002    1    1    2    0    0  0.23407525810E+00 -0.37066460630E+00  0.13065276283E+00  0.10435984004E+01  0.93800000000E+00 0.  1.
         22    1    1    2    0    0 -0.20550899002E+00  0.29338896377E+00  0.32116857085E+01  0.32315996223E+01  0.00000000000E+00 0. -1.
</event>
<event>
 5    1  0.3005426E+001  0.1599674E+01  0.7818608E-02  0.3353717E+00
         11   -1    0    0    0    0  0.00000000000E+00  0.00000000000E+00  0.39999999674E+01  0.40000000000E+01  0.51100000000E-03 0.  1.
    9000002   -1    0    0    0    0 -0.00000000000E+00 -0.00000000000E+00  0.00000000000E+00  0.93800000000E+00  0.93800000000E+00 0.  1.
         11    1    1    2    0    0  0.10938672355E+00 -0.95187086113E-01  0.14295738549E+01  0.14369090801E+01  0.51100000000E-03 0.  1.
    9000002    1    1    2    0    0 -0.29262907696E+00  0.26014868798E+00  0.10330185789E+00  0.10216772437E+01  0.93800000000E+00 0.  1.
         22    1    1    2    0    0  0.18324235341E+00 -0.16496160187E+00  0.24671242546E+01  0.24794136762E+01  0.00000000000E+00 0.  1.
</event>
<event>
 5    1  0.3005426E+001  0.1520853E+01  0.7818608E-02  0.3444017E+00
         11   -1    0    0    0    0  0.00000000000E+00  0.00000000000E+00  0.39999999674E+01  0.40000000000E+01  0.51100000000E-03 0. -1.
    9000002   -1    0    0    0    0 -0.00000000000E+00 -0.00000000000E+00  0.00000000000E+00  0.93800000000E+00  0.93800000000E+00 0. -1.
         11    1    1    2    0    0 -0.29152579460E+00  0.13263941177E+00  0.88851889021E+00  0.94448217657E+00  0.51100000000E-03 0. -1.
    9000002    1    1    2    0    0  0.56991694559E-01 -0.28161835864E+00  0.11905280842E+00  0.98821785269E+00  0.93800000000E+00 0. -1.
         22    1    1    2    0    0  0.23453410004E+00  0.14897894688E+00  0.29924282687E+01  0.30052999707E+01  0.00000000000E+00 0. -1.
</event>
<event>
 5    1  0.3005426E+001  0.1588855E+01  0.7818608E-02  0.3365550E+00
         11   -1    0    0    0    0  0.00000000000E+00  0.00000000000E+00  0.39999999674E+01  0.40000000000E+01  0.51100000000E-03 0. -1.
    9000002   -1    0    0    0    0 -0.00000000000E+00 -0.00000000000E+00  0.00000000000E+00  0.93800000000E+00  0.93800000000E+00 0.  1.
         11    1    1    2    0    0 -0.45501430845E-01 -0.48433238056E-01  0.35811006183E+00  0.36422415662E+00  0.51100000000E-03 0. -1.
    9000002    1    1    2    0    0 -0.23374447292E+00  0.23036961235E+00  0.80703271639E-01  0.99702740934E+00  0.93800000000E+00 0.  1.
         22    1    1    2    0    0  0.27924590377E+00 -0.18193637429E+00  0.35611866339E+01  0.35767484340E+01  0.00000000000E+00 0. -1.
</event>
<event>
 5    1  0.3005426E+001  0.1599591E+01  0.7818608E-02  0.3353807E+00
         11   -1    0    0    0    0  0.00000000000E+00  0.00000000000E+00  0.39999999674E+01  0.40000000000E+01  0.51100000000E-03 0. -1.
    9000002   -1    0    0    0    0 -0.00000000000E+00 -0.00000000000E+00  0.00000000000E+00  0.93800000000E+00  0.93800000000E+00 0. -1.
         11    1    1    2    0    0  0.53560174888E-01  0.60356756423E-01  0.70761942747E+00  0.71220583095E+00  0.51100000000E-03 0. -1.
    9000002    1    1    2    0    0 -0.28465099053E+00 -0.28537539591E+00  0.10970113380E+00  0.10268123693E+01  0.93800000000E+00 0. -1.
         22    1    1    2    0    0  0.23109081565E+00  0.22501863948E+00  0.31826794061E+01  0.31989817997E+01  0.00000000000E+00 0. -1.
</event>
<event>
 5    1  0.3005426E+001  0.1526178E+01  0.7818608E-02  0.3437603E+00
         11   -1    0    0    0    0  0.00000000000E+00  0.00000000000E+00  0.39999999674E+01  0.40000000000E+01  0.51100000000E-03 0.  1.
    9000002   -1    0    0    0    0 -0.00000000000E+00 -0.00000000000E+00  0.00000000000E+00  0.93800000000E+00  0.93800000000E+00 0.  1.
         11    1    1    2    0    0 -0.18624198823E+00  0.11776642018E+00  0.10236716689E+01  0.10471193603E+01  0.51100000000E-03 0.  1.
    9000002    1    1    2    0    0 -0.10371275209E+00  0.28349218566E+00  0.12079738496E+00  0.99275382774E+00  0.93800000000E+00 0.  1.
         22    1    1    2    0    0  0.28995474033E+00 -0.40125860583E+00  0.28555309135E+01  0.28981268119E+01  0.00000000000E+00 0.  1.
</event>
<event>
 5    1  0.3005426E+001  0.1599508E+01  0.7818608E-02  0.3353897E+00
         11   -1    0    0    0    0  0.00000000000E+00  0.00000000000E+00  0.39999999674E+01  0.40000000000E+01  0.51100000000E-03 0. -1.
    9000002   -1    0    0    0    0 -0.00000000000E+00 -0.00000000000E+00  0.00000000000E+00  0.93800000000E+00  0.93800000000E+00 0.  1.
         11    1    1    2    0    0 -0.46693418546E-01 -0.14347374822E-01  0.47968579709E+00  0.48216682544E+00  0.51100000000E-03 0. -1.
    9000002    1    1    2    0    0  0.44172794958E+00  0.16443649576E+00  0.15152732403E+00  0.10606448381E+01  0.93800000000E+00 0.  1.
         22    1    1    2    0    0 -0.39503453104E+00 -0.15008912094E+00  0.33687868462E+01  0.33951883365E+01  0.00000000000E+00 0. -1.
</event>
<event>
 5    1  0.3005426E+001  0.1577463E+01  0.7818608E-02  0.3378194E+00
         11   -1    0    0    0    0  0.00000000000E+00  0.00000000000E+00  0.39999999674E+01  0.40000000000E+01  0.51100000000E-03 0.  1.
    9000002   -1    0    0    0    0 -0.00000000000E+00 -0.00000000000E+00  0.00000000000E+00  0.93800000000E+00  0.93800000000E+00 0. -1.
         11    1    1    2    0    0  0.32122933209E-01 -0.52530057539E-01  0.10788162847E+00  0.12421753767E+00  0.51100000000E-03 0.  1.
    9000002    1    1    2    0    0  0.34301435219E+00  0.28113178541E+00  0.15280814429E+00  0.10487555747E+01  0.93800000000E+00 0. -1.
         22    1    1    2    0    0 -0.37513728539E+00 -0.22860172787E+00  0.37393101946E+01  0.37650268876E+01  0.00000000000E+00 0.  1.
</event>
<event>
 5    1  0.3005426E+001  0.1588718E+01  0.7818608E-02  0.3365700E+00
         11   -1    0    0    0    0  0.00000000000E+00  0.00000000000E+00  0.39999999674E+01  0.40000000000E+01  0.51100000000E-03 0. -1.
    9000002   -1    0    0    0    0 -0.00000000000E+00 -0.00000000000E+00  0.00000000000E+00  0.93800000000E+00  0.93800000000E+00 0. -1.
         11    1    1    2    0    0 -0.56230275334E-01  0.13742872387E-01  0.22033947264E+00  0.22781671302E+00  0.51100000000E-03 0. -1.
    9000002    1    1    2    0    0 -0.17596320871E-01 -0.47819202154E+00  0.16595179876E+00  0.10660024575E+01  0.93800000000E+00 0. -1.
         22    1    1    2    0    0  0.73826596205E-01  0.46444914915E+00  0.36137086960E+01  0.36441808294E+01  0.00000000000E+00 0. -1.
</event>
<event>
 5    1  0.3005426E+001  0.1587920E+01  0.7818608E-02  0.3366580E+00
         11   -1    0    0    0    0  0.00000000000E+00  0.00000000000E+00  0.39999999674E+01  0.40000000000E+01  0.51100000000E-03 0.  1.
    9000002   -1    0    0    0    0 -0.00000000000E+00 -0.00000000000E+00  0.00000000000E+00  0.93800000000E+00  0.93800000000E+00 0.  1.
         11    1    1    2    0    0 -0.18845842275E+00 -0.12198273526E+00  0.97875084569E+00  0.10041662431E+01  0.51100000000E-03 0.  1.
    9000002    1    1    2    0    0  0.28314354349E+00  0.51098241692E+00  0.24890041534E+00  0.11327262306E+01  0.93800000000E+00 0.  1.
         22    1    1    2    0    0 -0.94685120744E-01 -0.38899968166E+00  0.27723487063E+01  0.28011075263E+01  0.00000000000E+00 0. -1.
</event>
<event>
 5    1  0.3005426E+001  0.1598935E+01  0.7818608E-02  0.3354520E+00
         11   -1    0    0    0    0  0.00000000000E+00  0.00000000000E+00  0.39999999674E+01  0.40000000000E+01  0.51100000000E-03 0. -1.
    9000002   -1    0    0    0    0 -0.00000000000E+00 -0.00000000000E+00  0.00000000000E+00  0.93800000000E+00  0.93800000000E+00 0.  1.
         11    1    1    2    0    0 -0.40168731744E-01 -0.10628515650E+00  0.13004699513E+01  0.13054242287E+01  0.51100000000E-03 0. -1.
    9000002    1    1    2    0    0  0.17838056873E+00  0.38850881053E+00  0.12435771290E+00  0.10383003245E+01  0.93800000000E+00 0.  1.
         22    1    1    2    0    0 -0.13821183698E+00 -0.28222365403E+00  0.25751723032E+01  0.25942754468E+01  0.00000000000E+00 0.  1.
</event>
<event>
 5    1  0.3005426E+001  0.1599566E+01  0.7818608E-02  0.3353834E+00
         11   -1    0    0    0    0  0.00000000000E+00  0.00000000000E+00  0.39999999674E+01  0.40000000000E+01  0.51100000000E-03 0.  1.
    9000002   -1    0    0    0    0 -0.00000000000E+00 -0.00000000000E+00  0.00000000000E+00  0.93800000000E+00  0.93800000000E+00 0.  1.
         11    1    1    2    0    0  0.16038000732E+00 -0.34925779198E-01  0.13742782781E+01  0.13840457375E+01  0.51100000000E-03 0.  1.
    9000002    1    1    2    0    0 -0.48046642160E+00  0.10617316851E+00  0.16562545951E+00  0.10720991171E+01  0.93800000000E+00 0.  1.
         22    1    1    2    0    0  0.32008641428E+00 -0.71247389317E-01  0.24600962298E+01  0.24818551454E+01  0.00000000000E+00 0. -1.
</event>
<event>
 5    1  0.3005426E+001  0.1599637E+01  0.7818608E-02  0.3353757E+00
         11   -1    0    0    0    0  0.00000000000E+00  0.00000000000E+00  0.39999999674E+01  0.40000000000E+01  0.51100000000E-03 0.  1.
    9000002   -1    0    0    0    0 -0.00000000000E+00 -0.00000000000E+00  0.00000000000E+00  0.93800000000E+00  0.93800000000E+00 0.  1.
         11    1    1    2    0    0 -0.11750698769E+00 -0.76249834964E-01  0.14257471457E+01  0.14326119901E+01  0.51100000000E-03 0.  1.
    9000002    1    1    2    0    0  0.31559091383E+00  0.22763655351E+00  0.10202570047E+00  0.10206220010E+01  0.93800000000E+00 0.  1.
         22    1    1    2    0    0 -0.19808392614E+00 -0.15138671855E+00  0.24722271212E+01  0.24847660089E+01  0.00000000000E+00 0.  1.
</event>
<event>
 5    1  0.3005426E+001  0.1599676E+01  0.7818608E-02  0.3353715E+00
         11   -1    0    0    0    0  0.00000000000E+00  0.00000000000E+00  0.39999999674E+01  0.40000000000E+01  0.51100000000E-03 0. -1.
    9000002   -1    0    0    0    0 -0.00000000000E+00 -0.00000000000E+00  0.00000000000E+00  0.93800000000E+00  0.93800000000E+00 0.  1.
         11    1    1    2    0    0  0.14145431612E+00  0.10988047014E+00  0.11561751135E+01  0.11699676044E+01  0.51100000000E-03 0. -1.
    9000002    1    1    2    0    0 -0.46057446982E+00 -0.35510291863E+00  0.23507323123E+00  0.11284194030E+01  0.93800000000E+00 0.  1.
         22    1    1    2    0    0  0.31912015370E+00  0.24522244849E+00  0.26087516227E+01  0.26396129926E+01  0.00000000000E+00 0.  1.
</event>
<event>
 5    1  0.3005426E+001  0.1599538E+01  0.7818608E-02  0.3353865E+00
         11   -1    0    0    0    0  0.00000000000E+00  0.00000000000E+00  0.39999999674E+01  0.40000000000E+01  0.51100000000E-03 0. -1.
    9000002   -1    0    0    0    0 -0.00000000000E+00 -0.00000000000E+00  0.00000000000E+00  0.93800000000E+00  0.93800000000E+00 0. -1.
         11    1    1    2    0    0  0.13480947102E-01  0.83800322795E-02  0.13716388182E+00  0.13808023926E+00  0.51100000000E-03 0. -1.
    9000002    1    1    2    0    0 -0.35229672201E+00 -0.93946021616E-01  0.89396922142E-01  0.10103339275E+01  0.93800000000E+00 0. -1.
         22    1    1    2    0    0  0.33881577491E+00  0.85565989337E-01  0.37734391634E+01  0.37895858333E+01  0.00000000000E+00 0. -1.
</event>
<event>
 5    1  0.3005426E+001  0.1599649E+01  0.7818608E-02  0.3353744E+00
         11   -1    0    0    0    0  0.00000000000E+00  0.00000000000E+00  0.39999999674E+01  0.40000000000E+01  0.51100000000E-03 0.  1.
    9000002   -1    0    0    0    0 -0.00000000000E+00 -0.00000000000E+00  0.00000000000E+00  0.93800000000E+00  0.93800000000E+00 0. -1.
         11    1    1    2    0    0 -0.12532803795E+00  0.12248754768E+00  0.11718319117E+01  0.11848631173E+01  0.51100000000E-03 0.  1.
    9000002    1    1    2    0    0  0.42120449218E+00 -0.38774856026E+00  0.22740836225E+00  0.11221946059E+01  0.93800000000E+00 0. -1.
         22    1    1    2    0    0 -0.29587645423E+00  0.26526101259E+00  0.26007596934E+01  0.26309422768E+01  0.00000000000E+00 0.  1.
</event>
<event>
 5    1  0.3005426E+001  0.1599670E+01  0.7818608E-02  0.3353722E+00
         11   -1    0    0    0    0  0.00000000000E+00  0.00000000000E+00  0.39999999674E+01  0.40000000000E+01  0.51100000000E-03 0.  1.
    9000002   -1    0    0    0    0 -0.00000000000E+00 -0.00000000000E+00  0.00000000000E+00  0.93800000000E+00  0.93800000000E+00 0.  1.
         11    1    1    2    0    0  0.18225278887E+00 -0.12709320150E+00  0.85677026908E+00  0.88511260075E+00  0.51100000000E-03 0.  1.
    9000002    1    1    2    0    0 -0.73210968819E+00  0.50837607185E+00  0.60582278172E+00  0.14287393285E+01  0.93800000000E+00 0.  1.
         22    1    1    2    0    0  0.54985689932E+00 -0.38128287035E+00  0.25374069166E+01  0.26241480707E+01  0.00000000000E+00 0.  1.
</event>
<event>
 5    1  0.3005426E+001  0.1599605E+01  0.7818608E-02  0.3353792E+00
         11   -1    0    0    0    0  0.00000000000E+00  0.00000000000E+00  0.39999999674E+01  0.40000000000E+01  0.51100000000E-03 0. -1.
    9000002   -1    0    0    0    0 -0.00000000000E+00 -0.00000000000E+00  0.00000000000E+00  0.93800000000E+00  0.93800000000E+00 0.  1.
         11    1    1    2    0    0 -0.21064538568E-01 -0.85606159856E-02  0.21906316042E+00  0.22024061457E+00  0.51100000000E-03 0. -1.
    9000002    1    1    2    0    0  0.38468063337E+00  0.23302370800E+00  0.13744219537E+00  0.10492919495E+01  0.93800000000E+00 0.  1.
         22    1    1    2    0    0 -0.36361609480E+00 -0.22446309201E+00  0.36434946116E+01  0.36684674360E+01  0.00000000000E+00 0. -1.
</event>
<event>
 5    1  0.3005426E+001  0.1599667E+01  0.7818608E-02  0.3353725E+00
         11   -1    0    0    0    0  0.00000000000E+00  0.00000000000E+00  0.39999999674E+01  0.40000000000E+01  0.51100000000E-03 0. -1.
    9000002   -1    0    0    0    0 -0.00000000000E+00 -0.00000000000E+00  0.00000000000E+00  0.93800000000E+00  0.93800000000E+00 0.  1.
         11    1    1    2    0    0 -0.11197155796E-01 -0.13848293164E+00  0.13912901163E+01  0.13982100513E+01  0.51100000000E-03 0. -1.
    9000002    1    1    2    0    0  0.41154091763E-01  0.38438348643E+00  0.10064169129E+00  0.10195180596E+01  0.93800000000E+00 0.  1.
         22    1    1    2    0    0 -0.29956935967E-01 -0.24590055478E+00  0.25080681598E+01  0.25202718891E+01  0.00000000000E+00 0. -1.
</event>
<event>
 5    1  0.3005426E+001  0.1599676E+01  0.7818608E-02  0.3353716E+00
         11   -1    0    0    0    0  0.00000000000E+00  0.00000000000E+00  0.39999999674E+01  0.40000000000E+01  0.51100000000E-03 0.  1.
    9000002   -1    0    0    0    0 -0.00000000000E+00 -0.00000000000E+00  0.00000000000E+00  0.93800000000E+00  0.93800000000E+00 0. -1.
         11    1    1    2    0    0  0.66735468684E-01  0.21704656916E-01  0.38244917982E+00  0.38883460646E+00  0.51100000000E-03 0.  1.
    9000002    1    1    2    0    0 -0.64024261280E+00 -0.20139927573E+00  0.31953568873E+00  0.11968372186E+01  0.93800000000E+00 0. -1.
         22    1    1    2    0    0  0.57350714411E+00  0.17969461881E+00  0.32980150988E+01  0.33523281749E+01  0.00000000000E+00 0.  1.
</event>
<event>
 5    1  0.3005426E+001  0.1578664E+01  0.7818608E-02  0.3376852E+00
         11   -1    0    0    0    0  0.00000000000E+00  0.00000000000E+00  0.39999999674E+01  0.40000000000E+01  0.51100000000E-03 0. -1.
    9000002   -1    0    0    0    0 -0.00000000000E+00 -0.00000000000E+00  0.00000000000E+00  0.93800000000E+00  0.93800000000E+00 0.  1.
         11    1    1    2    0    0 -0.63437275918E-01 -0.26207789976E-01  0.31458307068E+00  0.32198432526E+00  0.51100000000E-03 0. -1.
    9000002    1    1    2    0    0 -0.34832321236E+00  0.44988575911E-02  0.98451082085E-01  0.10054282250E+01  0.93800000000E+00 0.  1.
         22    1    1    2    0    0  0.41176048827E+00  0.21708932385E-01  0.35869658146E+01  0.36105874498E+01  0.00000000000E+00 0. -1.
</event>
<event>
 5    1  0.3005426E+001  0.1599665E+01  0.7818608E-02  0.3353727E+00
         11   -1    0    0    0    0  0.00000000000E+00  0.00000000000E+00  0.39999999674E+01  0.40000000000E+01  0.51100000000E-03 0. -1.
    9000002   -1    0    0    0    0 -0.00000000000E+00 -0.00000000000E+00  0.00000000000E+00  0.93800000000E+00  0.93800000000E+00 0. -1.
         11    1    1    2    0    0 -0.33179670725E-01 -0.33549796198E-01  0.39879109279E+00  0.40157325133E+00  0.51100000000E-03 0. -1.
    9000002    1    1    2    0    0  0.30772833210E+00  0.30573448383E+00  0.12751409885E+00  0.10412848536E+01  0.93800000000E+00 0. -1.
         22    1    1    2    0    0 -0.27454866138E+00 -0.27218468764E+00  0.34736947757E+01  0.34951418950E+01  0.00000000000E+00 0. -1.
</event>
<event>
 5    1  0.3005426E+001  0.1599675E+01  0.7818608E-02  0.3353717E+00
         11   -1    0    0    0    0  0.00000000000E+00  0.00000000000E+00  0.39999999674E+01  0.40000000000E+01  0.51100000000E-03 0.  1.
    9000002   -1    0    0    0    0 -0.00000000000E+00 -0.00000000000E+00  0.00000000000E+00  0.93800000000E+00  0.93800000000E+00 0.  1.
         11    1    1    2    0    0 -0.63615264313E-03 -0.91715145083E-01  0.75648804384E+00  0.76202788277E+00  0.51100000000E-03 0.  1.
    9000002    1    1    2    0    0  0.83328152255E-02  0.46176756664E+00  0.14512858295E+00  0.10555591064E+01  0.93800000000E+00 0.  1.
         22    1    1    2    0    0 -0.76966625824E-02 -0.37005242156E+00  0.30983833406E+01  0.31204130109E+01  0.00000000000E+00 0.  1.
</event>
<event>
 5    1  0.3005426E+001  0.1599645E+01  0.7818608E-02  0.3353749E+00
         11   -1    0    0    0    0  0.00000000000E+00  0.00000000000E+00  0.39999999674E+01  0.40000000000E+01  0.51100000000E-03 0. -1.
    9000002   -1    0    0    0    0 -0.00000000000E+00 -0.00000000000E+00  0.00000000000E+00  0.93800000000E+00  0.93800000000E+00 0. -1.
         11    1    1    2    0    0  0.11256014897E-01 -0.50772861696E-01  0.48023931809E+00  0.48304724936E+00  0.51100000000E-03 0. -1.
    9000002    1    1    2    0    0 -0.99956695176E-01  0.37649817641E+00  0.10224475876E+00  0.10208037071E+01  0.93800000000E+00 0. -1.
         22    1    1    2    0    0  0.88700680279E-01 -0.32572531471E+00  0.34175158905E+01  0.34341490435E+01  0.00000000000E+00 0. -1.
</event>
<event>
 5    1  0.3005426E+001  0.1598463E+01  0.7818608E-02  0.3355034E+00
         11   -1    0    0    0    0  0.00000000000E+00  0.00000000000E+00  0.39999999674E+01  0.40000000000E+01  0.51100000000E-03 0.  1.
    9000002   -1    0    0    0    0 -0.00000000000E+00 -0.00000000000E+00  0.00000000000E+00  0.93800000000E+00  0.93800000000E+00 0.  1.
         11    1    1    2    0    0 -0.13011582112E+00 -0.19242195413E+00  0.10394008458E+01  0.10650402409E+01  0.51100000000E-03 0.  1.
    9000002    1    1    2    0    0  0.33556304705E+00  0.61597706822E+00  0.35314327633E+00  0.12233496968E+01  0.93800000000E+00 0.  1.
         22    1    1    2    0    0 -0.20544722593E+00 -0.42355511408E+00  0.26074558452E+01  0.26496100622E+01  0.00000000000E+00 0.  1.
</event>
<event>
 5    1  0.3005426E+001  0.1583782E+01  0.7818608E-02  0.3371156E+00
         11   -1    0    0    0    0  0.00000000000E+00  0.00000000000E+00  0.39999999674E+01  0.40000000000E+01  0.51100000000E-03 0.  1.
    9000002   -1    0    0    0    0 -0.00000000000E+00 -0.00000000000E+00  0.00000000000E+00  0.93800000000E+00  0.93800000000E+00 0. -1.
         11    1    1    2    0    0  0.35046580735E-01  0.20298015286E+00  0.78547226264E+00  0.81203210637E+00  0.51100000000E-03 0.  1.
    9000002    1    1    2    0    0 -0.56014149941E+00 -0.51395966422E+00  0.43989740187E+00  0.12850162489E+01  0.93800000000E+00 0. -1.
         22    1    1    2    0    0  0.52509491868E+00  0.31097951136E+00  0.27746303029E+01  0.28409516447E+01  0.00000000000E+00 0.  1.
</event>
<event>
 5    1  0.3005426E+001  0.1570015E+01  0.7818608E-02  0.3386565E+00
         11   -1    0    0    0    0  0.00000000000E+00  0.00000000000E+00  0.39999999674E+01  0.40000000000E+01  0.51100000000E-03 0.  1.
    9000002   -1    0    0    0    0 -0.00000000000E+00 -0.00000000000E+00  0.00000000000E+00  0.93800000000E+00  0.93800000000E+00 0. -1.
         11    1    1    2    0    0 -0.19526811966E-01  0.12218914736E+00  0.84502413683E+00  0.85403602797E+00  0.51100000000E-03 0.  1.
    9000002    1    1    2    0    0 -0.53371184779E-01  0.21022214773E+00  0.53884526853E-01  0.96425586697E+00  0.93800000000E+00 0. -1.
         22    1    1    2    0    0  0.72897996745E-01 -0.33241129509E+00  0.31010913037E+01  0.31197081051E+01  0.00000000000E+00 0.  1.
</event>
<event>
 5    1  0.3005426E+001  0.1598126E+01  0.7818608E-02  0.3355400E+00
         11   -1    0    0    0    0  0.00000000000E+00  0.00000000000E+00  0.39999999674E+01  0.40000000000E+01  0.51100000000E-03 0.  1.
    9000002   -1    0    0    0    0 -0.00000000000E+00 -0.00000000000E+00  0.00000000000E+00  0.93800000000E+00  0.93800000000E+00 0.  1.
         11    1    1    2    0    0 -0.10374273203E+00 -0.50320205923E-01  0.83783164944E+00  0.84572856846E+00  0.51100000000E-03 0.  1.
    9000002    1    1    2    0    0  0.60601890407E+00  0.12138874403E+00  0.26914359544E+00  0.11551088322E+01  0.93800000000E+00 0.  1.
         22    1    1    2    0    0 -0.50227617204E+00 -0.71068538103E-01  0.28930247225E+01  0.29371625993E+01  0.00000000000E+00 0.  1.
</event>
<event>
 5    1  0.3005426E+001  0.1599676E+01  0.7818608E-02  0.3353715E+00
         11   -1    0    0    0    0  0.00000000000E+00  0.00000000000E+00  0.39999999674E+01  0.40000000000E+01  0.51100000000E-03 0. -1.
    9000002   -1    0    0    0    0 -0.00000000000E+00 -0.00000000000E+00  0.00000000000E+00  0.93800000000E+00  0.93800000000E+00 0.  1.
         11    1    1    2    0    0 -0.88833615247E-03 -0.47411618017E-01  0.51368490766E+00  0.51586926264E+00  0.51100000000E-03 0. -1.
    9000002    1    1    2    0    0  0.59325714934E-02  0.36457475409E+00  0.89292049411E-01  0.10103301524E+01  0.93800000000E+00 0.  1.
         22    1    1    2    0    0 -0.50442353409E-02 -0.31716313607E+00  0.33970230103E+01  0.34118005850E+01  0.00000000000E+00 0. -1.
</event>
<event>
 5    1  0.3005426E+001  0.1599666E+01  0.7818608E-02  0.3353726E+00
         11   -1    0    0    0    0  0.00000000000E+00  0.00000000000E+00  0.39999999674E+01  0.40000000000E+01  0.51100000000E-03 0. -1.
    9000002   -1    0    0    0    0 -0.00000000000E+00 -0.00000000000E+00  0.00000000000E+00  0.93800000000E+00  0.93800000000E+00 0. -1.
         11    1    1    2    0    0  0.10240391647E+00  0.26503267157E-01  0.11870032384E+01  0.11917071512E+01  0.51100000000E-03 0. -1.
    9000002    1    1    2    0    0 -0.34456937812E+00 -0.97215940634E-01  0.86031135113E-01  0.10076826642E+01  0.93800000000E+00 0. -1.
         22    1    1    2    0    0  0.24216546166E+00  0.70712673477E-01  0.27269655939E+01  0.27386101846E+01  0.00000000000E+00 0.  1.
</event>
<event>
 5    1  0.3005426E+001  0.1599608E+01  0.7818608E-02  0.3353789E+00
         11   -1    0    0    0    0  0.00000000000E+00  0.00000000000E+00  0.39999999674E+01  0.40000000000E+01  0.51100000000E-03 0.  1.
    9000002   -1    0    0    0    0 -0.00000000000E+00 -0.00000000000E+00  0.00000000000E+00  0.93800000000E+00  0.93800000000E+00 0.  1.
         11    1    1    2    0    0  0.11934186137E-01  0.45378067865E-01  0.59199198354E+00  0.59384877161E+00  0.51100000000E-03 0.  1.
    9000002    1    1    2    0    0 -0.97051706659E-01 -0.34401898230E+00  0.85797131536E-01  0.10074588040E+01  0.93800000000E+00 0.  1.
         22    1    1    2    0    0  0.85117520523E-01  0.29864091443E+00  0.33222108523E+01  0.33366924244E+01  0.00000000000E+00 0.  1.
</event>
<event>
 5    1  0.3005426E+001  0.1599674E+01  0.7818608E-02  0.3353717E+00
         11   -1    0    0    0    0  0.00000000000E+00  0.00000000000E+00  0.39999999674E+01  0.40000000000E+01  0.51100000000E-03 0.  1.
    9000002   -1    0    0    0    0 -0.00000000000E+00 -0.00000000000E+00  0.00000000000E+00  0.93800000000E+00  0.93800000000E+00 0.  1.
         11    1    1    2    0    0 -0.62547086503E-01  0.11132339581E+00  0.13014683256E+01  0.13077175154E+01  0.51100000000E-03 0.  1.
    9000002    1    1    2    0    0  0.18447976428E+00 -0.33835967480E+00  0.99998154004E-01  0.10190013169E+01  0.93800000000E+00 0.  1.
         22    1    1    2    0    0 -0.12193267778E+00  0.22703627898E+00  0.25985334878E+01  0.26112811677E+01  0.00000000000E+00 0.  1.
</event>
<event>
 5    1  0.3005426E+001  0.1580489E+01  0.7818608E-02  0.3374816E+00
         11   -1    0    0    0    0  0.00000000000E+00  0.00000000000E+00  0.39999999674E+01  0.40000000000E+01  0.51100000000E-03 0.  1.
    9000002   -1    0    0    0    0 -0.00000000000E+00 -0.00000000000E+00  0.00000000000E+00  0.93800000000E+00  0.93800000000E+00 0.  1.
         11    1    1    2    0    0  0.78484519538E-01  0.96781775600E-01  0.49300400881E+00  0.50850737037E+00  0.51100000000E-03 0.  1.
    9000002    1    1    2    0    0 -0.36153662682E+00  0.77173043659E-01  0.10765133671E+00  0.10139512915E+01  0.93800000000E+00 0.  1.
         22    1    1    2    0    0  0.28305210729E+00 -0.17395481926E+00  0.33993446218E+01  0.34155413381E+01  0.00000000000E+00 0.  1.
</event>
<event>
 5    1  0.5826114E+001  0.1557181E+01  0.7818608E-02  0.3401191E+00
         11   -1    0    0    0    0  0.00000000000E+00  0.00000000000E+00  0.39999999674E+01  0.40000000000E+01  0.51100000000E-03 0.  1.
    9000002   -1    0    0    0    0 -0.00000000000E+00 -0.00000000000E+00  0.00000000000E+00  0.93800000000E+00  0.93800000000E+00 0.  1.
         11    1    1    2    0    0  0.22537702120E+00 -0.47936834092E-01  0.12886496412E+01  0.13090878124E+01  0.51100000000E-03 0.  1.
    9000002    1    1    2    0    0  0.21584250444E-01  0.11451374498E+00  0.40747382646E-01  0.94608859355E+00  0.93800000000E+00 0.  1.
         22    1    1    2    0    0 -0.24696127164E+00 -0.66576910893E-01  0.26706029435E+01  0.26828235940E+01  0.00000000000E+00 0.  1.
</event>
<event>
 5    1  0.3005426E+001  0.1599676E+01  0.7818608E-02  0.3353715E+00
         11   -1    0    0    0    0  0.00000000000E+00  0.00000000000E+00  0.39999999674E+01  0.40000000000E+01  0.51100000000E-03 0. -1.
    9000002   -1    0    0    0    0 -0.00000000000E+00 -0.00000000000E+00  0.00000000000E+00  0.93800000000E+00  0.93800000000E+00 0.  1.
         11    1    1    2    0    0 -0.19224790305E-01 -0.66349177880E-01  0.69848239739E+00  0.70189011003E+00  0.51100000000E-03 0. -1.
    9000002    1    1    2    0    0  0.11043519505E+00  0.37198309703E+00  0.10140795434E+00  0.10201445633E+01  0.93800000000E+00 0.  1.
         22    1    1    2    0    0 -0.91210404744E-01 -0.30563391915E+00  0.32001096156E+01  0.32159653267E+01  0.00000000000E+00 0. -1.
</event>
<event>
 5    1  0.3005426E+001  0.1461540E+01  0.7818608E-02  0.3518869E+00
         11   -1    0    0    0    0  0.00000000000E+00  0.00000000000E+00  0.39999999674E+01  0.40000000000E+01  0.51100000000E-03 0.  1.
    9000002   -1    0    0    0    0 -0.00000000000E+00 -0.00000000000E+00  0.00000000000E+00  0.93800000000E+00  0.93800000000E+00 0. -1.
         11    1    1    2    0    0  0.12876419935E+00  0.29000719508E+00  0.33013304351E+00  0.45790007619E+00  0.51100000000E-03 0.  1.
    9000002    1    1    2    0    0 -0.38493596378E+00 -0.54360799108E-01  0.25414898362E+00  0.10466931253E+01  0.93800000000E+00 0. -1.
         22    1    1    2    0    0  0.25617176443E+00 -0.23564639597E+00  0.34157179402E+01  0.34334067985E+01  0.00000000000E+00 0.  1.
</event>
<event>
 5    1  0.3005426E+001  0.1505271E+01  0.7818608E-02  0.3463065E+00
         11   -1    0    0    0    0  0.00000000000E+00  0.00000000000E+00  0.39999999674E+01  0.40000000000E+01  0.51100000000E-03 0. -1.
    9000002   -1    0    0    0    0 -0.00000000000E+00 -0.00000000000E+00  0.00000000000E+00  0.93800000000E+00  0.93800000000E+00 0.  1.
         11    1    1    2    0    0  0.13235620221E+00  0.36571591219E+00  0.59471350166E+00  0.71059883399E+00  0.51100000000E-03 0. -1.
    9000002    1    1    2    0    0 -0.25730612892E+00  0.23109727631E+00  0.27302155655E+00  0.10363383451E+01  0.93800000000E+00 0.  1.
         22    1    1    2    0    0  0.12494992671E+00 -0.59681318850E+00  0.31322649092E+01  0.31910628209E+01  0.00000000000E+00 0. -1.
</event>
<event>
 5    1  0.3005426E+001  0.1599666E+01  0.7818608E-02  0.3353726E+00
         11   -1    0    0    0    0  0.00000000000E+00  0.00000000000E+00  0.39999999674E+01  0.40000000000E+01  0.51100000000E-03 0.  1.
    9000002   -1    0    0    0    0 -0.00000000000E+00 -0.00000000000E+00  0.00000000000E+00  0.93800000000E+00  0.93800000000E+00 0. -1.
         11    1    1    2    0    0  0.46972512609E-02  0.91141753100E-01  0.50082423333E+00  0.50907176030E+00  0.51100000000E-03 0.  1.
    9000002    1    1    2    0    0 -0.29996496453E-01 -0.65297893358E+00  0.30178902768E+00  0.11824558743E+01  0.93800000000E+00 0. -1.
         22    1    1    2    0    0  0.25299245192E-01  0.56183718048E+00  0.31973867064E+01  0.32464723654E+01  0.00000000000E+00 0.  1.
</event>
<event>
 5    1  0.3005426E+001  0.1540677E+01  0.7818608E-02  0.3420379E+00
         11   -1    0    0    0    0  0.00000000000E+00  0.00000000000E+00  0.39999999674E+01  0.40000000000E+01  0.51100000000E-03 0.  1.
    9000002   -1    0    0    0    0 -0.00000000000E+00 -0.00000000000E+00  0.00000000000E+00  0.93800000000E+00  0.93800000000E+00 0.  1.
         11    1    1    2    0    0 -0.32312680576E+00 -0.16342411852E+00  0.94545689123E+00  0.10124264760E+01  0.51100000000E-03 0.  1.
    9000002    1    1    2    0    0  0.60849599712E+00 -0.13735259808E+00  0.33590809004E+00  0.11755047255E+01  0.93800000000E+00 0.  1.
         22    1    1    2    0    0 -0.28536919136E+00  0.30077671661E+00  0.27186349861E+01  0.27500687985E+01  0.00000000000E+00 0.  1.
</event>
<event>
 5    1  0.3005426E+001  0.1599229E+01  0.7818608E-02  0.3354200E+00
         11   -1    0    0    0    0  0.00000000000E+00  0.00000000000E+00  0.39999999674E+01  0.40000000000E+01  0.51100000000E-03 0. -1.
    9000002   -1    0    0    0    0 -0.00000000000E+00 -0.00000000000E+00  0.00000000000E+00  0.93800000000E+00  0.93800000000E+00 0.  1.
         11    1    1    2    0    0 -0.94753336349E-01 -0.79769724306E-01  0.85511126107E+00  0.86403526178E+00  0.51100000000E-03 0. -1.
    9000002    1    1    2    0    0  0.33512468466E+00  0.32987831594E+00  0.15104122500E+00  0.10600875951E+01  0.93800000000E+00 0.  1.
         22    1    1    2    0    0 -0.24037134832E+00 -0.25010859163E+00  0.29938474813E+01  0.30138771431E+01  0.00000000000E+00 0. -1.
</event>
<event>
 5    1  0.3005426E+001  0.1591776E+01  0.7818608E-02  0.3362338E+00
         11   -1    0    0    0    0  0.00000000000E+00  0.00000000000E+00  0.39999999674E+01  0.40000000000E+01  0.51100000000E-03 0. -1.
    9000002   -1    0    0    0    0 -0.00000000000E+00 -0.00000000000E+00  0.00000000000E+00  0.93800000000E+00  0.93800000000E+00 0. -1.
         11    1    1    2    0    0 -0.11444085630E+00 -0.13340836283E+00  0.12097341297E+01  0.12224366759E+01  0.51100000000E-03 0. -1.
    9000002    1    1    2    0    0  0.50309518240E-01  0.46230559234E+00  0.15415114924E+00  0.10582363087E+01  0.93800000000E+00 0. -1.
         22    1    1    2    0    0  0.64131338055E-01 -0.32889722951E+00  0.26361146885E+01  0.26573270154E+01  0.00000000000E+00 0. -1.
</event>
<event>
 5    1  0.3005426E+001  0.1599641E+01  0.7818608E-02  0.3353753E+00
         11   -1    0    0    0    0  0.00000000000E+00  0.00000000000E+00  0.39999999674E+01  0.40000000000E+01  0.51100000000E-03 0. -1.
    9000002   -1    0    0    0    0 -0.00000000000E+00 -0.00000000000E+00  0.00000000000E+00  0.93800000000E+00  0.93800000000E+00 0. -1.
         11    1    1    2    0    0 -0.90873378555E-01  0.33046520251E-01  0.10670879097E+01  0.10714601773E+01  0.51100000000E-03 0. -1.
    9000002    1    1    2    0    0  0.33529190826E+00 -0.14460418562E+00  0.89582279759E-01  0.10105444172E+01  0.93800000000E+00 0. -1.
         22    1    1    2    0    0 -0.24441852970E+00  0.11155766537E+00  0.28433297779E+01  0.28559954055E+01  0.00000000000E+00 0. -1.
</event>
<event>
 5    1  0.3005426E+001  0.1599673E+01  0.7818608E-02  0.3353719E+00
         11   -1    0    0    0    0  0.00000000000E+00  0.00000000000E+00  0.39999999674E+01  0.40000000000E+01  0.51100000000E-03 0. -1.
    9000002   -1    0    0    0    0 -0.00000000000E+00 -0.00000000000E+00  0.00000000000E+00  0.93800000000E+00  0.93800000000E+00 0. -1.
         11    1    1    2    0    0  0.54340667792E-02  0.41864045245E-02  0.46307274268E-01  0.46815380333E-01  0.51100000000E-03 0.  1.
    9000002    1    1    2    0    0 -0.44819088214E+00 -0.35739548123E+00  0.22800515216E+00  0.11226918305E+01  0.93800000000E+00 0. -1.
         22    1    1    2    0    0  0.44275681536E+00  0.35320907671E+00  0.37256875409E+01  0.37684927892E+01  0.00000000000E+00 0. -1.
</event>
<event>
 5    1  0.3005426E+001  0.1599674E+01  0.7818608E-02  0.3353717E+00
         11   -1    0    0    0    0  0.00000000000E+00  0.00000000000E+00  0.39999999674E+01  0.40000000000E+01  0.51100000000E-03 0.  1.
    9000002   -1    0    0    0    0 -0.00000000000E+00 -0.00000000000E+00  0.00000000000E+00  0.93800000000E+00  0.93800000000E+00 0. -1.
         11    1    1    2    0    0 -0.13051672972E-01 -0.15576520296E-01  0.10492776801E+00  0.10687877139E+00  0.51100000000E-03 0. -1.
    9000002    1    1    2    0    0  0.43638681635E+00  0.54455709978E+00  0.34783082655E+00  0.12197566037E+01  0.93800000000E+00 0. -1.
         22    1    1    2    0    0 -0.42333514338E+00 -0.52898057948E+00  0.35472413728E+01  0.36113646249E+01  0.00000000000E+00 0.  1.
</event>
<event>
 5    1  0.3005426E+001  0.1598649E+01  0.7818608E-02  0.3354831E+00
         11   -1    0    0    0    0  0.00000000000E+00  0.00000000000E+00  0.39999999674E+01  0.40000000000E+01  0.51100000000E-03 0. -1.
    9000002   -1    0    0    0    0 -0.00000000000E+00 -0.00000000000E+00  0.00000000000E+00  0.93800000000E+00  0.93800000000E+00 0. -1.
         11    1    1    2    0    0  0.53712674687E-01  0.54794017028E-02  0.62385003775E+00  0.62618224662E+00  0.51100000000E-03 0. -1.
    9000002    1    1    2    0    0 -0.35348102433E+00  0.14173537570E+00  0.98441516249E-01  0.10171393628E+01  0.93800000000E+00 0. -1.
         22    1    1    2    0    0  0.29976834965E+00 -0.14721477741E+00  0.32777084134E+01  0.32946783905E+01  0.00000000000E+00 0. -1.
</event>
<event>
 5    1  0.3005426E+001  0.1597579E+01  0.7818608E-02  0.3355995E+00
         11   -1    0    0    0    0  0.00000000000E+00  0.00000000000E+00  0.39999999674E+01  0.40000000000E+01  0.51100000000E-03 0. -1.
    9000002   -1    0    0    0    0 -0.00000000000E+00 -0.00000000000E+00  0.00000000000E+00  0.93800000000E+00  0.93800000000E+00 0.  1.
         11    1    1    2    0    0 -0.40534420597E-01  0.14653990084E-01  0.24893906982E+00  0.25264342517E+00  0.51100000000E-03 0. -1.
    9000002    1    1    2    0    0  0.22015840284E+00 -0.31643805038E+00  0.10178298001E+00  0.10192185914E+01  0.93800000000E+00 0.  1.
         22    1    1    2    0    0 -0.17962398224E+00  0.30178406030E+00  0.36492779175E+01  0.36661379834E+01  0.00000000000E+00 0. -1.
</event>
<event>
 5    1  0.3005426E+001  0.1599650E+01  0.7818608E-02  0.3353744E+00
         11   -1    0    0    0    0  0.00000000000E+00  0.00000000000E+00  0.39999999674E+01  0.40000000000E+01  0.51100000000E-03 0.  1.
    9000002   -1    0    0    0    0 -0.00000000000E+00 -0.00000000000E+00  0.00000000000E+00  0.93800000000E+00  0.93800000000E+00 0.  1.
         11    1    1    2    0    0 -0.63787492073E-01  0.82768295405E-01  0.10448400628E+01  0.10500525953E+01  0.51100000000E-03 0.  1.
    9000002    1    1    2    0    0  0.25480823854E+00 -0.29664630149E+00  0.10305759972E+00  0.10214651905E+01  0.93800000000E+00 0.  1.
         22    1    1    2    0    0 -0.19102074647E+00  0.21387800609E+00  0.28521023048E+01  0.28664822142E+01  0.00000000000E+00 0.  1.
</event>
<event>
 5    1  0.3005426E+001  0.1593390E+01  0.7818608E-02  0.3360569E+00
         11   -1    0    0    0    0  0.00000000000E+00  0.00000000000E+00  0.39999999674E+01  0.40000000000E+01  0.51100000000E-03 0. -1.
    9000002   -1    0    0    0    0 -0.00000000000E+00 -0.00000000000E+00  0.00000000000E+00  0.93800000000E+00  0.93800000000E+00 0. -1.
         11    1    1    2    0    0 -0.33150642182E-01 -0.59579371675E-01  0.60555325889E+00  0.60937974784E+00  0.51100000000E-03 0. -1.
    9000002    1    1    2    0    0  0.50171574360E+00  0.47439436000E-01  0.17967698246E+00  0.10798597157E+01  0.93800000000E+00 0. -1.
         22    1    1    2    0    0 -0.46856510142E+00  0.12139935675E-01  0.32147697260E+01  0.32487605365E+01  0.00000000000E+00 0. -1.
</event>
<event>
 5    1  0.3005426E+001  0.1599652E+01  0.7818608E-02  0.3353741E+00
         11   -1    0    0    0    0  0.00000000000E+00  0.00000000000E+00  0.39999999674E+01  0.40000000000E+01  0.51100000000E-03 0.  1.
    9000002   -1    0    0    0    0 -0.00000000000E+00 -0.00000000000E+00  0.00000000000E+00  0.93800000000E+00  0.93800000000E+00 0. -1.
         11    1    1    2    0    0 -0.18495870403E+00  0.38126609643E-01  0.14586233078E+01  0.14707975985E+01  0.51100000000E-03 0.  1.
    9000002    1    1    2    0    0  0.48200681054E+00 -0.11497467728E+00  0.16798951187E+00  0.10740643453E+01  0.93800000000E+00 0. -1.
         22    1    1    2    0    0 -0.29704810651E+00  0.76848067639E-01  0.23733871477E+01  0.23931380561E+01  0.00000000000E+00 0.  1.
</event>
<event>
 5    1  0.3005426E+001  0.1599620E+01  0.7818608E-02  0.3353776E+00
         11   -1    0    0    0    0  0.00000000000E+00  0.00000000000E+00  0.39999999674E+01  0.40000000000E+01  0.51100000000E-03 0. -1.
    9000002   -1    0    0    0    0 -0.00000000000E+00 -0.00000000000E+00  0.00000000000E+00  0.93800000000E+00  0.93800000000E+00 0. -1.
         11    1    1    2    0    0 -0.77578714395E-01  0.24563173105E-01  0.63229695744E+00  0.63751196845E+00  0.51100000000E-03 0. -1.
    9000002    1    1    2    0    0  0.43813465033E+00 -0.12841677611E+00  0.14176574037E+00  0.10528030990E+01  0.93800000000E+00 0. -1.
         22    1    1    2    0    0 -0.36055593594E+00  0.10385360301E+00  0.32259372696E+01  0.32476849325E+01  0.00000000000E+00 0. -1.
</event>
<event>
 5    1  0.3005426E+001  0.1599671E+01  0.7818608E-02  0.3353720E+00
         11   -1    0    0    0    0  0.00000000000E+00  0.00000000000E+00  0.39999999674E+01  0.40000000000E+01  0.51100000000E-03 0.  1.
    9000002   -1    0    0    0    0 -0.00000000000E+00 -0.00000000000E+00  0.00000000000E+00  0.93800000000E+00  0.93800000000E+00 0.  1.
         11    1    1    2    0    0  0.18533622690E-01 -0.39490946799E-01  0.44667490798E+00  0.44880036162E+00  0.51100000000E-03 0.  1.
    9000002    1    1    2    0    0 -0.17339268559E+00  0.35462328431E+00  0.10503989252E+00  0.10230836115E+01  0.93800000000E+00 0.  1.
         22    1    1    2    0    0  0.15485906290E+00 -0.31513233751E+00  0.34482851669E+01  0.34661160268E+01  0.00000000000E+00 0.  1.
</event>
<event>
 5    1  0.3005426E+001  0.1599671E+01  0.7818608E-02  0.3353721E+00
         11   -1    0    0    0    0  0.00000000000E+00  0.00000000000E+00  0.39999999674E+01  0.40000000000E+01  0.51100000000E-03 0. -1.
    9000002   -1    0    0    0    0 -0.00000000000E+00 -0.00000000000E+00  0.00000000000E+00  0.93800000000E+00  0.93800000000E+00 0. -1.
         11    1    1    2    0    0  0.10433813693E-01 -0.99734878302E-01  0.91245793775E+00  0.91795188311E+00  0.51100000000E-03 0. -1.
    9000002    1    1    2    0    0 -0.38893320540E-01  0.41502317365E+00  0.11746764915E+00  0.10331503151E+01  0.93800000000E+00 0. -1.
         22    1    1    2    0    0  0.28459506846E-01 -0.31528829535E+00  0.29700743805E+01  0.29868978018E+01  0.00000000000E+00 0. -1.
</event>
<event>
 5    1  0.3005426E+001  0.1599537E+01  0.7818608E-02  0.3353866E+00
         11   -1    0    0    0    0  0.00000000000E+00  0.00000000000E+00  0.39999999674E+01  0.40000000000E+01  0.51100000000E-03 0.  1.
    9000002   -1    0    0    0    0 -0.00000000000E+00 -0.00000000000E+00  0.00000000000E+00  0.93800000000E+00  0.93800000000E+00 0. -1.
         11    1    1    2    0    0  0.95830706853E-01  0.64006712077E-01  0.97284719792E+00  0.97964907757E+00  0.51100000000E-03 0.  1.
    9000002    1    1    2    0    0 -0.34289527108E+00 -0.22626588050E+00  0.11411910006E+00  0.10303594444E+01  0.93800000000E+00 0. -1.
         22    1    1    2    0    0  0.24706456423E+00  0.16225916842E+00  0.29130336694E+01  0.29279914781E+01  0.00000000000E+00 0.  1.
</event>
<event>
 5    1  0.3005426E+001  0.1599677E+01  0.7818608E-02  0.3353714E+00
         11   -1    0    0    0    0  0.00000000000E+00  0.00000000000E+00  0.39999999674E+01  0.40000000000E+01  0.51100000000E-03 0. -1.
    9000002   -1    0    0    0    0 -0.00000000000E+00 -0.00000000000E+00  0.00000000000E+00  0.93800000000E+00  0.93800000000E+00 0. -1.
         11    1    1    2    0    0  0.13953018417E+00 -0.13001367264E+00  0.10216285835E+01  0.10392773697E+01  0.51100000000E-03 0. -1.
    9000002    1    1    2    0    0 -0.50283061892E+00  0.46614067884E+00  0.33471450534E+00  0.12091333937E+01  0.93800000000E+00 0. -1.
         22    1    1    2    0    0  0.36330043475E+00 -0.33612700620E+00  0.26436568785E+01  0.26895892365E+01  0.00000000000E+00 0. -1.
</event>
<event>
 5    1  0.3005426E+001  0.1577740E+01  0.7818608E-02  0.3377884E+00
         11   -1    0    0    0    0  0.00000000000E+00  0.00000000000E+00  0.39999999674E+01  0.40000000000E+01  0.51100000000E-03 0.  1.
    9000002   -1    0    0    0    0 -0.00000000000E+00 -0.00000000000E+00  0.00000000000E+00  0.93800000000E+00  0.93800000000E+00 0. -1.
         11    1    1    2    0    0  0.43719850776E-01 -0.10533077807E+00  0.71957038774E+00  0.72855185278E+00  0.51100000000E-03 0.  1.
    9000002    1    1    2    0    0 -0.28877049753E+00 -0.17672957440E+00  0.94514720210E-01  0.10016979460E+01  0.93800000000E+00 0. -1.
         22    1    1    2    0    0  0.24505064675E+00  0.28206035248E+00  0.31859148594E+01  0.32077502012E+01  0.00000000000E+00 0.  1.
</event>
<event>
 5    1  0.3005426E+001  0.1567845E+01  0.7818608E-02  0.3389021E+00
         11   -1    0    0    0    0  0.00000000000E+00  0.00000000000E+00  0.39999999674E+01  0.40000000000E+01  0.51100000000E-03 0. -1.
    9000002   -1    0    0    0    0 -0.00000000000E+00 -0.00000000000E+00  0.00000000000E+00  0.93800000000E+00  0.93800000000E+00 0. -1.
         11    1    1    2    0    0  0.71175158953E-01  0.48237539024E-02  0.10797000282E+00  0.12941002466E+00  0.51100000000E-03 0. -1.
    9000002    1    1    2    0    0 -0.45444333991E-02  0.66704768184E+00  0.35037565379E+00  0.12031543378E+01  0.93800000000E+00 0. -1.
         22    1    1    2    0    0 -0.66630725554E-01 -0.67187143575E+00  0.35416543108E+01  0.36054356376E+01  0.00000000000E+00 0. -1.
</event>
<event>
 5    1  0.3005426E+001  0.1591344E+01  0.7818608E-02  0.3362812E+00
         11   -1    0    0    0    0  0.00000000000E+00  0.00000000000E+00  0.39999999674E+01  0.40000000000E+01  0.51100000000E-03 0. -1.
    9000002   -1    0    0    0    0 -0.00000000000E+00 -0.00000000000E+00  0.00000000000E+00  0.93800000000E+00  0.93800000000E+00 0. -1.
         11    1    1    2    0    0 -0.10524672816E+00  0.45396948629E-01  0.10825109618E+01  0.10885623548E+01  0.51100000000E-03 0. -1.
    9000002    1    1    2    0    0  0.80516786490E-01 -0.35437494781E+00  0.95481429268E-01  0.10104579456E+01  0.93800000000E+00 0. -1.
         22    1    1    2    0    0  0.24729941673E-01  0.30897799918E+00  0.28220075763E+01  0.28389796996E+01  0.00000000000E+00 0. -1.
</event>
<event>
 5    1  0.3005426E+001  0.1599677E+01  0.7818608E-02  0.3353715E+00
         11   -1    0    0    0    0  0.00000000000E+00  0.00000000000E+00  0.39999999674E+01  0.40000000000E+01  0.51100000000E-03 0. -1.
    9000002   -1    0    0    0    0 -0.00000000000E+00 -0.00000000000E+00  0.00000000000E+00  0.93800000000E+00  0.93800000000E+00 0. -1.
         11    1    1    2    0    0 -0.77870527056E-01 -0.11100657455E+00  0.13945042036E+01  0.14010811945E+01  0.51100000000E-03 0. -1.
    9000002    1    1    2    0    0  0.21603423716E+00  0.30982276863E+00  0.95961829975E-01  0.10157330419E+01  0.93800000000E+00 0. -1.
         22    1    1    2    0    0 -0.13816371011E+00 -0.19881619408E+00  0.25095339338E+01  0.25211857636E+01  0.00000000000E+00 0.  1.
</event>
<event>
 5    1  0.3005426E+001  0.1599675E+01  0.7818608E-02  0.3353716E+00
         11   -1    0    0    0    0  0.00000000000E+00  0.00000000000E+00  0.39999999674E+01  0.40000000000E+01  0.51100000000E-03 0.  1.
    9000002   -1    0    0    0    0 -0.00000000000E+00 -0.00000000000E+00  0.00000000000E+00  0.93800000000E+00  0.93800000000E+00 0.  1.
         11    1    1    2    0    0  0.45183876460E-01  0.23607557020E+00  0.11621854573E+01  0.11867807531E+01  0.51100000000E-03 0.  1.
    9000002    1    1    2    0    0 -0.14139140491E+00 -0.73432121200E+00  0.40513077896E+00  0.12661730213E+01  0.93800000000E+00 0.  1.
         22    1    1    2    0    0  0.96207528455E-01  0.49824564180E+00  0.24326837311E+01  0.24850462256E+01  0.00000000000E+00 0.  1.
</event>
<event>
 5    1  0.3005426E+001  0.1599677E+01  0.7818608E-02  0.3353714E+00
         11   -1    0    0    0    0  0.00000000000E+00  0.00000000000E+00  0.39999999674E+01  0.40000000000E+01  0.51100000000E-03 0.  1.
    9000002   -1    0    0    0    0 -0.00000000000E+00 -0.00000000000E+00  0.00000000000E+00  0.93800000000E+00  0.93800000000E+00 0. -1.
         11    1    1    2    0    0 -0.12499706755E+00 -0.81413337480E-01  0.13799682329E+01  0.13880075588E+01  0.51100000000E-03 0.  1.
    9000002    1    1    2    0    0  0.35058697533E+00  0.22976194584E+00  0.11881460104E+00  0.10342449847E+01  0.93800000000E+00 0. -1.
         22    1    1    2    0    0 -0.22558990778E+00 -0.14834860836E+00  0.25012171334E+01  0.25157474565E+01  0.00000000000E+00 0.  1.
</event>
<event>
 5    1  0.3005426E+001  0.1599676E+01  0.7818608E-02  0.3353715E+00
         11   -1    0    0    0    0  0.00000000000E+00  0.00000000000E+00  0.39999999674E+01  0.40000000000E+01  0.51100000000E-03 0.  1.
    9000002   -1    0    0    0    0 -0.00000000000E+00 -0.00000000000E+00  0.00000000000E+00  0.93800000000E+00  0.93800000000E+00 0. -1.
         11    1    1    2    0    0  0.20573687323E+00 -0.95987656654E-01  0.12299045131E+01  0.12506824792E+01  0.51100000000E-03 0.  1.
    9000002    1    1    2    0    0 -0.61213054510E+00  0.28453392716E+00  0.32353299439E+00  0.12000753970E+01  0.93800000000E+00 0. -1.
         22    1    1    2    0    0  0.40639367187E+00 -0.18854627051E+00  0.24465624599E+01  0.24872421239E+01  0.00000000000E+00 0.  1.
</event>
<event>
 5    1  0.3005426E+001  0.1543287E+01  0.7818608E-02  0.3417315E+00
         11   -1    0    0    0    0  0.00000000000E+00  0.00000000000E+00  0.39999999674E+01  0.40000000000E+01  0.51100000000E-03 0. -1.
    9000002   -1    0    0    0    0 -0.00000000000E+00 -0.00000000000E+00  0.00000000000E+00  0.93800000000E+00  0.93800000000E+00 0. -1.
         11    1    1    2    0    0  0.76498155630E-01 -0.20781184619E+00  0.13632492848E+01  0.13811178823E+01  0.51100000000E-03 0. -1.
    9000002    1    1    2    0    0 -0.56523390151E+00 -0.95171309653E-01  0.28466941656E+00  0.11355296642E+01  0.93800000000E+00 0. -1.
         22    1    1    2    0    0  0.48873574588E+00  0.30298315584E+00  0.23520812660E+01  0.24213524535E+01  0.00000000000E+00 0. -1.
</event>
<event>
 5    1  0.3005426E+001  0.1599677E+01  0.7818608E-02  0.3353714E+00
         11   -1    0    0    0    0  0.00000000000E+00  0.00000000000E+00  0.39999999674E+01  0.40000000000E+01  0.51100000000E-03 0. -1.
    9000002   -1    0    0    0    0 -0.00000000000E+00 -0.00000000000E+00  0.00000000000E+00  0.93800000000E+00  0.93800000000E+00 0. -1.
         11    1    1    2    0    0 -0.11308172056E+00 -0.73357750546E-01  0.12134730874E+01  0.12209365381E+01  0.51100000000E-03 0. -1.
    9000002    1    1    2    0    0  0.36069936803E+00  0.23223002434E+00  0.12461795772E+00  0.10389458377E+01  0.93800000000E+00 0. -1.
         22    1    1    2    0    0 -0.24761764747E+00 -0.15887227379E+00  0.26619089222E+01  0.26781176242E+01  0.00000000000E+00 0. -1.
</event>
<event>
 5    1  0.3442505E+001  0.1599527E+01  0.7818608E-02  0.3353877E+00
         11   -1    0    0    0    0  0.00000000000E+00  0.00000000000E+00  0.39999999674E+01  0.40000000000E+01  0.51100000000E-03 0. -1.
    9000002   -1    0    0    0    0 -0.00000000000E+00 -0.00000000000E+00  0.00000000000E+00  0.93800000000E+00  0.93800000000E+00 0. -1.
         11    1    1    2    0    0  0.15547774927E+00  0.92851021220E-01  0.14886990015E+01  0.14996731713E+01  0.51100000000E-03 0. -1.
    9000002    1    1    2    0    0 -0.41786587462E+00 -0.27149731140E+00  0.17007789281E+00  0.10756826525E+01  0.93800000000E+00 0. -1.
         22    1    1    2    0    0  0.26238812535E+00  0.17864629018E+00  0.23412230731E+01  0.23626441762E+01  0.00000000000E+00 0. -1.
</event>
<event>
 5    1  0.3005426E+001  0.1598722E+01  0.7818608E-02  0.3354751E+00
         11   -1    0    0    0    0  0.00000000000E+00  0.00000000000E+00  0.39999999674E+01  0.40000000000E+01  0.51100000000E-03 0. -1.
    9000002   -1    0    0    0    0 -0.00000000000E+00 -0.00000000000E+00  0.00000000000E+00  0.93800000000E+00  0.93800000000E+00 0. -1.
         11    1    1    2    0    0 -0.27113501063E-01 -0.45566796654E-01  0.76867598429E+00  0.77050276109E+00  0.51100000000E-03 0. -1.
    9000002    1    1    2    0    0  0.23486090770E+00  0.34406778483E+00  0.11811733307E+00  0.10331205113E+01  0.93800000000E+00 0. -1.
         22    1    1    2    0    0 -0.20774740664E+00 -0.29850098818E+00  0.31132066500E+01  0.31343767276E+01  0.00000000000E+00 0. -1.
</event>
<event>
 5    1  0.3005426E+001  0.1599620E+01  0.7818608E-02  0.3353775E+00
         11   -1    0    0    0    0  0.00000000000E+00  0.00000000000E+00  0.39999999674E+01  0.40000000000E+01  0.51100000000E-03 0.  1.
    9000002   -1    0    0    0    0 -0.00000000000E+00 -0.00000000000E+00  0.00000000000E+00  0.93800000000E+00  0.93800000000E+00 0. -1.
         11    1    1    2    0    0 -0.90537515114E-01  0.95444320612E-01  0.13126752623E+01  0.13192510244E+01  0.51100000000E-03 0.  1.
    9000002    1    1    2    0    0  0.24886914742E+00 -0.26937521728E+00  0.90400054344E-01  0.10111948527E+01  0.93800000000E+00 0. -1.
         22    1    1    2    0    0 -0.15833163231E+00  0.17393089667E+00  0.25969246507E+01  0.26075541230E+01  0.00000000000E+00 0.  1.
</event>
<event>
 5    1  0.3005426E+001  0.1599660E+01  0.7818608E-02  0.3353732E+00
         11   -1    0    0    0    0  0.00000000000E+00  0.00000000000E+00  0.39999999674E+01  0.40000000000E+01  0.51100000000E-03 0. -1.
    9000002   -1    0    0    0    0 -0.00000000000E+00 -0.00000000000E+00  0.00000000000E+00  0.93800000000E+00  0.93800000000E+00 0.  1.
         11    1    1    2    0    0  0.23461791220E-01  0.24562827218E+00  0.11251470270E+01  0.11518853230E+01  0.51100000000E-03 0. -1.
    9000002    1    1    2    0    0 -0.83025297336E-01 -0.78485569122E+00  0.45720606115E+00  0.13083474456E+01  0.93800000000E+00 0.  1.
         22    1    1    2    0    0  0.59563506116E-01  0.53922741904E+00  0.24176468792E+01  0.24777672314E+01  0.00000000000E+00 0. -1.
</event>
<event>
 5    1  0.3005426E+001  0.1599676E+01  0.7818608E-02  0.3353715E+00
         11   -1    0    0    0    0  0.00000000000E+00  0.00000000000E+00  0.39999999674E+01  0.40000000000E+01  0.51100000000E-03 0. -1.
    9000002   -1    0    0    0    0 -0.00000000000E+00 -0.00000000000E+00  0.00000000000E+00  0.93800000000E+00  0.93800000000E+00 0. -1.
         11    1    1    2    0    0  0.76000910366E-01 -0.26396480225E-01  0.78554562310E+00  0.78965505104E+00  0.51100000000E-03 0. -1.
    9000002    1    1    2    0    0 -0.38087755377E+00  0.13036224323E+00  0.10935107653E+00  0.10265786299E+01  0.93800000000E+00 0. -1.
         22    1    1    2    0    0  0.30487664340E+00 -0.10396576300E+00  0.31051032677E+01  0.31217663191E+01  0.00000000000E+00 0. -1.
</event>
<event>
 5    1  0.3005426E+001  0.1599638E+01  0.7818608E-02  0.3353757E+00
         11   -1    0    0    0    0  0.00000000000E+00  0.00000000000E+00  0.39999999674E+01  0.40000000000E+01  0.51100000000E-03 0. -1.
    9000002   -1    0    0    0    0 -0.00000000000E+00 -0.00000000000E+00  0.00000000000E+00  0.93800000000E+00  0.93800000000E+00 0. -1.
         11    1    1    2    0    0  0.88643220939E-01  0.91221628631E-02  0.87373181250E+00  0.87826441108E+00  0.51100000000E-03 0. -1.
    9000002    1    1    2    0    0 -0.39892318623E+00 -0.68281748042E-01  0.11058808645E+00  0.10275581884E+01  0.93800000000E+00 0. -1.
         22    1    1    2    0    0  0.31027996529E+00  0.59159585179E-01  0.30156800684E+01  0.30321774005E+01  0.00000000000E+00 0. -1.
</event>
<event>
 5    1  0.3005426E+001  0.1599675E+01  0.7818608E-02  0.3353716E+00
         11   -1    0    0    0    0  0.00000000000E+00  0.00000000000E+00  0.39999999674E+01  0.40000000000E+01  0.51100000000E-03 0. -1.
    9000002   -1    0    0    0    0 -0.00000000000E+00 -0.00000000000E+00  0.00000000000E+00  0.93800000000E+00  0.93800000000E+00 0.  1.
         11    1    1    2    0    0 -0.39244529026E-01  0.45568183578E-01  0.51131728609E+00  0.51484193748E+00  0.51100000000E-03 0. -1.
    9000002    1    1    2    0    0  0.29186092476E+00 -0.35139466040E+00  0.14186454540E+00  0.10529152653E+01  0.93800000000E+00 0.  1.
         22    1    1    2    0    0 -0.25261639574E+00  0.30582647682E+00  0.33468181359E+01  0.33702427972E+01  0.00000000000E+00 0. -1.
</event>
<event>
 5    1  0.3005426E+001  0.1583031E+01  0.7818608E-02  0.3371990E+00
         11   -1    0    0    0    0  0.00000000000E+00  0.00000000000E+00  0.39999999674E+01  0.40000000000E+01  0.51100000000E-03 0. -1.
    9000002   -1    0    0    0    0 -0.00000000000E+00 -0.00000000000E+00  0.00000000000E+00  0.93800000000E+00  0.93800000000E+00 0.  1.
         11    1    1    2    0    0 -0.89598714107E-01  0.15914164056E+00  0.11603275952E+01  0.11746124385E+01  0.51100000000E-03 0. -1.
    9000002    1    1    2    0    0 -0.13584441386E+00 -0.34213929429E+00  0.10473312866E+00  0.10130775043E+01  0.93800000000E+00 0.  1.
         22    1    1    2    0    0  0.22544312797E+00  0.18299765373E+00  0.27349392435E+01  0.27503100572E+01  0.00000000000E+00 0. -1.
</event>
<event>
 5    1  0.3005426E+001  0.1597045E+01  0.7818608E-02  0.3356577E+00
         11   -1    0    0    0    0  0.00000000000E+00  0.00000000000E+00  0.39999999674E+01  0.40000000000E+01  0.51100000000E-03 0.  1.
    9000002   -1    0    0    0    0 -0.00000000000E+00 -0.00000000000E+00  0.00000000000E+00  0.93800000000E+00  0.93800000000E+00 0. -1.
         11    1    1    2    0    0  0.23332994714E+00  0.24484943768E-01  0.12504694363E+01  0.12722878798E+01  0.51100000000E-03 0.  1.
    9000002    1    1    2    0    0 -0.55984304945E+00  0.26878684216E-01  0.21993395981E+00  0.11146127805E+01  0.93800000000E+00 0. -1.
         22    1    1    2    0    0  0.32651310230E+00 -0.51363627983E-01  0.25295965712E+01  0.25510993398E+01  0.00000000000E+00 0.  1.
</event>
<event>
 5    1  0.3005426E+001  0.1599675E+01  0.7818608E-02  0.3353717E+00
         11   -1    0    0    0    0  0.00000000000E+00  0.00000000000E+00  0.39999999674E+01  0.40000000000E+01  0.51100000000E-03 0. -1.
    9000002   -1    0    0    0    0 -0.00000000000E+00 -0.00000000000E+00  0.00000000000E+00  0.93800000000E+00  0.93800000000E+00 0. -1.
         11    1    1    2    0    0 -0.11241500717E+00  0.28402419239E-01  0.10813585156E+01  0.10875570475E+01  0.51100000000E-03 0. -1.
    9000002    1    1    2    0    0  0.40799820859E+00 -0.98140232145E-01  0.11908928644E+00  0.10344661916E+01  0.93800000000E+00 0. -1.
         22    1    1    2    0    0 -0.29558320143E+00  0.69737812906E-01  0.27995521653E+01  0.28159767609E+01  0.00000000000E+00 0. -1.
</event>
<event>
 5    1  0.3005426E+001  0.1552286E+01  0.7818608E-02  0.3406836E+00
         11   -1    0    0    0    0  0.00000000000E+00  0.00000000000E+00  0.39999999674E+01  0.40000000000E+01  0.51100000000E-03 0.  1.
    9000002   -1    0    0    0    0 -0.00000000000E+00 -0.00000000000E+00  0.00000000000E+00  0.93800000000E+00  0.93800000000E+00 0. -1.
         11    1    1    2    0    0 -0.15847778544E-01  0.74381153950E-01  0.62882097183E-01  0.98681950806E-01  0.51100000000E-03 0.  1.
    9000002    1    1    2    0    0  0.44377500169E+00  0.17600803462E-01  0.17579440143E+00  0.10526128025E+01  0.93800000000E+00 0. -1.
         22    1    1    2    0    0 -0.42792722315E+00 -0.91981957411E-01  0.37613234687E+01  0.37867052467E+01  0.00000000000E+00 0.  1.
</event>
<event>
 5    1  0.3005426E+001  0.1599676E+01  0.7818608E-02  0.3353715E+00
         11   -1    0    0    0    0  0.00000000000E+00  0.00000000000E+00  0.39999999674E+01  0.40000000000E+01  0.51100000000E-03 0. -1.
    9000002   -1    0    0    0    0 -0.00000000000E+00 -0.00000000000E+00  0.00000000000E+00  0.93800000000E+00  0.93800000000E+00 0. -1.
         11    1    1    2    0    0 -0.13458707649E+00 -0.15385760856E-01  0.13144420460E+01  0.13214040095E+01  0.51100000000E-03 0. -1.
    9000002    1    1    2    0    0  0.39538675464E+00  0.47356420644E-01  0.10693740059E+00  0.10246233083E+01  0.93800000000E+00 0. -1.
         22    1    1    2    0    0 -0.26079967816E+00 -0.31970659788E-01  0.25786205208E+01  0.25919726822E+01  0.00000000000E+00 0. -1.
</event>
<event>
 5    1  0.3005426E+001  0.1599626E+01  0.7818608E-02  0.3353770E+00
         11   -1    0    0    0    0  0.00000000000E+00  0.00000000000E+00  0.39999999674E+01  0.40000000000E+01  0.51100000000E-03 0.  1.
    9000002   -1    0    0    0    0 -0.00000000000E+00 -0.00000000000E+00  0.00000000000E+00  0.93800000000E+00  0.93800000000E+00 0.  1.
         11    1    1    2    0    0 -0.45077521258E-01 -0.57431415453E-01  0.69853493549E+00  0.70234013671E+00  0.51100000000E-03 0.  1.
    9000002    1    1    2    0    0  0.24525575286E+00  0.28468441525E+00  0.94995578707E-01  0.10149205686E+01  0.93800000000E+00 0.  1.
         22    1    1    2    0    0 -0.20017823160E+00 -0.22725299980E+00  0.32064694532E+01  0.32207392947E+01  0.00000000000E+00 0.  1.
</event>
<event>
 5    1  0.3005426E+001  0.1599625E+01  0.7818608E-02  0.3353771E+00
         11   -1    0    0    0    0  0.00000000000E+00  0.00000000000E+00  0.39999999674E+01  0.40000000000E+01  0.51100000000E-03 0. -1.
    9000002   -1    0    0    0    0 -0.00000000000E+00 -0.00000000000E+00  0.00000000000E+00  0.93800000000E+00  0.93800000000E+00 0.  1.
         11    1    1    2    0    0 -0.22309732733E-01  0.12063381824E-01  0.22978235538E+00  0.23117837554E+00  0.51100000000E-03 0.  1.
    9000002    1    1    2    0    0  0.34316251869E+00 -0.26369324404E+00  0.12693659098E+00  0.10407937064E+01  0.93800000000E+00 0.  1.
         22    1    1    2    0    0 -0.32085278596E+00  0.25162986222E+00  0.36432810210E+01  0.36660279180E+01  0.00000000000E+00 0. -1.
</event>
<event>
 5    1  0.3005426E+001  0.1510995E+01  0.7818608E-02  0.3456019E+00
         11   -1    0    0    0    0  0.00000000000E+00  0.00000000000E+00  0.39999999674E+01  0.40000000000E+01  0.51100000000E-03 0.  1.
    9000002   -1    0    0    0    0 -0.00000000000E+00 -0.00000000000E+00  0.00000000000E+00  0.93800000000E+00  0.93800000000E+00 0.  1.
         11    1    1    2    0    0  0.20020747158E-01  0.19956747612E+00  0.29326009272E+00  0.35528826457E+00  0.51100000000E-03 0.  1.
    9000002    1    1    2    0    0 -0.46491461378E+00 -0.87836057970E-02  0.22931019074E+00  0.10717508635E+01  0.93800000000E+00 0.  1.
         22    1    1    2    0    0  0.44489386662E+00 -0.19078387032E+00  0.34774296839E+01  0.35109608719E+01  0.00000000000E+00 0.  1.
</event>
<event>
 5    1  0.3005426E+001  0.1562918E+01  0.7818608E-02  0.3394622E+00
         11   -1    0    0    0    0  0.00000000000E+00  0.00000000000E+00  0.39999999674E+01  0.40000000000E+01  0.51100000000E-03 0.  1.
    9000002   -1    0    0    0    0 -0.00000000000E+00 -0.00000000000E+00  0.00000000000E+00  0.93800000000E+00  0.93800000000E+00 0.  1.
         11    1    1    2    0    0 -0.14036306746E+00 -0.62715234097E-01  0.11770305196E+01  0.11870282628E+01  0.51100000000E-03 0.  1.
    9000002    1    1    2    0    0 -0.15186497816E+00 -0.12644262796E+00  0.53896453913E-01  0.96010392016E+00  0.93800000000E+00 0.  1.
         22    1    1    2    0    0  0.29222804562E+00  0.18915786206E+00  0.27690729938E+01  0.27908678171E+01  0.00000000000E+00 0.  1.
</event>
<event>
 5    1  0.3005426E+001  0.1599298E+01  0.7818608E-02  0.3354125E+00
         11   -1    0    0    0    0  0.00000000000E+00  0.00000000000E+00  0.39999999674E+01  0.40000000000E+01  0.51100000000E-03 0. -1.
    9000002   -1    0    0    0    0 -0.00000000000E+00 -0.00000000000E+00  0.00000000000E+00  0.93800000000E+00  0.93800000000E+00 0. -1.
         11    1    1    2    0    0 -0.28381501293E-01  0.51234093314E-01  0.88525126260E+00  0.88718684672E+00  0.51100000000E-03 0. -1.
    9000002    1    1    2    0    0  0.14359360610E+00 -0.31202932721E+00  0.79355404409E-01  0.10020592323E+01  0.93800000000E+00 0. -1.
         22    1    1    2    0    0 -0.11521210481E+00  0.26079523390E+00  0.30353933004E+01  0.30487539210E+01  0.00000000000E+00 0. -1.
</event>
<event>
 5    1  0.3005426E+001  0.1594860E+01  0.7818608E-02  0.3358962E+00
         11   -1    0    0    0    0  0.00000000000E+00  0.00000000000E+00  0.39999999674E+01  0.40000000000E+01  0.51100000000E-03 0. -1.
    9000002   -1    0    0    0    0 -0.00000000000E+00 -0.00000000000E+00  0.00000000000E+00  0.93800000000E+00  0.93800000000E+00 0. -1.
         11    1    1    2    0    0 -0.23302603971E-01  0.84287416343E-01  0.41947520481E+00  0.42849397718E+00  0.51100000000E-03 0. -1.
    9000002    1    1    2    0    0  0.32219720796E+00 -0.30665512328E+00  0.13842843040E+00  0.10473083766E+01  0.93800000000E+00 0. -1.
         22    1    1    2    0    0 -0.29889460398E+00  0.22236770694E+00  0.34420963321E+01  0.34621976462E+01  0.00000000000E+00 0. -1.
</event>
<event>
 5    1  0.3005426E+001  0.1599653E+01  0.7818608E-02  0.3353740E+00
         11   -1    0    0    0    0  0.00000000000E+00  0.00000000000E+00  0.39999999674E+01  0.40000000000E+01  0.51100000000E-03 0.  1.
    9000002   -1    0    0    0    0 -0.00000000000E+00 -0.00000000000E+00  0.00000000000E+00  0.93800000000E+00  0.93800000000E+00 0.  1.
         11    1    1    2    0    0 -0.12300226011E+00 -0.49507106361E-01  0.11328069561E+01  0.11405403853E+01  0.51100000000E-03 0.  1.
    9000002    1    1    2    0    0  0.40976490961E+00  0.18413760160E+00  0.13707375638E+00  0.10490219979E+01  0.93800000000E+00 0.  1.
         22    1    1    2    0    0 -0.28676264950E+00 -0.13463049523E+00  0.27301192549E+01  0.27484376168E+01  0.00000000000E+00 0.  1.
</event>
<event>
 5    1  0.3005426E+001  0.1599484E+01  0.7818608E-02  0.3353924E+00
         11   -1    0    0    0    0  0.00000000000E+00  0.00000000000E+00  0.39999999674E+01  0.40000000000E+01  0.51100000000E-03 0. -1.
    9000002   -1    0    0    0    0 -0.00000000000E+00 -0.00000000000E+00  0.00000000000E+00  0.93800000000E+00  0.93800000000E+00 0. -1.
         11    1    1    2    0    0 -0.85269901452E-01 -0.76844984136E-01  0.60648848795E+00  0.61725574507E+00  0.51100000000E-03 0. -1.
    9000002    1    1    2    0    0  0.45875460115E+00  0.42978462785E+00  0.27765822467E+00  0.11628020898E+01  0.93800000000E+00 0. -1.
         22    1    1    2    0    0 -0.37348469970E+00 -0.35293964371E+00  0.31158532547E+01  0.31579421651E+01  0.00000000000E+00 0. -1.
</event>
<event>
 5    1  0.3057288E+001  0.1548022E+01  0.7818608E-02  0.3411786E+00
         11   -1    0    0    0    0  0.00000000000E+00  0.00000000000E+00  0.39999999674E+01  0.40000000000E+01  0.51100000000E-03 0. -1.
    9000002   -1    0    0    0    0 -0.00000000000E+00 -0.00000000000E+00  0.00000000000E+00  0.93800000000E+00  0.93800000000E+00 0.  1.
         11    1    1    2    0    0 -0.52461341728E-01 -0.21311457654E+00  0.13421982054E+01  0.13600243743E+01  0.51100000000E-03 0. -1.
    9000002    1    1    2    0    0 -0.89314406721E-01 -0.95293747494E-01  0.50204573662E-01  0.94837885930E+00  0.93800000000E+00 0.  1.
         22    1    1    2    0    0  0.14177574845E+00  0.30840832404E+00  0.26075971883E+01  0.26295967664E+01  0.00000000000E+00 0.  1.
</event>
<event>
 5    1  0.3005426E+001  0.1599676E+01  0.7818608E-02  0.3353715E+00
         11   -1    0    0    0    0  0.00000000000E+00  0.00000000000E+00  0.39999999674E+01  0.40000000000E+01  0.51100000000E-03 0. -1.
    9000002   -1    0    0    0    0 -0.00000000000E+00 -0.00000000000E+00  0.00000000000E+00  0.93800000000E+00  0.93800000000E+00 0.  1.
         11    1    1    2    0    0 -0.10621976540E-01 -0.13065309286E+00  0.13727779019E+01  0.13790222935E+01  0.51100000000E-03 0. -1.
    9000002    1    1    2    0    0  0.33347984945E-01  0.37233570290E+00  0.93957906718E-01  0.10141094872E+01  0.93800000000E+00 0.  1.
         22    1    1    2    0    0 -0.22726008405E-01 -0.24168261004E+00  0.25332641588E+01  0.25448682193E+01  0.00000000000E+00 0. -1.
</event>
<event>
 5    1  0.3005426E+001  0.1599674E+01  0.7818608E-02  0.3353718E+00
         11   -1    0    0    0    0  0.00000000000E+00  0.00000000000E+00  0.39999999674E+01  0.40000000000E+01  0.51100000000E-03 0. -1.
    9000002   -1    0    0    0    0 -0.00000000000E+00 -0.00000000000E+00  0.00000000000E+00  0.93800000000E+00  0.93800000000E+00 0.  1.
         11    1    1    2    0    0  0.35758023171E-02 -0.11089558848E-01  0.89961905776E-01  0.90714774373E-01  0.51100000000E-03 0.  1.
    9000002    1    1    2    0    0 -0.14750640418E+00  0.48936454234E+00  0.17917216152E+00  0.10831354754E+01  0.93800000000E+00 0.  1.
         22    1    1    2    0    0  0.14393060186E+00 -0.47827498350E+00  0.37308659001E+01  0.37641497502E+01  0.00000000000E+00 0. -1.
</event>
<event>
 5    1  0.3005426E+001  0.1599671E+01  0.7818608E-02  0.3353721E+00
         11   -1    0    0    0    0  0.00000000000E+00  0.00000000000E+00  0.39999999674E+01  0.40000000000E+01  0.51100000000E-03 0. -1.
    9000002   -1    0    0    0    0 -0.00000000000E+00 -0.00000000000E+00  0.00000000000E+00  0.93800000000E+00  0.93800000000E+00 0.  1.
         11    1    1    2    0    0 -0.27778483221E-01 -0.39999350531E-01  0.49308275683E+00  0.49548204647E+00  0.51100000000E-03 0.  1.
    9000002    1    1    2    0    0  0.20451515664E+00  0.31479145137E+00  0.94769390209E-01  0.10147636890E+01  0.93800000000E+00 0.  1.
         22    1    1    2    0    0 -0.17673667342E+00 -0.27479210084E+00  0.34121478203E+01  0.34277542645E+01  0.00000000000E+00 0. -1.
</event>
<event>
 5    1  0.3005426E+001  0.1543007E+01  0.7818608E-02  0.3417644E+00
         11   -1    0    0    0    0  0.00000000000E+00  0.00000000000E+00  0.39999999674E+01  0.40000000000E+01  0.51100000000E-03 0.  1.
    9000002   -1    0    0    0    0 -0.00000000000E+00 -0.00000000000E+00  0.00000000000E+00  0.93800000000E+00  0.93800000000E+00 0. -1.
         11    1    1    2    0    0  0.42133541271E-01 -0.41594899192E-01  0.18950922431E-01  0.62167270495E-01  0.51100000000E-03 0.  1.
    9000002    1    1    2    0    0 -0.41736807305E+00 -0.36459462779E+00  0.26817056814E+00  0.11220003586E+01  0.93800000000E+00 0. -1.
         22    1    1    2    0    0  0.37523453178E+00  0.40618952698E+00  0.37128784768E+01  0.37538323709E+01  0.00000000000E+00 0.  1.
</event>
<event>
 5    1  0.3005426E+001  0.1595977E+01  0.7818608E-02  0.3357741E+00
         11   -1    0    0    0    0  0.00000000000E+00  0.00000000000E+00  0.39999999674E+01  0.40000000000E+01  0.51100000000E-03 0.  1.
    9000002   -1    0    0    0    0 -0.00000000000E+00 -0.00000000000E+00  0.00000000000E+00  0.93800000000E+00  0.93800000000E+00 0.  1.
         11    1    1    2    0    0 -0.84083181433E-01  0.58488712471E-01  0.42448435624E+00  0.43666708223E+00  0.51100000000E-03 0.  1.
    9000002    1    1    2    0    0  0.44570070897E+00 -0.24339717448E+00  0.18013911617E+00  0.10817510840E+01  0.93800000000E+00 0.  1.
         22    1    1    2    0    0 -0.36161752753E+00  0.18490846201E+00  0.33953764950E+01  0.34195818338E+01  0.00000000000E+00 0.  1.
</event>
<event>
 5    1  0.3005426E+001  0.1587851E+01  0.7818608E-02  0.3366656E+00
         11   -1    0    0    0    0  0.00000000000E+00  0.00000000000E+00  0.39999999674E+01  0.40000000000E+01  0.51100000000E-03 0.  1.
    9000002   -1    0    0    0    0 -0.00000000000E+00 -0.00000000000E+00  0.00000000000E+00  0.93800000000E+00  0.93800000000E+00 0.  1.
         11    1    1    2    0    0  0.13586213750E+00  0.34475899903E-01  0.99506380417E+00  0.10048877269E+01  0.51100000000E-03 0.  1.
    9000002    1    1    2    0    0 -0.17027769892E+00 -0.39813112806E+00  0.13718762503E+00  0.10421935206E+01  0.93800000000E+00 0.  1.
         22    1    1    2    0    0  0.34415561425E-01  0.36365522816E+00  0.28677485382E+01  0.28909187526E+01  0.00000000000E+00 0.  1.
</event>
<event>
 5    1  0.3005426E+001  0.1599106E+01  0.7818608E-02  0.3354335E+00
         11   -1    0    0    0    0  0.00000000000E+00  0.00000000000E+00  0.39999999674E+01  0.40000000000E+01  0.51100000000E-03 0. -1.
    9000002   -1    0    0    0    0 -0.00000000000E+00 -0.00000000000E+00  0.00000000000E+00  0.93800000000E+00  0.93800000000E+00 0.  1.
         11    1    1    2    0    0 -0.47065792501E-01 -0.15883951559E-01  0.33046480522E+00  0.33417770325E+00  0.51100000000E-03 0. -1.
    9000002    1    1    2    0    0  0.37002854961E+00  0.14086346501E+00  0.10615962072E+00  0.10236588828E+01  0.93800000000E+00 0.  1.
         22    1    1    2    0    0 -0.32296275711E+00 -0.12497951345E+00  0.35633755414E+01  0.35801634139E+01  0.00000000000E+00 0. -1.
</event>
<event>
 5    1  0.3005426E+001  0.1599586E+01  0.7818608E-02  0.3353813E+00
         11   -1    0    0    0    0  0.00000000000E+00  0.00000000000E+00  0.39999999674E+01  0.40000000000E+01  0.51100000000E-03 0.  1.
    9000002   -1    0    0    0    0 -0.00000000000E+00 -0.00000000000E+00  0.00000000000E+00  0.93800000000E+00  0.93800000000E+00 0.  1.
         11    1    1    2    0    0  0.10073391564E-01 -0.22435672128E-02  0.73197101093E-01  0.73922821515E-01  0.51100000000E-03 0.  1.
    9000002    1    1    2    0    0 -0.37675270949E+00  0.79928417458E-01  0.99940431110E-01  0.10189029619E+01  0.93800000000E+00 0.  1.
         22    1    1    2    0    0  0.36667931793E+00 -0.77684850245E-01  0.38268624352E+01  0.38451742166E+01  0.00000000000E+00 0.  1.
</event>
<event>
 5    1  0.3005426E+001  0.1599677E+01  0.7818608E-02  0.3353714E+00
         11   -1    0    0    0    0  0.00000000000E+00  0.00000000000E+00  0.39999999674E+01  0.40000000000E+01  0.51100000000E-03 0. -1.
    9000002   -1    0    0    0    0 -0.00000000000E+00 -0.00000000000E+00  0.00000000000E+00  0.93800000000E+00  0.93800000000E+00 0. -1.
         11    1    1    2    0    0 -0.20485779714E+00 -0.33268921169E+00  0.11966957443E+01  0.12588605142E+01  0.51100000000E-03 0.  1.
    9000002    1    1    2    0    0  0.53740959349E+00  0.87279865073E+00  0.85783471231E+00  0.16328842425E+01  0.93800000000E+00 0. -1.
         22    1    1    2    0    0 -0.33255179635E+00 -0.54010943903E+00  0.19454695108E+01  0.20462552433E+01  0.00000000000E+00 0. -1.
</event>
<event>
 5    1  0.3005426E+001  0.1599213E+01  0.7818608E-02  0.3354218E+00
         11   -1    0    0    0    0  0.00000000000E+00  0.00000000000E+00  0.39999999674E+01  0.40000000000E+01  0.51100000000E-03 0.  1.
    9000002   -1    0    0    0    0 -0.00000000000E+00 -0.00000000000E+00  0.00000000000E+00  0.93800000000E+00  0.93800000000E+00 0.  1.
         11    1    1    2    0    0  0.21171306471E+00 -0.79524872478E-01  0.11514213236E+01  0.11734214728E+01  0.51100000000E-03 0.  1.
    9000002    1    1    2    0    0 -0.65232026843E+00  0.32467792237E+00  0.38302294715E+00  0.12479936153E+01  0.93800000000E+00 0.  1.
         22    1    1    2    0    0  0.44060720372E+00 -0.24515304989E+00  0.24655556966E+01  0.25165849119E+01  0.00000000000E+00 0.  1.
</event>
<event>
 5    1  0.3005426E+001  0.1588581E+01  0.7818608E-02  0.3365851E+00
         11   -1    0    0    0    0  0.00000000000E+00  0.00000000000E+00  0.39999999674E+01  0.40000000000E+01  0.51100000000E-03 0. -1.
    9000002   -1    0    0    0    0 -0.00000000000E+00 -0.00000000000E+00  0.00000000000E+00  0.93800000000E+00  0.93800000000E+00 0. -1.
         11    1    1    2    0    0 -0.12570033895E+00 -0.40478110801E-02  0.14131813122E+01  0.14187665919E+01  0.51100000000E-03 0. -1.
    9000002    1    1    2    0    0  0.42688141040E+00  0.32862730454E+00  0.21046804152E+00  0.11019820508E+01  0.93800000000E+00 0. -1.
         22    1    1    2    0    0 -0.30118107145E+00 -0.32457949346E+00  0.23763506136E+01  0.24172513573E+01  0.00000000000E+00 0. -1.
</event>
<event>
 5    1  0.3005426E+001  0.1599621E+01  0.7818608E-02  0.3353774E+00
         11   -1    0    0    0    0  0.00000000000E+00  0.00000000000E+00  0.39999999674E+01  0.40000000000E+01  0.51100000000E-03 0. -1.
    9000002   -1    0    0    0    0 -0.00000000000E+00 -0.00000000000E+00  0.00000000000E+00  0.93800000000E+00  0.93800000000E+00 0. -1.
         11    1    1    2    0    0 -0.13453150324E+00 -0.63223738322E-02  0.12826132636E+01  0.12896649731E+01  0.51100000000E-03 0. -1.
    9000002    1    1    2    0    0  0.39811355908E+00  0.42701799887E-01  0.10818934771E+00  0.10256055697E+01  0.93800000000E+00 0. -1.
         22    1    1    2    0    0 -0.26358205584E+00 -0.36379426055E-01  0.26091973560E+01  0.26227294572E+01  0.00000000000E+00 0.  1.
</event>
<event>
 5    1  0.3005426E+001  0.1599665E+01  0.7818608E-02  0.3353727E+00
         11   -1    0    0    0    0  0.00000000000E+00  0.00000000000E+00  0.39999999674E+01  0.40000000000E+01  0.51100000000E-03 0.  1.
    9000002   -1    0    0    0    0 -0.00000000000E+00 -0.00000000000E+00  0.00000000000E+00  0.93800000000E+00  0.93800000000E+00 0. -1.
         11    1    1    2    0    0  0.35305385487E-01  0.43030938163E-01  0.46290293417E+00  0.46623762125E+00  0.51100000000E-03 0.  1.
    9000002    1    1    2    0    0 -0.27499499985E+00 -0.34924169143E+00  0.13410375893E+00  0.10466230588E+01  0.93800000000E+00 0. -1.
         22    1    1    2    0    0  0.23968961436E+00  0.30621075327E+00  0.34029932743E+01  0.34251393200E+01  0.00000000000E+00 0.  1.
</event>
<event>
 5    1  0.4306604E+001  0.1556847E+01  0.7818608E-02  0.3401574E+00
         11   -1    0    0    0    0  0.00000000000E+00  0.00000000000E+00  0.39999999674E+01  0.40000000000E+01  0.51100000000E-03 0. -1.
    9000002   -1    0    0    0    0 -0.00000000000E+00 -0.00000000000E+00  0.00000000000E+00  0.93800000000E+00  0.93800000000E+00 0.  1.
         11    1    1    2    0    0 -0.20097858552E+00  0.41140161630E-01  0.11271424693E+01  0.11456593350E+01  0.51100000000E-03 0. -1.
    9000002    1    1    2    0    0 -0.50642531524E-01  0.82736998403E-01  0.38130457346E-01  0.94377328246E+00  0.93800000000E+00 0.  1.
         22    1    1    2    0    0  0.25162111704E+00 -0.12387716003E+00  0.28347270407E+01  0.28485673825E+01  0.00000000000E+00 0. -1.
</event>
<event>
 5    1  0.3005426E+001  0.1595931E+01  0.7818608E-02  0.3357792E+00
         11   -1    0    0    0    0  0.00000000000E+00  0.00000000000E+00  0.39999999674E+01  0.40000000000E+01  0.51100000000E-03 0.  1.
    9000002   -1    0    0    0    0 -0.00000000000E+00 -0.00000000000E+00  0.00000000000E+00  0.93800000000E+00  0.93800000000E+00 0.  1.
         11    1    1    2    0    0  0.18544722223E+00 -0.11963829317E+00  0.10277039321E+01  0.10511325447E+01  0.51100000000E-03 0.  1.
    9000002    1    1    2    0    0 -0.62566672583E+00  0.19500013208E+00  0.30743521372E+00  0.11848393621E+01  0.93800000000E+00 0.  1.
         22    1    1    2    0    0  0.44021950361E+00 -0.75361838906E-01  0.26648608216E+01  0.27020280932E+01  0.00000000000E+00 0.  1.
</event>
<event>
 5    1  0.3005426E+001  0.1590855E+01  0.7818608E-02  0.3363349E+00
         11   -1    0    0    0    0  0.00000000000E+00  0.00000000000E+00  0.39999999674E+01  0.40000000000E+01  0.51100000000E-03 0. -1.
    9000002   -1    0    0    0    0 -0.00000000000E+00 -0.00000000000E+00  0.00000000000E+00  0.93800000000E+00  0.93800000000E+00 0.  1.
         11    1    1    2    0    0  0.12602513895E-01  0.52630829217E-01  0.73452823536E+00  0.73651939364E+00  0.51100000000E-03 0. -1.
    9000002    1    1    2    0    0 -0.33582874822E+00  0.10553227152E+00  0.90253108255E-01  0.10059361968E+01  0.93800000000E+00 0.  1.
         22    1    1    2    0    0  0.32322623432E+00 -0.15816310073E+00  0.31752186237E+01  0.31955444096E+01  0.00000000000E+00 0. -1.
</event>
<event>
 5    1  0.3005426E+001  0.1448444E+01  0.7818608E-02  0.3536293E+00
         11   -1    0    0    0    0  0.00000000000E+00  0.00000000000E+00  0.39999999674E+01  0.40000000000E+01  0.51100000000E-03 0. -1.
    9000002   -1    0    0    0    0 -0.00000000000E+00 -0.00000000000E+00  0.00000000000E+00  0.93800000000E+00  0.93800000000E+00 0. -1.
         11    1    1    2    0    0  0.10338598687E+00  0.37673277117E+00  0.70680693380E+00  0.80758438936E+00  0.51100000000E-03 0. -1.
    9000002    1    1    2    0    0 -0.11667302616E+00 -0.75588930552E-01  0.13492723054E+00  0.95779728492E+00  0.93800000000E+00 0. -1.
         22    1    1    2    0    0  0.13287039287E-01 -0.30114384062E+00  0.31582658030E+01  0.31726183257E+01  0.00000000000E+00 0. -1.
</event>
<event>
 5    1  0.3005426E+001  0.1571373E+01  0.7818608E-02  0.3385033E+00
         11   -1    0    0    0    0  0.00000000000E+00  0.00000000000E+00  0.39999999674E+01  0.40000000000E+01  0.51100000000E-03 0. -1.
    9000002   -1    0    0    0    0 -0.00000000000E+00 -0.00000000000E+00  0.00000000000E+00  0.93800000000E+00  0.93800000000E+00 0. -1.
         11    1    1    2    0    0  0.89422018107E-01 -0.14920227373E+00  0.70154599871E+00  0.72278950272E+00  0.51100000000E-03 0. -1.
    9000002    1    1    2    0    0  0.19104503552E+00  0.29884358327E+00  0.10761835857E+00  0.10085789032E+01  0.93800000000E+00 0. -1.
         22    1    1    2    0    0 -0.28046705362E+00 -0.14964130954E+00  0.31908356101E+01  0.32066315941E+01  0.00000000000E+00 0. -1.
</event>
<event>
 5    1  0.3005426E+001  0.1599124E+01  0.7818608E-02  0.3354315E+00
         11   -1    0    0    0    0  0.00000000000E+00  0.00000000000E+00  0.39999999674E+01  0.40000000000E+01  0.51100000000E-03 0.  1.
    9000002   -1    0    0    0    0 -0.00000000000E+00 -0.00000000000E+00  0.00000000000E+00  0.93800000000E+00  0.93800000000E+00 0.  1.
         11    1    1    2    0    0 -0.22364145987E-01 -0.40639618808E-01  0.99651459816E-01  0.10992000822E+00  0.51100000000E-03 0.  1.
    9000002    1    1    2    0    0  0.49178965307E+00  0.95782160918E+00  0.98161529972E+00  0.17328277163E+01  0.93800000000E+00 0.  1.
         22    1    1    2    0    0 -0.46942550709E+00 -0.91718199037E+00  0.29187332078E+01  0.30952522754E+01  0.00000000000E+00 0.  1.
</event>
<event>
 5    1  0.3005426E+001  0.1587612E+01  0.7818608E-02  0.3366919E+00
         11   -1    0    0    0    0  0.00000000000E+00  0.00000000000E+00  0.39999999674E+01  0.40000000000E+01  0.51100000000E-03 0. -1.
    9000002   -1    0    0    0    0 -0.00000000000E+00 -0.00000000000E+00  0.00000000000E+00  0.93800000000E+00  0.93800000000E+00 0.  1.
         11    1    1    2    0    0 -0.95539826596E-01 -0.20232076283E-01  0.11755652040E+01  0.11796147699E+01  0.51100000000E-03 0. -1.
    9000002    1    1    2    0    0  0.26993548976E+00  0.45925704790E+00  0.20666510926E+00  0.10983335887E+01  0.93800000000E+00 0.  1.
         22    1    1    2    0    0 -0.17439566316E+00 -0.43902497161E+00  0.26177696541E+01  0.26600516414E+01  0.00000000000E+00 0. -1.
</event>
<event>
 5    1  0.3005426E+001  0.1573021E+01  0.7818608E-02  0.3383177E+00
         11   -1    0    0    0    0  0.00000000000E+00  0.00000000000E+00  0.39999999674E+01  0.40000000000E+01  0.51100000000E-03 0. -1.
    9000002   -1    0    0    0    0 -0.00000000000E+00 -0.00000000000E+00  0.00000000000E+00  0.93800000000E+00  0.93800000000E+00 0. -1.
         11    1    1    2    0    0 -0.25066862281E+00  0.47199496229E+00  0.79931276658E+00  0.96151711520E+00  0.51100000000E-03 0. -1.
    9000002    1    1    2    0    0  0.71194365486E+00 -0.92310529879E+00  0.13453468681E+01  0.20121603703E+01  0.93800000000E+00 0. -1.
         22    1    1    2    0    0 -0.46127503205E+00  0.45111033650E+00  0.18553403326E+01  0.19643225145E+01  0.00000000000E+00 0. -1.
</event>
<event>
 5    1  0.3005426E+001  0.1599137E+01  0.7818608E-02  0.3354301E+00
         11   -1    0    0    0    0  0.00000000000E+00  0.00000000000E+00  0.39999999674E+01  0.40000000000E+01  0.51100000000E-03 0. -1.
    9000002   -1    0    0    0    0 -0.00000000000E+00 -0.00000000000E+00  0.00000000000E+00  0.93800000000E+00  0.93800000000E+00 0.  1.
         11    1    1    2    0    0  0.16214073047E-01 -0.22693176849E+00  0.14757739590E+01  0.14932079436E+01  0.51100000000E-03 0. -1.
    9000002    1    1    2    0    0 -0.10489814351E+00  0.55172830058E+00  0.21885603542E+00  0.11149662338E+01  0.93800000000E+00 0.  1.
         22    1    1    2    0    0  0.88684070459E-01 -0.32479653209E+00  0.23053699729E+01  0.23298258226E+01  0.00000000000E+00 0. -1.
</event>
<event>
 5    1  0.3005426E+001  0.1599296E+01  0.7818608E-02  0.3354128E+00
         11   -1    0    0    0    0  0.00000000000E+00  0.00000000000E+00  0.39999999674E+01  0.40000000000E+01  0.51100000000E-03 0. -1.
    9000002   -1    0    0    0    0 -0.00000000000E+00 -0.00000000000E+00  0.00000000000E+00  0.93800000000E+00  0.93800000000E+00 0.  1.
         11    1    1    2    0    0  0.11083134318E+00 -0.17350211505E+00  0.12519910258E+01  0.12688058797E+01  0.51100000000E-03 0. -1.
    9000002    1    1    2    0    0 -0.36443491217E+00  0.46226481830E+00  0.24154973794E+00  0.11334424747E+01  0.93800000000E+00 0.  1.
         22    1    1    2    0    0  0.25360356899E+00 -0.28876270326E+00  0.25064592036E+01  0.25357516456E+01  0.00000000000E+00 0. -1.
</event>
<event>
 5    1  0.3005426E+001  0.1593571E+01  0.7818608E-02  0.3360371E+00
         11   -1    0    0    0    0  0.00000000000E+00  0.00000000000E+00  0.39999999674E+01  0.40000000000E+01  0.51100000000E-03 0.  1.
    9000002   -1    0    0    0    0 -0.00000000000E+00 -0.00000000000E+00  0.00000000000E+00  0.93800000000E+00  0.93800000000E+00 0.  1.
         11    1    1    2    0    0  0.16160015943E-01  0.75941408467E-02  0.29182980529E+00  0.29237597963E+00  0.51100000000E-03 0.  1.
    9000002    1    1    2    0    0  0.87591051560E-01  0.48313911401E+00  0.17027396694E+00  0.10723492060E+01  0.93800000000E+00 0.  1.
         22    1    1    2    0    0 -0.10375106750E+00 -0.49073325486E+00  0.35378961951E+01  0.35732748144E+01  0.00000000000E+00 0.  1.
</event>
<event>
 5    1  0.3005426E+001  0.1597094E+01  0.7818608E-02  0.3356524E+00
         11   -1    0    0    0    0  0.00000000000E+00  0.00000000000E+00  0.39999999674E+01  0.40000000000E+01  0.51100000000E-03 0.  1.
    9000002   -1    0    0    0    0 -0.00000000000E+00 -0.00000000000E+00  0.00000000000E+00  0.93800000000E+00  0.93800000000E+00 0. -1.
         11    1    1    2    0    0  0.80059507570E-01 -0.64560172561E-01  0.12715848282E+01  0.12757373464E+01  0.51100000000E-03 0.  1.
    9000002    1    1    2    0    0 -0.37610300307E+00  0.80049662515E-01  0.10167152654E+00  0.10188437155E+01  0.93800000000E+00 0. -1.
         22    1    1    2    0    0  0.29604349550E+00 -0.15489489954E-01  0.26267436127E+01  0.26434189381E+01  0.00000000000E+00 0.  1.
</event>
<event>
 5    1  0.3005426E+001  0.1599534E+01  0.7818608E-02  0.3353870E+00
         11   -1    0    0    0    0  0.00000000000E+00  0.00000000000E+00  0.39999999674E+01  0.40000000000E+01  0.51100000000E-03 0.  1.
    9000002   -1    0    0    0    0 -0.00000000000E+00 -0.00000000000E+00  0.00000000000E+00  0.93800000000E+00  0.93800000000E+00 0. -1.
         11    1    1    2    0    0 -0.20159121319E-02 -0.94481764539E-01  0.86752052984E+00  0.87265285111E+00  0.51100000000E-03 0.  1.
    9000002    1    1    2    0    0 -0.36768312504E-01  0.39570509334E+00  0.10661371610E+00  0.10242777524E+01  0.93800000000E+00 0. -1.
         22    1    1    2    0    0  0.38784224636E-01 -0.30122332880E+00  0.30258657214E+01  0.30410693964E+01  0.00000000000E+00 0.  1.
</event>
<event>
 5    1  0.3005426E+001  0.1578978E+01  0.7818608E-02  0.3376500E+00
         11   -1    0    0    0    0  0.00000000000E+00  0.00000000000E+00  0.39999999674E+01  0.40000000000E+01  0.51100000000E-03 0.  1.
    9000002   -1    0    0    0    0 -0.00000000000E+00 -0.00000000000E+00  0.00000000000E+00  0.93800000000E+00  0.93800000000E+00 0. -1.
         11    1    1    2    0    0 -0.27409124875E-01  0.27322039471E+00  0.13277078280E+01  0.13558056579E+01  0.51100000000E-03 0.  1.
    9000002    1    1    2    0    0  0.39297590202E+00 -0.42584546240E+00  0.25368578580E+00  0.11313597550E+01  0.93800000000E+00 0. -1.
         22    1    1    2    0    0 -0.36556677715E+00  0.15262506769E+00  0.24186063536E+01  0.24508345871E+01  0.00000000000E+00 0.  1.
</event>
<event>
 5    1  0.3005426E+001  0.1599674E+01  0.7818608E-02  0.3353717E+00
         11   -1    0    0    0    0  0.00000000000E+00  0.00000000000E+00  0.39999999674E+01  0.40000000000E+01  0.51100000000E-03 0. -1.
    9000002   -1    0    0    0    0 -0.00000000000E+00 -0.00000000000E+00  0.00000000000E+00  0.93800000000E+00  0.93800000000E+00 0. -1.
         11    1    1    2    0    0 -0.67837748385E-02 -0.10743373644E-01  0.12714863853E+00  0.12778292953E+00  0.51100000000E-03 0. -1.
    9000002    1    1    2    0    0  0.19347838178E+00  0.33224691385E+00  0.99516865385E-01  0.10186115562E+01  0.93800000000E+00 0. -1.
         22    1    1    2    0    0 -0.18669460694E+00 -0.32150354021E+00  0.37733344634E+01  0.37916055142E+01  0.00000000000E+00 0. -1.
</event>
<event>
 5    1  0.3005426E+001  0.1599620E+01  0.7818608E-02  0.3353776E+00
         11   -1    0    0    0    0  0.00000000000E+00  0.00000000000E+00  0.39999999674E+01  0.40000000000E+01  0.51100000000E-03 0.  1.
    9000002   -1    0    0    0    0 -0.00000000000E+00 -0.00000000000E+00  0.00000000000E+00  0.93800000000E+00  0.93800000000E+00 0.  1.
         11    1    1    2    0    0 -0.19038103587E-01 -0.42685217445E-01  0.42758049066E+00  0.43012767208E+00  0.51100000000E-03 0.  1.
    9000002    1    1    2    0    0  0.13511093685E+00  0.35476638317E+00  0.97008483288E-01  0.10165474892E+01  0.93800000000E+00 0.  1.
         22    1    1    2    0    0 -0.11607283326E+00 -0.31208116573E+00  0.34754109934E+01  0.34913248388E+01  0.00000000000E+00 0.  1.
</event>
<event>
 5    1  0.3005426E+001  0.1500437E+01  0.7818608E-02  0.3469061E+00
         11   -1    0    0    0    0  0.00000000000E+00  0.00000000000E+00  0.39999999674E+01  0.40000000000E+01  0.51100000000E-03 0.  1.
    9000002   -1    0    0    0    0 -0.00000000000E+00 -0.00000000000E+00  0.00000000000E+00  0.93800000000E+00  0.93800000000E+00 0. -1.
         11    1    1    2    0    0  0.18827080057E+00  0.19935305169E+00  0.59649002629E+00  0.65649687444E+00  0.51100000000E-03 0.  1.
    9000002    1    1    2    0    0  0.27158213815E+00 -0.27105217617E+00  0.18583297167E+00  0.10303417071E+01  0.93800000000E+00 0. -1.
         22    1    1    2    0    0 -0.45985293872E+00  0.71699124485E-01  0.32176769694E+01  0.32511614185E+01  0.00000000000E+00 0. -1.
</event>
<event>
 5    1  0.3005426E+001  0.1599428E+01  0.7818608E-02  0.3353985E+00
         11   -1    0    0    0    0  0.00000000000E+00  0.00000000000E+00  0.39999999674E+01  0.40000000000E+01  0.51100000000E-03 0. -1.
    9000002   -1    0    0    0    0 -0.00000000000E+00 -0.00000000000E+00  0.00000000000E+00  0.93800000000E+00  0.93800000000E+00 0. -1.
         11    1    1    2    0    0 -0.11799554687E+00 -0.12167768233E+00  0.14747822465E+01  0.14844902637E+01  0.51100000000E-03 0. -1.
    9000002    1    1    2    0    0  0.26381017916E+00  0.33407097123E+00  0.12285225220E+00  0.10373697028E+01  0.93800000000E+00 0. -1.
         22    1    1    2    0    0 -0.14581463230E+00 -0.21239328891E+00  0.24023654687E+01  0.24161400334E+01  0.00000000000E+00 0. -1.
</event>
<event>
 5    1  0.3005426E+001  0.1599675E+01  0.7818608E-02  0.3353716E+00
         11   -1    0    0    0    0  0.00000000000E+00  0.00000000000E+00  0.39999999674E+01  0.40000000000E+01  0.51100000000E-03 0. -1.
    9000002   -1    0    0    0    0 -0.00000000000E+00 -0.00000000000E+00  0.00000000000E+00  0.93800000000E+00  0.93800000000E+00 0. -1.
         11    1    1    2    0    0 -0.12106273902E+00  0.20032595163E+00  0.10728486443E+01  0.10980852191E+01  0.51100000000E-03 0. -1.
    9000002    1    1    2    0    0  0.39759801256E+00 -0.66744178563E+00  0.44122265094E+00  0.12954088716E+01  0.93800000000E+00 0. -1.
         22    1    1    2    0    0 -0.27653527355E+00  0.46711583401E+00  0.24859286721E+01  0.25445059094E+01  0.00000000000E+00 0. -1.
</event>
<event>
 5    1  0.3005426E+001  0.1338448E+01  0.7818608E-02  0.3710921E+00
         11   -1    0    0    0    0  0.00000000000E+00  0.00000000000E+00  0.39999999674E+01  0.40000000000E+01  0.51100000000E-03 0.  1.
    9000002   -1    0    0    0    0 -0.00000000000E+00 -0.00000000000E+00  0.00000000000E+00  0.93800000000E+00  0.93800000000E+00 0.  1.
         11    1    1    2    0    0  0.29590184115E-01  0.83115163234E+00  0.11012141047E+01  0.13799860073E+01  0.51100000000E-03 0.  1.
    9000002    1    1    2    0    0 -0.25560585430E+00 -0.66160518930E+00  0.75895709694E+00  0.13996126801E+01  0.93800000000E+00 0.  1.
         22    1    1    2    0    0  0.22601567019E+00 -0.16954644303E+00  0.21398287657E+01  0.21584013126E+01  0.00000000000E+00 0.  1.
</event>
<event>
 5    1  0.3005426E+001  0.1599639E+01  0.7818608E-02  0.3353756E+00
         11   -1    0    0    0    0  0.00000000000E+00  0.00000000000E+00  0.39999999674E+01  0.40000000000E+01  0.51100000000E-03 0. -1.
    9000002   -1    0    0    0    0 -0.00000000000E+00 -0.00000000000E+00  0.00000000000E+00  0.93800000000E+00  0.93800000000E+00 0. -1.
         11    1    1    2    0    0  0.99951276350E-02 -0.64729627328E-01  0.53460031605E+00  0.53859779639E+00  0.51100000000E-03 0. -1.
    9000002    1    1    2    0    0 -0.66155149968E-01  0.50000793003E+00  0.17430351426E+00  0.10791710472E+01  0.93800000000E+00 0. -1.
         22    1    1    2    0    0  0.56160022333E-01 -0.43527830270E+00  0.32910961371E+01  0.33202311564E+01  0.00000000000E+00 0. -1.
</event>
<event>
 5    1  0.3005426E+001  0.1599655E+01  0.7818608E-02  0.3353738E+00
         11   -1    0    0    0    0  0.00000000000E+00  0.00000000000E+00  0.39999999674E+01  0.40000000000E+01  0.51100000000E-03 0. -1.
    9000002   -1    0    0    0    0 -0.00000000000E+00 -0.00000000000E+00  0.00000000000E+00  0.93800000000E+00  0.93800000000E+00 0. -1.
         11    1    1    2    0    0 -0.34089196039E-02  0.17807872983E+00  0.11452916352E+01  0.11590586031E+01  0.51100000000E-03 0. -1.
    9000002    1    1    2    0    0  0.28233617822E-01 -0.58329657525E+00  0.23716104530E+00  0.11300979574E+01  0.93800000000E+00 0. -1.
         22    1    1    2    0    0 -0.24824698218E-01  0.40521784542E+00  0.26175472869E+01  0.26488434395E+01  0.00000000000E+00 0. -1.
</event>
<event>
 5    1  0.3005426E+001  0.1599663E+01  0.7818608E-02  0.3353729E+00
         11   -1    0    0    0    0  0.00000000000E+00  0.00000000000E+00  0.39999999674E+01  0.40000000000E+01  0.51100000000E-03 0.  1.
    9000002   -1    0    0    0    0 -0.00000000000E+00 -0.00000000000E+00  0.00000000000E+00  0.93800000000E+00  0.93800000000E+00 0.  1.
         11    1    1    2    0    0  0.56144165470E-01 -0.69654959376E-01  0.80314338310E+00  0.80811109114E+00  0.51100000000E-03 0.  1.
    9000002    1    1    2    0    0 -0.25853404998E+00  0.32508899889E+00  0.11661627123E+00  0.10324563269E+01  0.93800000000E+00 0.  1.
         22    1    1    2    0    0  0.20238988451E+00 -0.25543403952E+00  0.30802403130E+01  0.30974325820E+01  0.00000000000E+00 0.  1.
</event>
<event>
 5    1  0.3005426E+001  0.1599673E+01  0.7818608E-02  0.3353718E+00
         11   -1    0    0    0    0  0.00000000000E+00  0.00000000000E+00  0.39999999674E+01  0.40000000000E+01  0.51100000000E-03 0.  1.
    9000002   -1    0    0    0    0 -0.00000000000E+00 -0.00000000000E+00  0.00000000000E+00  0.93800000000E+00  0.93800000000E+00 0. -1.
         11    1    1    2    0    0  0.21056627254E-01 -0.18109735189E+00  0.12311764623E+01  0.12446024967E+01  0.51100000000E-03 0.  1.
    9000002    1    1    2    0    0 -0.63181227796E-01  0.56237371962E+00  0.22188696605E+00  0.11177360573E+01  0.93800000000E+00 0. -1.
         22    1    1    2    0    0  0.42124600542E-01 -0.38127636773E+00  0.25469365391E+01  0.25756614460E+01  0.00000000000E+00 0.  1.
</event>
<event>
 5    1  0.3005426E+001  0.1599594E+01  0.7818608E-02  0.3353804E+00
         11   -1    0    0    0    0  0.00000000000E+00  0.00000000000E+00  0.39999999674E+01  0.40000000000E+01  0.51100000000E-03 0. -1.
    9000002   -1    0    0    0    0 -0.00000000000E+00 -0.00000000000E+00  0.00000000000E+00  0.93800000000E+00  0.93800000000E+00 0.  1.
         11    1    1    2    0    0  0.16835900366E-02  0.13782281727E+00  0.14218754517E+01  0.14285405226E+01  0.51100000000E-03 0. -1.
    9000002    1    1    2    0    0  0.23501346565E-01 -0.37184201905E+00  0.93387604885E-01  0.10135995487E+01  0.93800000000E+00 0.  1.
         22    1    1    2    0    0 -0.25184936602E-01  0.23401920178E+00  0.24847369107E+01  0.24958599286E+01  0.00000000000E+00 0.  1.
</event>
<event>
 5    1  0.3005426E+001  0.1590979E+01  0.7818608E-02  0.3363213E+00
         11   -1    0    0    0    0  0.00000000000E+00  0.00000000000E+00  0.39999999674E+01  0.40000000000E+01  0.51100000000E-03 0. -1.
    9000002   -1    0    0    0    0 -0.00000000000E+00 -0.00000000000E+00  0.00000000000E+00  0.93800000000E+00  0.93800000000E+00 0. -1.
         11    1    1    2    0    0  0.67001644715E-01 -0.33978565267E-01  0.51642477062E+00  0.52186067885E+00  0.51100000000E-03 0. -1.
    9000002    1    1    2    0    0  0.50126846755E-01  0.40295119047E+00  0.11860755454E+00  0.10289772178E+01  0.93800000000E+00 0. -1.
         22    1    1    2    0    0 -0.11712849147E+00 -0.36897262520E+00  0.33649676422E+01  0.33871621034E+01  0.00000000000E+00 0. -1.
</event>
<event>
 5    1  0.3005426E+001  0.1596347E+01  0.7818608E-02  0.3357338E+00
         11   -1    0    0    0    0  0.00000000000E+00  0.00000000000E+00  0.39999999674E+01  0.40000000000E+01  0.51100000000E-03 0.  1.
    9000002   -1    0    0    0    0 -0.00000000000E+00 -0.00000000000E+00  0.00000000000E+00  0.93800000000E+00  0.93800000000E+00 0.  1.
         11    1    1    2    0    0  0.84641662022E-01 -0.37632886297E-01  0.13613336529E+01  0.13644815941E+01  0.51100000000E-03 0.  1.
    9000002    1    1    2    0    0 -0.29910467968E+00 -0.74282934038E-01  0.66034706088E-01  0.98953834999E+00  0.93800000000E+00 0.  1.
         22    1    1    2    0    0  0.21446301766E+00  0.11191582033E+00  0.25726316084E+01  0.25839800559E+01  0.00000000000E+00 0.  1.
</event>
<event>
 5    1  0.3005426E+001  0.1599674E+01  0.7818608E-02  0.3353718E+00
         11   -1    0    0    0    0  0.00000000000E+00  0.00000000000E+00  0.39999999674E+01  0.40000000000E+01  0.51100000000E-03 0.  1.
    9000002   -1    0    0    0    0 -0.00000000000E+00 -0.00000000000E+00  0.00000000000E+00  0.93800000000E+00  0.93800000000E+00 0.  1.
         11    1    1    2    0    0 -0.12367737533E+00  0.51008960912E-01  0.86263312226E+00  0.87294568674E+00  0.51100000000E-03 0.  1.
    9000002    1    1    2    0    0  0.53311622705E+00 -0.22654933841E+00  0.23309640522E+00  0.11268165105E+01  0.93800000000E+00 0.  1.
         22    1    1    2    0    0 -0.40943885171E+00  0.17554037749E+00  0.29042704399E+01  0.29382378027E+01  0.00000000000E+00 0.  1.
</event>
<event>
 5    1  0.3005426E+001  0.1589643E+01  0.7818608E-02  0.3364681E+00
         11   -1    0    0    0    0  0.00000000000E+00  0.00000000000E+00  0.39999999674E+01  0.40000000000E+01  0.51100000000E-03 0. -1.
    9000002   -1    0    0    0    0 -0.00000000000E+00 -0.00000000000E+00  0.00000000000E+00  0.93800000000E+00  0.93800000000E+00 0. -1.
         11    1    1    2    0    0  0.40227937235E-01  0.36846008952E-01  0.18361270687E+00  0.19154582365E+00  0.51100000000E-03 0. -1.
    9000002    1    1    2    0    0 -0.49572000349E+00  0.26234830492E+00  0.22736158035E+00  0.11162894979E+01  0.93800000000E+00 0. -1.
         22    1    1    2    0    0  0.45549206625E+00 -0.29919431387E+00  0.35890256801E+01  0.36301646784E+01  0.00000000000E+00 0. -1.
</event>
<event>
 5    1  0.3005426E+001  0.1565028E+01  0.7818608E-02  0.3392217E+00
         11   -1    0    0    0    0  0.00000000000E+00  0.00000000000E+00  0.39999999674E+01  0.40000000000E+01  0.51100000000E-03 0. -1.
    9000002   -1    0    0    0    0 -0.00000000000E+00 -0.00000000000E+00  0.00000000000E+00  0.93800000000E+00  0.93800000000E+00 0.  1.
         11    1    1    2    0    0 -0.57197282078E-01 -0.79791999396E-01  0.19670936555E+00  0.21984796533E+00  0.51100000000E-03 0. -1.
    9000002    1    1    2    0    0 -0.27486523254E+00  0.17897278801E+00  0.10003472146E+00  0.99871572552E+00  0.93800000000E+00 0.  1.
         22    1    1    2    0    0  0.33206251461E+00 -0.99180788613E-01  0.37032558804E+01  0.37194363092E+01  0.00000000000E+00 0. -1.
</event>
<event>
 5    1  0.3005426E+001  0.1597596E+01  0.7818608E-02  0.3355977E+00
         11   -1    0    0    0    0  0.00000000000E+00  0.00000000000E+00  0.39999999674E+01  0.40000000000E+01  0.51100000000E-03 0. -1.
    9000002   -1    0    0    0    0 -0.00000000000E+00 -0.00000000000E+00  0.00000000000E+00  0.93800000000E+00  0.93800000000E+00 0.  1.
         11    1    1    2    0    0 -0.55114788478E-01 -0.46257020678E-01  0.79858210109E+00  0.80181730162E+00  0.51100000000E-03 0. -1.
    9000002    1    1    2    0    0  0.35062678960E+00  0.25382658695E-01  0.84557021643E-01  0.10052747460E+01  0.93800000000E+00 0.  1.
         22    1    1    2    0    0 -0.29551200112E+00  0.20874361983E-01  0.31168608446E+01  0.31309079524E+01  0.00000000000E+00 0. -1.
</event>
<event>
 5    1  0.3005426E+001  0.1598199E+01  0.7818608E-02  0.3355321E+00
         11   -1    0    0    0    0  0.00000000000E+00  0.00000000000E+00  0.39999999674E+01  0.40000000000E+01  0.51100000000E-03 0. -1.
    9000002   -1    0    0    0    0 -0.00000000000E+00 -0.00000000000E+00  0.00000000000E+00  0.93800000000E+00  0.93800000000E+00 0.  1.
         11    1    1    2    0    0  0.54714796669E-01 -0.95906678474E-02  0.78237825549E+00  0.78434793661E+00  0.51100000000E-03 0. -1.
    9000002    1    1    2    0    0 -0.32535425801E+00 -0.13000171721E+00  0.83503771796E-01  0.10047749597E+01  0.93800000000E+00 0.  1.
         22    1    1    2    0    0  0.27063946134E+00  0.13959238506E+00  0.31341179401E+01  0.31488771037E+01  0.00000000000E+00 0. -1.
</event>
<event>
 5    1  0.3005426E+001  0.1599608E+01  0.7818608E-02  0.3353788E+00
         11   -1    0    0    0    0  0.00000000000E+00  0.00000000000E+00  0.39999999674E+01  0.40000000000E+01  0.51100000000E-03 0. -1.
    9000002   -1    0    0    0    0 -0.00000000000E+00 -0.00000000000E+00  0.00000000000E+00  0.93800000000E+00  0.93800000000E+00 0.  1.
         11    1    1    2    0    0  0.10719076964E+00  0.12435493248E-01  0.12602507805E+01  0.12648623614E+01  0.51100000000E-03 0. -1.
    9000002    1    1    2    0    0 -0.36165766340E+00 -0.38967541935E-01  0.88911656800E-01  0.10099821867E+01  0.93800000000E+00 0.  1.
         22    1    1    2    0    0  0.25446689375E+00  0.26532048687E-01  0.26508375301E+01  0.26631554518E+01  0.00000000000E+00 0. -1.
</event>
<event>
 5    1  0.3005426E+001  0.1599645E+01  0.7818608E-02  0.3353748E+00
         11   -1    0    0    0    0  0.00000000000E+00  0.00000000000E+00  0.39999999674E+01  0.40000000000E+01  0.51100000000E-03 0. -1.
    9000002   -1    0    0    0    0 -0.00000000000E+00 -0.00000000000E+00  0.00000000000E+00  0.93800000000E+00  0.93800000000E+00 0. -1.
         11    1    1    2    0    0 -0.10324551530E+00 -0.57107139151E-01  0.13668917861E+01  0.13719745908E+01  0.51100000000E-03 0. -1.
    9000002    1    1    2    0    0  0.31240374817E+00  0.17153385142E+00  0.85254422425E-01  0.10070413500E+01  0.93800000000E+00 0. -1.
         22    1    1    2    0    0 -0.20915823287E+00 -0.11442671227E+00  0.25478537589E+01  0.25589840592E+01  0.00000000000E+00 0.  1.
</event>
<event>
 5    1  0.3005426E+001  0.1599655E+01  0.7818608E-02  0.3353738E+00
         11   -1    0    0    0    0  0.00000000000E+00  0.00000000000E+00  0.39999999674E+01  0.40000000000E+01  0.51100000000E-03 0.  1.
    9000002   -1    0    0    0    0 -0.00000000000E+00 -0.00000000000E+00  0.00000000000E+00  0.93800000000E+00  0.93800000000E+00 0.  1.
         11    1    1    2    0    0 -0.46414225182E-01  0.97155002886E-01  0.96065594762E+00  0.96667134317E+00  0.51100000000E-03 0.  1.
    9000002    1    1    2    0    0  0.18346802212E+00 -0.41018667051E+00  0.13714254189E+00  0.10490784988E+01  0.93800000000E+00 0.  1.
         22    1    1    2    0    0 -0.13705379694E+00  0.31303166762E+00  0.29022014779E+01  0.29222501581E+01  0.00000000000E+00 0.  1.
</event>
<event>
 5    1  0.3005426E+001  0.1596650E+01  0.7818608E-02  0.3357007E+00
         11   -1    0    0    0    0  0.00000000000E+00  0.00000000000E+00  0.39999999674E+01  0.40000000000E+01  0.51100000000E-03 0. -1.
    9000002   -1    0    0    0    0 -0.00000000000E+00 -0.00000000000E+00  0.00000000000E+00  0.93800000000E+00  0.93800000000E+00 0. -1.
         11    1    1    2    0    0  0.53551839609E-02  0.87515793811E-02  0.89061045246E-01  0.89651542308E-01  0.51100000000E-03 0. -1.
    9000002    1    1    2    0    0  0.76659275385E-01  0.42472341020E+00  0.12875632075E+00  0.10405233346E+01  0.93800000000E+00 0. -1.
         22    1    1    2    0    0 -0.82014459345E-01 -0.43347498958E+00  0.37821826014E+01  0.38078251231E+01  0.00000000000E+00 0. -1.
</event>
<event>
 5    1  0.3005426E+001  0.1575663E+01  0.7818608E-02  0.3380209E+00
         11   -1    0    0    0    0  0.00000000000E+00  0.00000000000E+00  0.39999999674E+01  0.40000000000E+01  0.51100000000E-03 0.  1.
    9000002   -1    0    0    0    0 -0.00000000000E+00 -0.00000000000E+00  0.00000000000E+00  0.93800000000E+00  0.93800000000E+00 0.  1.
         11    1    1    2    0    0  0.60446334424E-01 -0.56479848516E-01  0.40207658713E+00  0.41049917865E+00  0.51100000000E-03 0.  1.
    9000002    1    1    2    0    0 -0.22366272694E+00 -0.49385998376E+00  0.22556646018E+00  0.11066376674E+01  0.93800000000E+00 0.  1.
         22    1    1    2    0    0  0.16321639252E+00  0.55033983227E+00  0.33723569200E+01  0.34208631539E+01  0.00000000000E+00 0.  1.
</event>
<event>
 5    1  0.3005426E+001  0.1599675E+01  0.7818608E-02  0.3353716E+00
         11   -1    0    0    0    0  0.00000000000E+00  0.00000000000E+00  0.39999999674E+01  0.40000000000E+01  0.51100000000E-03 0. -1.
    9000002   -1    0    0    0    0 -0.00000000000E+00 -0.00000000000E+00  0.00000000000E+00  0.93800000000E+00  0.93800000000E+00 0. -1.
         11    1    1    2    0    0  0.34771442120E-01  0.58401250806E-01  0.63064335463E+00  0.63429572057E+00  0.51100000000E-03 0. -1.
    9000002    1    1    2    0    0 -0.22045279602E+00 -0.36104100655E+00  0.12107611146E+00  0.10360759955E+01  0.93800000000E+00 0. -1.
         22    1    1    2    0    0  0.18568135390E+00  0.30263975575E+00  0.32482805013E+01  0.32676282839E+01  0.00000000000E+00 0. -1.
</event>
<event>
 5    1  0.3005426E+001  0.1599660E+01  0.7818608E-02  0.3353732E+00
         11   -1    0    0    0    0  0.00000000000E+00  0.00000000000E+00  0.39999999674E+01  0.40000000000E+01  0.51100000000E-03 0. -1.
    9000002   -1    0    0    0    0 -0.00000000000E+00 -0.00000000000E+00  0.00000000000E+00  0.93800000000E+00  0.93800000000E+00 0.  1.
         11    1    1    2    0    0 -0.27510557212E-01 -0.32075456149E-01  0.31620099643E+00  0.31901253409E+00  0.51100000000E-03 0.  1.
    9000002    1    1    2    0    0  0.35635131399E+00  0.40527234344E+00  0.20078015907E+00  0.11006310025E+01  0.93800000000E+00 0.  1.
         22    1    1    2    0    0 -0.32884075677E+00 -0.37319688729E+00  0.34830188119E+01  0.35183564634E+01  0.00000000000E+00 0. -1.
</event>
<event>
 5    1  0.3005426E+001  0.1599520E+01  0.7818608E-02  0.3353885E+00
         11   -1    0    0    0    0  0.00000000000E+00  0.00000000000E+00  0.39999999674E+01  0.40000000000E+01  0.51100000000E-03 0.  1.
    9000002   -1    0    0    0    0 -0.00000000000E+00 -0.00000000000E+00  0.00000000000E+00  0.93800000000E+00  0.93800000000E+00 0.  1.
         11    1    1    2    0    0 -0.31289217533E+00  0.12667441081E+00  0.91794043975E+00  0.97804030172E+00  0.51100000000E-03 0.  1.
    9000002    1    1    2    0    0  0.10238777066E+01 -0.43933734015E+00  0.10819367219E+01  0.18143246475E+01  0.93800000000E+00 0.  1.
         22    1    1    2    0    0 -0.71098553125E+00  0.31266292934E+00  0.20001228057E+01  0.21456350507E+01  0.00000000000E+00 0. -1.
</event>
<event>
 5    1  0.3005426E+001  0.1500035E+01  0.7818608E-02  0.3469561E+00
         11   -1    0    0    0    0  0.00000000000E+00  0.00000000000E+00  0.39999999674E+01  0.40000000000E+01  0.51100000000E-03 0.  1.
    9000002   -1    0    0    0    0 -0.00000000000E+00 -0.00000000000E+00  0.00000000000E+00  0.93800000000E+00  0.93800000000E+00 0.  1.
         11    1    1    2    0    0  0.31972726760E+00  0.13008081042E+00  0.12137675383E+01  0.12618947821E+01  0.51100000000E-03 0.  1.
    9000002    1    1    2    0    0 -0.74899353837E-01  0.19593595954E+00  0.10822764338E+00  0.96724249092E+00  0.93800000000E+00 0.  1.
         22    1    1    2    0    0 -0.24482791376E+00 -0.32601676996E+00  0.26780047856E+01  0.27088627270E+01  0.00000000000E+00 0.  1.
</event>
<event>
 5    1  0.3005426E+001  0.1599582E+01  0.7818608E-02  0.3353817E+00
         11   -1    0    0    0    0  0.00000000000E+00  0.00000000000E+00  0.39999999674E+01  0.40000000000E+01  0.51100000000E-03 0.  1.
    9000002   -1    0    0    0    0 -0.00000000000E+00 -0.00000000000E+00  0.00000000000E+00  0.93800000000E+00  0.93800000000E+00 0.  1.
         11    1    1    2    0    0  0.71814449453E-01 -0.69157675611E-01  0.11432292724E+01  0.11475685294E+01  0.51100000000E-03 0.  1.
    9000002    1    1    2    0    0 -0.23215550453E+00  0.27058382376E+00  0.85368279077E-01  0.10070965828E+01  0.93800000000E+00 0.  1.
         22    1    1    2    0    0  0.16034105508E+00 -0.20142614815E+00  0.27714024159E+01  0.27833348878E+01  0.00000000000E+00 0.  1.
</event>
<event>
 5    1  0.3005426E+001  0.1477973E+01  0.7818608E-02  0.3497480E+00
         11   -1    0    0    0    0  0.00000000000E+00  0.00000000000E+00  0.39999999674E+01  0.40000000000E+01  0.51100000000E-03 0.  1.
    9000002   -1    0    0    0    0 -0.00000000000E+00 -0.00000000000E+00  0.00000000000E+00  0.93800000000E+00  0.93800000000E+00 0.  1.
         11    1    1    2    0    0  0.30204313730E+00  0.13276840527E+00  0.77576412202E+00  0.84301111520E+00  0.51100000000E-03 0.  1.
    9000002    1    1    2    0    0  0.67683309629E-01 -0.48201574886E-01  0.99044939926E-01  0.94686763719E+00  0.93800000000E+00 0.  1.
         22    1    1    2    0    0 -0.36972644693E+00 -0.84566830387E-01  0.31251909054E+01  0.31481212476E+01  0.00000000000E+00 0.  1.
</event>
<event>
 5    1  0.3005426E+001  0.1599671E+01  0.7818608E-02  0.3353721E+00
         11   -1    0    0    0    0  0.00000000000E+00  0.00000000000E+00  0.39999999674E+01  0.40000000000E+01  0.51100000000E-03 0. -1.
    9000002   -1    0    0    0    0 -0.00000000000E+00 -0.00000000000E+00  0.00000000000E+00  0.93800000000E+00  0.93800000000E+00 0.  1.
         11    1    1    2    0    0  0.61257575459E-02  0.25270633546E-01  0.24298357533E+00  0.24437145665E+00  0.51100000000E-03 0. -1.
    9000002    1    1    2    0    0 -0.76353242725E-01 -0.40030842802E+00  0.11213663060E+00  0.10288319975E+01  0.93800000000E+00 0.  1.
         22    1    1    2    0    0  0.70227485179E-01  0.37503779447E+00  0.36448797614E+01  0.36647965458E+01  0.00000000000E+00 0. -1.
</event>
<event>
 5    1  0.3005426E+001  0.1599518E+01  0.7818608E-02  0.3353887E+00
         11   -1    0    0    0    0  0.00000000000E+00  0.00000000000E+00  0.39999999674E+01  0.40000000000E+01  0.51100000000E-03 0.  1.
    9000002   -1    0    0    0    0 -0.00000000000E+00 -0.00000000000E+00  0.00000000000E+00  0.93800000000E+00  0.93800000000E+00 0. -1.
         11    1    1    2    0    0  0.16453253972E+00  0.29086790336E-01  0.12068356215E+01  0.12183470262E+01  0.51100000000E-03 0.  1.
    9000002    1    1    2    0    0 -0.48243995878E+00 -0.11312011057E+00  0.16810652277E+00  0.10740802001E+01  0.93800000000E+00 0. -1.
         22    1    1    2    0    0  0.31790741905E+00  0.84033320234E-01  0.26250578231E+01  0.26455727737E+01  0.00000000000E+00 0. -1.
</event>
<event>
 5    1  0.3005426E+001  0.1582674E+01  0.7818608E-02  0.3372386E+00
         11   -1    0    0    0    0  0.00000000000E+00  0.00000000000E+00  0.39999999674E+01  0.40000000000E+01  0.51100000000E-03 0. -1.
    9000002   -1    0    0    0    0 -0.00000000000E+00 -0.00000000000E+00  0.00000000000E+00  0.93800000000E+00  0.93800000000E+00 0.  1.
         11    1    1    2    0    0 -0.32313739150E-01  0.12559515105E+00  0.13843577156E+01  0.13904189532E+01  0.51100000000E-03 0. -1.
    9000002    1    1    2    0    0  0.33823113493E+00 -0.10143918749E-01  0.90401379163E-01  0.10012590120E+01  0.93800000000E+00 0.  1.
         22    1    1    2    0    0 -0.30591739578E+00 -0.11545123230E+00  0.25252408726E+01  0.25463220348E+01  0.00000000000E+00 0. -1.
</event>
<event>
 5    1  0.3005426E+001  0.1596737E+01  0.7818608E-02  0.3356913E+00
         11   -1    0    0    0    0  0.00000000000E+00  0.00000000000E+00  0.39999999674E+01  0.40000000000E+01  0.51100000000E-03 0. -1.
    9000002   -1    0    0    0    0 -0.00000000000E+00 -0.00000000000E+00  0.00000000000E+00  0.93800000000E+00  0.93800000000E+00 0.  1.
         11    1    1    2    0    0  0.72641676277E-01 -0.40327297527E-04  0.35395311007E+00  0.36133070725E+00  0.51100000000E-03 0. -1.
    9000002    1    1    2    0    0 -0.44841653731E+00  0.23699333623E+00  0.17898226885E+00  0.10812593976E+01  0.93800000000E+00 0.  1.
         22    1    1    2    0    0  0.37577486103E+00 -0.23695300893E+00  0.34670645884E+01  0.34954098951E+01  0.00000000000E+00 0. -1.
</event>
<event>
 5    1  0.3005426E+001  0.1521626E+01  0.7818608E-02  0.3443083E+00
         11   -1    0    0    0    0  0.00000000000E+00  0.00000000000E+00  0.39999999674E+01  0.40000000000E+01  0.51100000000E-03 0.  1.
    9000002   -1    0    0    0    0 -0.00000000000E+00 -0.00000000000E+00  0.00000000000E+00  0.93800000000E+00  0.93800000000E+00 0. -1.
         11    1    1    2    0    0 -0.21989788209E+00  0.19280172673E+00  0.10701856197E+01  0.11094255749E+01  0.51100000000E-03 0.  1.
    9000002    1    1    2    0    0  0.82774941159E-01  0.12289526267E+00  0.74455108174E-01  0.95254527431E+00  0.93800000000E+00 0. -1.
         22    1    1    2    0    0  0.13712294093E+00 -0.31569698940E+00  0.28553592395E+01  0.28760291508E+01  0.00000000000E+00 0.  1.
</event>
<event>
 5    1  0.5869329E+001  0.1582426E+01  0.7818608E-02  0.3372661E+00
         11   -1    0    0    0    0  0.00000000000E+00  0.00000000000E+00  0.39999999674E+01  0.40000000000E+01  0.51100000000E-03 0.  1.
    9000002   -1    0    0    0    0 -0.00000000000E+00 -0.00000000000E+00  0.00000000000E+00  0.93800000000E+00  0.93800000000E+00 0.  1.
         11    1    1    2    0    0  0.13654198434E-01 -0.10422658349E+00  0.14317786582E+01  0.14356322667E+01  0.51100000000E-03 0.  1.
    9000002    1    1    2    0    0  0.90095480508E-01 -0.11197236777E+00  0.26455695537E-01  0.94931496911E+00  0.93800000000E+00 0.  1.
         22    1    1    2    0    0 -0.10374967894E+00  0.21619895126E+00  0.25417656136E+01  0.25530527642E+01  0.00000000000E+00 0.  1.
</event>
<event>
 5    1  0.3005426E+001  0.1599640E+01  0.7818608E-02  0.3353754E+00
         11   -1    0    0    0    0  0.00000000000E+00  0.00000000000E+00  0.39999999674E+01  0.40000000000E+01  0.51100000000E-03 0.  1.
    9000002   -1    0    0    0    0 -0.00000000000E+00 -0.00000000000E+00  0.00000000000E+00  0.93800000000E+00  0.93800000000E+00 0. -1.
         11    1    1    2    0    0  0.88598394273E-01 -0.12002292529E-01  0.77855468196E+00  0.78367173256E+00  0.51100000000E-03 0.  1.
    9000002    1    1    2    0    0 -0.41897068342E+00  0.41009088957E-01  0.11990073655E+00  0.10351030700E+01  0.93800000000E+00 0. -1.
         22    1    1    2    0    0  0.33037228915E+00 -0.29006796428E-01  0.31015445489E+01  0.31192251974E+01  0.00000000000E+00 0.  1.
</event>
<event>
 5    1  0.3005426E+001  0.1457352E+01  0.7818608E-02  0.3524404E+00
         11   -1    0    0    0    0  0.00000000000E+00  0.00000000000E+00  0.39999999674E+01  0.40000000000E+01  0.51100000000E-03 0.  1.
    9000002   -1    0    0    0    0 -0.00000000000E+00 -0.00000000000E+00  0.00000000000E+00  0.93800000000E+00  0.93800000000E+00 0. -1.
         11    1    1    2    0    0 -0.30469483566E+00 -0.30347760605E+00  0.11686265441E+01  0.12452412862E+01  0.51100000000E-03 0.  1.
    9000002    1    1    2    0    0  0.46548870363E-01  0.70460100938E-02  0.11281810808E+00  0.94593253940E+00  0.93800000000E+00 0. -1.
         22    1    1    2    0    0  0.25814596529E+00  0.29643159596E+00  0.27185553152E+01  0.27468261744E+01  0.00000000000E+00 0. -1.
</event>
<event>
 5    1  0.3005426E+001  0.1535193E+01  0.7818608E-02  0.3426853E+00
         11   -1    0    0    0    0  0.00000000000E+00  0.00000000000E+00  0.39999999674E+01  0.40000000000E+01  0.51100000000E-03 0.  1.
    9000002   -1    0    0    0    0 -0.00000000000E+00 -0.00000000000E+00  0.00000000000E+00  0.93800000000E+00  0.93800000000E+00 0.  1.
         11    1    1    2    0    0 -0.99727364813E-01 -0.12828054568E+00  0.80253179624E+00  0.81881560243E+00  0.51100000000E-03 0.  1.
    9000002    1    1    2    0    0  0.10304122766E+00 -0.51405194703E+00  0.25098304641E+00  0.11034959848E+01  0.93800000000E+00 0.  1.
         22    1    1    2    0    0 -0.33138628519E-02  0.64233249271E+00  0.29464851247E+01  0.30156884128E+01  0.00000000000E+00 0.  1.
</event>
<event>
 5    1  0.3005426E+001  0.1596182E+01  0.7818608E-02  0.3357518E+00
         11   -1    0    0    0    0  0.00000000000E+00  0.00000000000E+00  0.39999999674E+01  0.40000000000E+01  0.51100000000E-03 0. -1.
    9000002   -1    0    0    0    0 -0.00000000000E+00 -0.00000000000E+00  0.00000000000E+00  0.93800000000E+00  0.93800000000E+00 0.  1.
         11    1    1    2    0    0  0.86221025527E-02 -0.64582357664E-01  0.46688364292E+00  0.47140833544E+00  0.51100000000E-03 0. -1.
    9000002    1    1    2    0    0 -0.41368639016E+00  0.36318644741E+00  0.21263809220E+00  0.11081966356E+01  0.93800000000E+00 0.  1.
         22    1    1    2    0    0  0.40506428761E+00 -0.29860408975E+00  0.33204782322E+01  0.33583950289E+01  0.00000000000E+00 0. -1.
</event>
<event>
 5    1  0.3005426E+001  0.1597489E+01  0.7818608E-02  0.3356093E+00
         11   -1    0    0    0    0  0.00000000000E+00  0.00000000000E+00  0.39999999674E+01  0.40000000000E+01  0.51100000000E-03 0. -1.
    9000002   -1    0    0    0    0 -0.00000000000E+00 -0.00000000000E+00  0.00000000000E+00  0.93800000000E+00  0.93800000000E+00 0. -1.
         11    1    1    2    0    0 -0.75817963391E-01 -0.22448276622E+00  0.11087581477E+01  0.11337926473E+01  0.51100000000E-03 0. -1.
    9000002    1    1    2    0    0  0.40085309978E+00  0.73379553382E+00  0.52464537267E+00  0.13617032937E+01  0.93800000000E+00 0. -1.
         22    1    1    2    0    0 -0.32503513639E+00 -0.50931276760E+00  0.23665964470E+01  0.24425040589E+01  0.00000000000E+00 0. -1.
</event>
<event>
 5    1  0.3005426E+001  0.1598764E+01  0.7818608E-02  0.3354706E+00
         11   -1    0    0    0    0  0.00000000000E+00  0.00000000000E+00  0.39999999674E+01  0.40000000000E+01  0.51100000000E-03 0. -1.
    9000002   -1    0    0    0    0 -0.00000000000E+00 -0.00000000000E+00  0.00000000000E+00  0.93800000000E+00  0.93800000000E+00 0. -1.
         11    1    1    2    0    0 -0.22827264735E-01  0.14397214066E+00  0.66926480658E+00  0.68495598672E+00  0.51100000000E-03 0. -1.
    9000002    1    1    2    0    0  0.64870908420E-01 -0.65046546155E+00  0.30276737852E+00  0.11827195935E+01  0.93800000000E+00 0. -1.
         22    1    1    2    0    0 -0.42043643684E-01  0.50649332089E+00  0.30279677823E+01  0.30703244197E+01  0.00000000000E+00 0. -1.
</event>
<event>
 5    1  0.3005426E+001  0.1564741E+01  0.7818608E-02  0.3392544E+00
         11   -1    0    0    0    0  0.00000000000E+00  0.00000000000E+00  0.39999999674E+01  0.40000000000E+01  0.51100000000E-03 0.  1.
    9000002   -1    0    0    0    0 -0.00000000000E+00 -0.00000000000E+00  0.00000000000E+00  0.93800000000E+00  0.93800000000E+00 0.  1.
         11    1    1    2    0    0 -0.10229702224E+00 -0.13542620959E+00  0.12534568000E+01  0.12648949165E+01  0.51100000000E-03 0.  1.
    9000002    1    1    2    0    0  0.74873482488E-01 -0.18482436720E+00  0.52972924353E-01  0.96042501831E+00  0.93800000000E+00 0.  1.
         22    1    1    2    0    0  0.27423539749E-01  0.32025057679E+00  0.26935702430E+01  0.27126800652E+01  0.00000000000E+00 0.  1.
</event>
<event>
 5    1  0.3005426E+001  0.1597027E+01  0.7818608E-02  0.3356597E+00
         11   -1    0    0    0    0  0.00000000000E+00  0.00000000000E+00  0.39999999674E+01  0.40000000000E+01  0.51100000000E-03 0.  1.
    9000002   -1    0    0    0    0 -0.00000000000E+00 -0.00000000000E+00  0.00000000000E+00  0.93800000000E+00  0.93800000000E+00 0. -1.
         11    1    1    2    0    0  0.11715409556E-01 -0.80229478667E-02  0.42219719137E-01  0.44546428796E-01  0.51100000000E-03 0.  1.
    9000002    1    1    2    0    0 -0.36266978017E+00 -0.22207393711E+00  0.12464405594E+00  0.10374132945E+01  0.93800000000E+00 0. -1.
         22    1    1    2    0    0  0.35095437062E+00  0.23009688497E+00  0.38331361923E+01  0.38560402767E+01  0.00000000000E+00 0.  1.
</event>
<event>
 5    1  0.3005426E+001  0.1452671E+01  0.7818608E-02  0.3530631E+00
         11   -1    0    0    0    0  0.00000000000E+00  0.00000000000E+00  0.39999999674E+01  0.40000000000E+01  0.51100000000E-03 0.  1.
    9000002   -1    0    0    0    0 -0.00000000000E+00 -0.00000000000E+00  0.00000000000E+00  0.93800000000E+00  0.93800000000E+00 0.  1.
         11    1    1    2    0    0 -0.28774216921E+00  0.17051187705E+00  0.10821477525E+01  0.11326578810E+01  0.51100000000E-03 0.  1.
    9000002    1    1    2    0    0 -0.58519395525E-01  0.47144322306E+00  0.30820509760E+00  0.10956813471E+01  0.93800000000E+00 0.  1.
         22    1    1    2    0    0  0.34626156474E+00 -0.64195510011E+00  0.26096471173E+01  0.27096607718E+01  0.00000000000E+00 0.  1.
</event>
<event>
 5    1  0.3005426E+001  0.1580641E+01  0.7818608E-02  0.3374647E+00
         11   -1    0    0    0    0  0.00000000000E+00  0.00000000000E+00  0.39999999674E+01  0.40000000000E+01  0.51100000000E-03 0.  1.
    9000002   -1    0    0    0    0 -0.00000000000E+00 -0.00000000000E+00  0.00000000000E+00  0.93800000000E+00  0.93800000000E+00 0.  1.
         11    1    1    2    0    0 -0.25474556434E-02  0.10329946198E+00  0.98098739860E+00  0.98641462160E+00  0.51100000000E-03 0.  1.
    9000002    1    1    2    0    0 -0.14616128444E+00  0.14005669304E+00  0.41549004524E-01  0.96049430925E+00  0.93800000000E+00 0.  1.
         22    1    1    2    0    0  0.14870874008E+00 -0.24335615502E+00  0.29774635642E+01  0.29910910691E+01  0.00000000000E+00 0.  1.
</event>
<event>
 5    1  0.3005426E+001  0.1599559E+01  0.7818608E-02  0.3353842E+00
         11   -1    0    0    0    0  0.00000000000E+00  0.00000000000E+00  0.39999999674E+01  0.40000000000E+01  0.51100000000E-03 0.  1.
    9000002   -1    0    0    0    0 -0.00000000000E+00 -0.00000000000E+00  0.00000000000E+00  0.93800000000E+00  0.93800000000E+00 0. -1.
         11    1    1    2    0    0 -0.13017982278E+00  0.12795885603E+00  0.13124750690E+01  0.13251080420E+01  0.51100000000E-03 0.  1.
    9000002    1    1    2    0    0  0.35630390688E+00 -0.34569441772E+00  0.16871965966E+00  0.10746010553E+01  0.93800000000E+00 0. -1.
         22    1    1    2    0    0 -0.22612408409E+00  0.21773556169E+00  0.25188052387E+01  0.25382909027E+01  0.00000000000E+00 0.  1.
</event>
<event>
 5    1  0.3005426E+001  0.1591475E+01  0.7818608E-02  0.3362668E+00
         11   -1    0    0    0    0  0.00000000000E+00  0.00000000000E+00  0.39999999674E+01  0.40000000000E+01  0.51100000000E-03 0. -1.
    9000002   -1    0    0    0    0 -0.00000000000E+00 -0.00000000000E+00  0.00000000000E+00  0.93800000000E+00  0.93800000000E+00 0.  1.
         11    1    1    2    0    0  0.79509219328E-01  0.61152380061E-02  0.74693539062E+00  0.75118030524E+00  0.51100000000E-03 0. -1.
    9000002    1    1    2    0    0 -0.57067819744E+00 -0.42012244189E+00  0.36909386134E+00  0.12321731817E+01  0.93800000000E+00 0.  1.
         22    1    1    2    0    0  0.49116897811E+00  0.41400720388E+00  0.28839707154E+01  0.29546465131E+01  0.00000000000E+00 0. -1.
</event>
<event>
 5    1  0.3005426E+001  0.1599666E+01  0.7818608E-02  0.3353726E+00
         11   -1    0    0    0    0  0.00000000000E+00  0.00000000000E+00  0.39999999674E+01  0.40000000000E+01  0.51100000000E-03 0.  1.
    9000002   -1    0    0    0    0 -0.00000000000E+00 -0.00000000000E+00  0.00000000000E+00  0.93800000000E+00  0.93800000000E+00 0. -1.
         11    1    1    2    0    0  0.10120612367E+00  0.80395540865E-01  0.13766040492E+01  0.13826587041E+01  0.51100000000E-03 0.  1.
    9000002    1    1    2    0    0 -0.29800996558E+00 -0.22783915117E+00  0.94636169647E-01  0.10146529569E+01  0.93800000000E+00 0. -1.
         22    1    1    2    0    0  0.19680384191E+00  0.14744361031E+00  0.25287597485E+01  0.25406883390E+01  0.00000000000E+00 0.  1.
</event>
<event>
 5    1  0.3005426E+001  0.1599647E+01  0.7818608E-02  0.3353747E+00
         11   -1    0    0    0    0  0.00000000000E+00  0.00000000000E+00  0.39999999674E+01  0.40000000000E+01  0.51100000000E-03 0.  1.
    9000002   -1    0    0    0    0 -0.00000000000E+00 -0.00000000000E+00  0.00000000000E+00  0.93800000000E+00  0.93800000000E+00 0. -1.
         11    1    1    2    0    0 -0.16110979116E-01  0.33565249415E-02  0.86560687106E-01  0.88112675484E-01  0.51100000000E-03 0.  1.
    9000002    1    1    2    0    0  0.61106994392E+00 -0.12740923658E+00  0.27333267982E+00  0.11593939554E+01  0.93800000000E+00 0. -1.
         22    1    1    2    0    0 -0.59495896480E+00  0.12405271164E+00  0.36401066004E+01  0.36904933691E+01  0.00000000000E+00 0.  1.
</event>
<event>
 5    1  0.3005426E+001  0.1599667E+01  0.7818608E-02  0.3353725E+00
         11   -1    0    0    0    0  0.00000000000E+00  0.00000000000E+00  0.39999999674E+01  0.40000000000E+01  0.51100000000E-03 0.  1.
    9000002   -1    0    0    0    0 -0.00000000000E+00 -0.00000000000E+00  0.00000000000E+00  0.93800000000E+00  0.93800000000E+00 0.  1.
         11    1    1    2    0    0 -0.14847830071E+00 -0.64192284067E-01  0.13704401426E+01  0.13799539488E+01  0.51100000000E-03 0.  1.
    9000002    1    1    2    0    0  0.40820853169E+00  0.18058720783E+00  0.13526156294E+00  0.10475617573E+01  0.93800000000E+00 0.  1.
         22    1    1    2    0    0 -0.25973023097E+00 -0.11639492376E+00  0.24942982618E+01  0.25104842939E+01  0.00000000000E+00 0.  1.
</event>
<event>
 5    1  0.3005426E+001  0.1579195E+01  0.7818608E-02  0.3376258E+00
         11   -1    0    0    0    0  0.00000000000E+00  0.00000000000E+00  0.39999999674E+01  0.40000000000E+01  0.51100000000E-03 0. -1.
    9000002   -1    0    0    0    0 -0.00000000000E+00 -0.00000000000E+00  0.00000000000E+00  0.93800000000E+00  0.93800000000E+00 0. -1.
         11    1    1    2    0    0 -0.77186702902E-01 -0.10177056007E-01  0.41313614316E+00  0.42040824621E+00  0.51100000000E-03 0. -1.
    9000002    1    1    2    0    0 -0.25374453372E+00 -0.90356808128E-01  0.64228874297E-01  0.97801839935E+00  0.93800000000E+00 0. -1.
         22    1    1    2    0    0  0.33093123662E+00  0.10053386414E+00  0.35226349499E+01  0.35395733544E+01  0.00000000000E+00 0. -1.
</event>
<event>
 5    1  0.3005426E+001  0.1533910E+01  0.7818608E-02  0.3428375E+00
         11   -1    0    0    0    0  0.00000000000E+00  0.00000000000E+00  0.39999999674E+01  0.40000000000E+01  0.51100000000E-03 0. -1.
    9000002   -1    0    0    0    0 -0.00000000000E+00 -0.00000000000E+00  0.00000000000E+00  0.93800000000E+00  0.93800000000E+00 0. -1.
         11    1    1    2    0    0  0.21946390894E+00  0.23650402960E-01  0.74998186037E+00  0.78179076542E+00  0.51100000000E-03 0. -1.
    9000002    1    1    2    0    0 -0.32502652103E-01  0.50929861673E+00  0.24107193198E+00  0.10947151135E+01  0.93800000000E+00 0. -1.
         22    1    1    2    0    0 -0.18696125684E+00 -0.53294901969E+00  0.30089461750E+01  0.30614941211E+01  0.00000000000E+00 0. -1.
</event>
<event>
 5    1  0.3005426E+001  0.1599616E+01  0.7818608E-02  0.3353781E+00
         11   -1    0    0    0    0  0.00000000000E+00  0.00000000000E+00  0.39999999674E+01  0.40000000000E+01  0.51100000000E-03 0. -1.
    9000002   -1    0    0    0    0 -0.00000000000E+00 -0.00000000000E+00  0.00000000000E+00  0.93800000000E+00  0.93800000000E+00 0. -1.
         11    1    1    2    0    0 -0.20233047670E+00 -0.75022802064E-01  0.84379096546E+00  0.87094747094E+00  0.51100000000E-03 0. -1.
    9000002    1    1    2    0    0  0.79838510439E+00  0.32622122412E+00  0.56067305026E+00  0.13921340924E+01  0.93800000000E+00 0. -1.
         22    1    1    2    0    0 -0.59605462769E+00 -0.25119842205E+00  0.25955359516E+01  0.26749184366E+01  0.00000000000E+00 0. -1.
</event>
<event>
 5    1  0.3005426E+001  0.1599620E+01  0.7818608E-02  0.3353776E+00
         11   -1    0    0    0    0  0.00000000000E+00  0.00000000000E+00  0.39999999674E+01  0.40000000000E+01  0.51100000000E-03 0.  1.
    9000002   -1    0    0    0    0 -0.00000000000E+00 -0.00000000000E+00  0.00000000000E+00  0.93800000000E+00  0.93800000000E+00 0.  1.
         11    1    1    2    0    0  0.27223934893E-01  0.44809448056E-02  0.32008953105E+00  0.32127681290E+00  0.51100000000E-03 0.  1.
    9000002    1    1    2    0    0 -0.36658349066E+00 -0.46809307988E-02  0.90336054904E-01  0.10111429026E+01  0.93800000000E+00 0.  1.
         22    1    1    2    0    0  0.33935955576E+00  0.19998599321E-03  0.35895743814E+01  0.36055802845E+01  0.00000000000E+00 0.  1.
</event>
<event>
 5    1  0.3005426E+001  0.1596020E+01  0.7818608E-02  0.3357694E+00
         11   -1    0    0    0    0  0.00000000000E+00  0.00000000000E+00  0.39999999674E+01  0.40000000000E+01  0.51100000000E-03 0.  1.
    9000002   -1    0    0    0    0 -0.00000000000E+00 -0.00000000000E+00  0.00000000000E+00  0.93800000000E+00  0.93800000000E+00 0. -1.
         11    1    1    2    0    0 -0.72935235078E-01 -0.54036719299E-01  0.48454249562E+00  0.49297181129E+00  0.51100000000E-03 0.  1.
    9000002    1    1    2    0    0  0.39198981287E+00  0.96801598126E-01  0.11307508233E+00  0.10274514767E+01  0.93800000000E+00 0. -1.
         22    1    1    2    0    0 -0.31905457779E+00 -0.42764878826E-01  0.34023823894E+01  0.34175767120E+01  0.00000000000E+00 0.  1.
</event>
<event>
 5    1  0.3005426E+001  0.1459347E+01  0.7818608E-02  0.3521763E+00
         11   -1    0    0    0    0  0.00000000000E+00  0.00000000000E+00  0.39999999674E+01  0.40000000000E+01  0.51100000000E-03 0. -1.
    9000002   -1    0    0    0    0 -0.00000000000E+00 -0.00000000000E+00  0.00000000000E+00  0.93800000000E+00  0.93800000000E+00 0.  1.
         11    1    1    2    0    0 -0.20887702336E+00 -0.88956557770E-01  0.37222321144E+00  0.43599685815E+00  0.51100000000E-03 0. -1.
    9000002    1    1    2    0    0 -0.51793695694E+00 -0.10679169649E-01  0.32648571791E+00  0.11201828690E+01  0.93800000000E+00 0.  1.
         22    1    1    2    0    0  0.72681398030E+00  0.99635727419E-01  0.33012910380E+01  0.33818202728E+01  0.00000000000E+00 0. -1.
</event>
<event>
 5    1  0.3005426E+001  0.1599669E+01  0.7818608E-02  0.3353723E+00
         11   -1    0    0    0    0  0.00000000000E+00  0.00000000000E+00  0.39999999674E+01  0.40000000000E+01  0.51100000000E-03 0. -1.
    9000002   -1    0    0    0    0 -0.00000000000E+00 -0.00000000000E+00  0.00000000000E+00  0.93800000000E+00  0.93800000000E+00 0.  1.
         11    1    1    2    0    0 -0.10248000215E+00 -0.52412193111E-01  0.98476477717E+00  0.99146917062E+00  0.51100000000E-03 0. -1.
    9000002    1    1    2    0    0  0.41217843514E+00  0.20891770226E+00  0.14530167808E+00  0.10556960956E+01  0.93800000000E+00 0.  1.
         22    1    1    2    0    0 -0.30969843298E+00 -0.15650550915E+00  0.28699335121E+01  0.28908347337E+01  0.00000000000E+00 0. -1.
</event>
<event>
 5    1  0.3005426E+001  0.1599666E+01  0.7818608E-02  0.3353726E+00
         11   -1    0    0    0    0  0.00000000000E+00  0.00000000000E+00  0.39999999674E+01  0.40000000000E+01  0.51100000000E-03 0. -1.
    9000002   -1    0    0    0    0 -0.00000000000E+00 -0.00000000000E+00  0.00000000000E+00  0.93800000000E+00  0.93800000000E+00 0.  1.
         11    1    1    2    0    0  0.60767672132E-01  0.10575256947E+00  0.10985994726E+01  0.11053494372E+01  0.51100000000E-03 0. -1.
    9000002    1    1    2    0    0 -0.21220877893E+00 -0.36112740352E+00  0.11864556651E+00  0.10341017058E+01  0.93800000000E+00 0.  1.
         22    1    1    2    0    0  0.15144110680E+00  0.25537483405E+00  0.27827549282E+01  0.27985488571E+01  0.00000000000E+00 0. -1.
</event>
<event>
 5    1  0.3005426E+001  0.1599536E+01  0.7818608E-02  0.3353868E+00
         11   -1    0    0    0    0  0.00000000000E+00  0.00000000000E+00  0.39999999674E+01  0.40000000000E+01  0.51100000000E-03 0.  1.
    9000002   -1    0    0    0    0 -0.00000000000E+00 -0.00000000000E+00  0.00000000000E+00  0.93800000000E+00  0.93800000000E+00 0.  1.
         11    1    1    2    0    0 -0.81120794791E-01  0.35423530848E-01  0.92554046382E+00  0.92976385237E+00  0.51100000000E-03 0.  1.
    9000002    1    1    2    0    0  0.30961565208E+00 -0.18892901289E+00  0.88450677567E-01  0.10095660188E+01  0.93800000000E+00 0.  1.
         22    1    1    2    0    0 -0.22849485729E+00  0.15350548204E+00  0.29860088260E+01  0.29986701288E+01  0.00000000000E+00 0.  1.
</event>
<event>
 5    1  0.3005426E+001  0.1596765E+01  0.7818608E-02  0.3356882E+00
         11   -1    0    0    0    0  0.00000000000E+00  0.00000000000E+00  0.39999999674E+01  0.40000000000E+01  0.51100000000E-03 0. -1.
    9000002   -1    0    0    0    0 -0.00000000000E+00 -0.00000000000E+00  0.00000000000E+00  0.93800000000E+00  0.93800000000E+00 0.  1.
         11    1    1    2    0    0 -0.19748626393E+00  0.34541270999E+00  0.11938408834E+01  0.12583986175E+01  0.51100000000E-03 0. -1.
    9000002    1    1    2    0    0  0.56063215715E+00 -0.77356013099E+00  0.72195222298E+00  0.15211057505E+01  0.93800000000E+00 0.  1.
         22    1    1    2    0    0 -0.36314589321E+00  0.42814742100E+00  0.20842068610E+01  0.21584956320E+01  0.00000000000E+00 0. -1.
</event>
<event>
 5    1  0.3005426E+001  0.1599661E+01  0.7818608E-02  0.3353731E+00
         11   -1    0    0    0    0  0.00000000000E+00  0.00000000000E+00  0.39999999674E+01  0.40000000000E+01  0.51100000000E-03 0.  1.
    9000002   -1    0    0    0    0 -0.00000000000E+00 -0.00000000000E+00  0.00000000000E+00  0.93800000000E+00  0.93800000000E+00 0.  1.
         11    1    1    2    0    0  0.32158171816E-01  0.67405386256E-01  0.57630360584E+00  0.58112282809E+00  0.51100000000E-03 0. -1.
    9000002    1    1    2    0    0 -0.20110607760E+00 -0.43152980008E+00  0.15457321858E+00  0.10632020047E+01  0.93800000000E+00 0.  1.
         22    1    1    2    0    0  0.16894790579E+00  0.36412441382E+00  0.32691231429E+01  0.32936751673E+01  0.00000000000E+00 0.  1.
</event>
<event>
 5    1  0.3005426E+001  0.1595119E+01  0.7818608E-02  0.3358678E+00
         11   -1    0    0    0    0  0.00000000000E+00  0.00000000000E+00  0.39999999674E+01  0.40000000000E+01  0.51100000000E-03 0.  1.
    9000002   -1    0    0    0    0 -0.00000000000E+00 -0.00000000000E+00  0.00000000000E+00  0.93800000000E+00  0.93800000000E+00 0. -1.
         11    1    1    2    0    0  0.26961355883E-01 -0.29558310283E-01  0.14421097873E+00  0.14965853108E+00  0.51100000000E-03 0.  1.
    9000002    1    1    2    0    0 -0.41196928844E+00  0.20768792015E-01  0.11879347815E+00  0.10315551017E+01  0.93800000000E+00 0. -1.
         22    1    1    2    0    0  0.38500793255E+00  0.87895182679E-02  0.37369955105E+01  0.37567863672E+01  0.00000000000E+00 0.  1.
</event>
<event>
 5    1  0.3005426E+001  0.1599676E+01  0.7818608E-02  0.3353715E+00
         11   -1    0    0    0    0  0.00000000000E+00  0.00000000000E+00  0.39999999674E+01  0.40000000000E+01  0.51100000000E-03 0. -1.
    9000002   -1    0    0    0    0 -0.00000000000E+00 -0.00000000000E+00  0.00000000000E+00  0.93800000000E+00  0.93800000000E+00 0. -1.
         11    1    1    2    0    0 -0.30787988671E-01 -0.51078303295E-01  0.61175247538E+00  0.61465294725E+00  0.51100000000E-03 0. -1.
    9000002    1    1    2    0    0  0.20110762556E+00  0.32581539410E+00  0.98673652568E-01  0.10179294857E+01  0.93800000000E+00 0. -1.
         22    1    1    2    0    0 -0.17031963689E+00 -0.27473709080E+00  0.32895738394E+01  0.33054175671E+01  0.00000000000E+00 0. -1.
</event>
<event>
 5    1  0.3005426E+001  0.1599667E+01  0.7818608E-02  0.3353725E+00
         11   -1    0    0    0    0  0.00000000000E+00  0.00000000000E+00  0.39999999674E+01  0.40000000000E+01  0.51100000000E-03 0. -1.
    9000002   -1    0    0    0    0 -0.00000000000E+00 -0.00000000000E+00  0.00000000000E+00  0.93800000000E+00  0.93800000000E+00 0.  1.
         11    1    1    2    0    0 -0.16923608601E+00 -0.12844147575E+00  0.94865829705E+00  0.97215785302E+00  0.51100000000E-03 0. -1.
    9000002    1    1    2    0    0  0.63671652461E+00  0.46779675343E+00  0.45831835172E+00  0.13092522472E+01  0.93800000000E+00 0.  1.
         22    1    1    2    0    0 -0.46748043860E+00 -0.33935527768E+00  0.25930233186E+01  0.26565898998E+01  0.00000000000E+00 0. -1.
</event>
<event>
 5    1  0.3005426E+001  0.1512831E+01  0.7818608E-02  0.3453771E+00
         11   -1    0    0    0    0  0.00000000000E+00  0.00000000000E+00  0.39999999674E+01  0.40000000000E+01  0.51100000000E-03 0.  1.
    9000002   -1    0    0    0    0 -0.00000000000E+00 -0.00000000000E+00  0.00000000000E+00  0.93800000000E+00  0.93800000000E+00 0. -1.
         11    1    1    2    0    0  0.10284750053E+00  0.12706228550E+00  0.26751865620E+00  0.31351064622E+00  0.51100000000E-03 0.  1.
    9000002    1    1    2    0    0  0.53443127343E-01  0.34568249310E+00  0.15559845252E+00  0.10131176794E+01  0.93800000000E+00 0. -1.
         22    1    1    2    0    0 -0.15629062787E+00 -0.47274477859E+00  0.35768828586E+01  0.36113716744E+01  0.00000000000E+00 0.  1.
</event>
<event>
 5    1  0.3005426E+001  0.1591619E+01  0.7818608E-02  0.3362510E+00
         11   -1    0    0    0    0  0.00000000000E+00  0.00000000000E+00  0.39999999674E+01  0.40000000000E+01  0.51100000000E-03 0.  1.
    9000002   -1    0    0    0    0 -0.00000000000E+00 -0.00000000000E+00  0.00000000000E+00  0.93800000000E+00  0.93800000000E+00 0. -1.
         11    1    1    2    0    0 -0.16706586760E-01  0.23497082194E-01  0.11647152257E+01  0.11650721184E+01  0.51100000000E-03 0.  1.
    9000002    1    1    2    0    0 -0.12803954188E+00 -0.35465396557E+00  0.10225644284E+00  0.10161072481E+01  0.93800000000E+00 0. -1.
         22    1    1    2    0    0  0.14474612864E+00  0.33115688338E+00  0.27330282988E+01  0.27568206335E+01  0.00000000000E+00 0.  1.
</event>
<event>
 5    1  0.3005426E+001  0.1480687E+01  0.7818608E-02  0.3493997E+00
         11   -1    0    0    0    0  0.00000000000E+00  0.00000000000E+00  0.39999999674E+01  0.40000000000E+01  0.51100000000E-03 0. -1.
    9000002   -1    0    0    0    0 -0.00000000000E+00 -0.00000000000E+00  0.00000000000E+00  0.93800000000E+00  0.93800000000E+00 0.  1.
         11    1    1    2    0    0 -0.42075726580E+00  0.20849193590E+00  0.13108532745E+01  0.13924231155E+01  0.51100000000E-03 0. -1.
    9000002    1    1    2    0    0  0.22372947946E+00 -0.41467639261E-01  0.13057005489E+00  0.97399537182E+00  0.93800000000E+00 0.  1.
         22    1    1    2    0    0  0.19702778634E+00 -0.16702429664E+00  0.25585766380E+01  0.25715815127E+01  0.00000000000E+00 0. -1.
</event>
<event>
 5    1  0.3005426E+001  0.1599656E+01  0.7818608E-02  0.3353737E+00
         11   -1    0    0    0    0  0.00000000000E+00  0.00000000000E+00  0.39999999674E+01  0.40000000000E+01  0.51100000000E-03 0.  1.
    9000002   -1    0    0    0    0 -0.00000000000E+00 -0.00000000000E+00  0.00000000000E+00  0.93800000000E+00  0.93800000000E+00 0.  1.
         11    1    1    2    0    0 -0.89557658474E-01  0.71551878074E-02  0.56200013275E+00  0.56913634679E+00  0.51100000000E-03 0.  1.
    9000002    1    1    2    0    0  0.57596207909E+00 -0.38419743862E-01  0.23140072947E+00  0.11254326683E+01  0.93800000000E+00 0.  1.
         22    1    1    2    0    0 -0.48640442061E+00  0.31264556054E-01  0.32065991051E+01  0.32434309849E+01  0.00000000000E+00 0.  1.
</event>
<event>
 5    1  0.3005426E+001  0.1599522E+01  0.7818608E-02  0.3353882E+00
         11   -1    0    0    0    0  0.00000000000E+00  0.00000000000E+00  0.39999999674E+01  0.40000000000E+01  0.51100000000E-03 0. -1.
    9000002   -1    0    0    0    0 -0.00000000000E+00 -0.00000000000E+00  0.00000000000E+00  0.93800000000E+00  0.93800000000E+00 0.  1.
         11    1    1    2    0    0  0.20992278593E-01  0.17201392757E-01  0.10372706884E+00  0.10722000562E+00  0.51100000000E-03 0. -1.
    9000002    1    1    2    0    0 -0.62341112536E+00 -0.44609291712E+00  0.42836767375E+00  0.12849059054E+01  0.93800000000E+00 0.  1.
         22    1    1    2    0    0  0.60241884677E+00  0.42889152437E+00  0.34679052248E+01  0.35458740889E+01  0.00000000000E+00 0. -1.
</event>
<event>
 5    1  0.3005426E+001  0.1586003E+01  0.7818608E-02  0.3368697E+00
         11   -1    0    0    0    0  0.00000000000E+00  0.00000000000E+00  0.39999999674E+01  0.40000000000E+01  0.51100000000E-03 0.  1.
    9000002   -1    0    0    0    0 -0.00000000000E+00 -0.00000000000E+00  0.00000000000E+00  0.93800000000E+00  0.93800000000E+00 0. -1.
         11    1    1    2    0    0 -0.71757709236E-01 -0.86571551407E-01  0.68285716133E+00  0.69205344176E+00  0.51100000000E-03 0.  1.
    9000002    1    1    2    0    0 -0.18326398501E+00  0.34456556618E+00  0.11399884177E+00  0.10223261972E+01  0.93800000000E+00 0. -1.
         22    1    1    2    0    0  0.25502169425E+00 -0.25799401477E+00  0.32031439643E+01  0.32236203610E+01  0.00000000000E+00 0.  1.
</event>
<event>
 5    1  0.3005426E+001  0.1599676E+01  0.7818608E-02  0.3353715E+00
         11   -1    0    0    0    0  0.00000000000E+00  0.00000000000E+00  0.39999999674E+01  0.40000000000E+01  0.51100000000E-03 0. -1.
    9000002   -1    0    0    0    0 -0.00000000000E+00 -0.00000000000E+00  0.00000000000E+00  0.93800000000E+00  0.93800000000E+00 0.  1.
         11    1    1    2    0    0  0.18325508782E-01  0.17088740519E-01  0.23680274855E+00  0.23812528671E+00  0.51100000000E-03 0.  1.
    9000002    1    1    2    0    0 -0.29929608336E+00 -0.28171888314E+00  0.11412044342E+00  0.10304422110E+01  0.93800000000E+00 0.  1.
         22    1    1    2    0    0  0.28097057458E+00  0.26463014262E+00  0.36490767754E+01  0.36694325023E+01  0.00000000000E+00 0. -1.
</event>
<event>
 5    1  0.3005426E+001  0.1599659E+01  0.7818608E-02  0.3353734E+00
         11   -1    0    0    0    0  0.00000000000E+00  0.00000000000E+00  0.39999999674E+01  0.40000000000E+01  0.51100000000E-03 0. -1.
    9000002   -1    0    0    0    0 -0.00000000000E+00 -0.00000000000E+00  0.00000000000E+00  0.93800000000E+00  0.93800000000E+00 0.  1.
         11    1    1    2    0    0  0.99694327556E-01  0.20835916305E+00  0.12733328597E+01  0.12941133384E+01  0.51100000000E-03 0. -1.
    9000002    1    1    2    0    0 -0.30200049905E+00 -0.60291611626E+00  0.32281823853E+00  0.11994864567E+01  0.93800000000E+00 0.  1.
         22    1    1    2    0    0  0.20230617150E+00  0.39455695322E+00  0.24038488691E+01  0.24444002049E+01  0.00000000000E+00 0. -1.
</event>
<event>
 5    1  0.3005426E+001  0.1599677E+01  0.7818608E-02  0.3353714E+00
         11   -1    0    0    0    0  0.00000000000E+00  0.00000000000E+00  0.39999999674E+01  0.40000000000E+01  0.51100000000E-03 0.  1.
    9000002   -1    0    0    0    0 -0.00000000000E+00 -0.00000000000E+00  0.00000000000E+00  0.93800000000E+00  0.93800000000E+00 0. -1.
         11    1    1    2    0    0  0.48041990124E-01 -0.10183846943E+00  0.78344465968E+00  0.79149535853E+00  0.51100000000E-03 0.  1.
    9000002    1    1    2    0    0 -0.23152518997E+00  0.49136303678E+00  0.20352416637E+00  0.11028633795E+01  0.93800000000E+00 0. -1.
         22    1    1    2    0    0  0.18348319984E+00 -0.38952456735E+00  0.30130311413E+01  0.30436412620E+01  0.00000000000E+00 0.  1.
</event>
<event>
 5    1  0.3005426E+001  0.1450653E+01  0.7818608E-02  0.3533330E+00
         11   -1    0    0    0    0  0.00000000000E+00  0.00000000000E+00  0.39999999674E+01  0.40000000000E+01  0.51100000000E-03 0.  1.
    9000002   -1    0    0    0    0 -0.00000000000E+00 -0.00000000000E+00  0.00000000000E+00  0.93800000000E+00  0.93800000000E+00 0. -1.
         11    1    1    2    0    0 -0.22262538483E+00  0.19439113230E+00  0.43706110934E+00  0.52761031899E+00  0.51100000000E-03 0.  1.
    9000002    1    1    2    0    0 -0.22213450830E+00 -0.14359985071E+00  0.17152590352E+00  0.98956040365E+00  0.93800000000E+00 0. -1.
         22    1    1    2    0    0  0.44475989313E+00 -0.50791281591E-01  0.33914129545E+01  0.34208292774E+01  0.00000000000E+00 0.  1.
</event>
<event>
 5    1  0.3005426E+001  0.1599670E+01  0.7818608E-02  0.3353722E+00
         11   -1    0    0    0    0  0.00000000000E+00  0.00000000000E+00  0.39999999674E+01  0.40000000000E+01  0.51100000000E-03 0.  1.
    9000002   -1    0    0    0    0 -0.00000000000E+00 -0.00000000000E+00  0.00000000000E+00  0.93800000000E+00  0.93800000000E+00 0.  1.
         11    1    1    2    0    0  0.62122547694E-01  0.63715604315E-01  0.86166686986E+00  0.86624993212E+00  0.51100000000E-03 0.  1.
    9000002    1    1    2    0    0 -0.28067135431E+00 -0.27591101726E+00  0.10440610419E+00  0.10225692804E+01  0.93800000000E+00 0.  1.
         22    1    1    2    0    0  0.21854880662E+00  0.21219541295E+00  0.30339269933E+01  0.30491807875E+01  0.00000000000E+00 0.  1.
</event>
<event>
 5    1  0.3005426E+001  0.1599668E+01  0.7818608E-02  0.3353723E+00
         11   -1    0    0    0    0  0.00000000000E+00  0.00000000000E+00  0.39999999674E+01  0.40000000000E+01  0.51100000000E-03 0. -1.
    9000002   -1    0    0    0    0 -0.00000000000E+00 -0.00000000000E+00  0.00000000000E+00  0.93800000000E+00  0.93800000000E+00 0. -1.
         11    1    1    2    0    0  0.53224356905E-01  0.27727222342E-01  0.59562015791E+00  0.59863617053E+00  0.51100000000E-03 0. -1.
    9000002    1    1    2    0    0 -0.34304561921E+00 -0.16616030306E+00  0.97777556721E-01  0.10171990925E+01  0.93800000000E+00 0. -1.
         22    1    1    2    0    0  0.28982126230E+00  0.13843308072E+00  0.33066022527E+01  0.33221647370E+01  0.00000000000E+00 0. -1.
</event>
<event>
 5    1  0.3005426E+001  0.1599677E+01  0.7818608E-02  0.3353714E+00
         11   -1    0    0    0    0  0.00000000000E+00  0.00000000000E+00  0.39999999674E+01  0.40000000000E+01  0.51100000000E-03 0. -1.
    9000002   -1    0    0    0    0 -0.00000000000E+00 -0.00000000000E+00  0.00000000000E+00  0.93800000000E+00  0.93800000000E+00 0.  1.
         11    1    1    2    0    0 -0.62690001486E-01  0.13726527526E+00  0.14526671866E+01  0.14604841691E+01  0.51100000000E-03 0. -1.
    9000002    1    1    2    0    0  0.16841082361E+00 -0.36609907735E+00  0.10957806990E+00  0.10267629197E+01  0.93800000000E+00 0.  1.
         22    1    1    2    0    0 -0.10572082212E+00  0.22883380209E+00  0.24377547109E+01  0.24507529112E+01  0.00000000000E+00 0. -1.
</event>
<event>
 5    1  0.3005426E+001  0.1599587E+01  0.7818608E-02  0.3353811E+00
         11   -1    0    0    0    0  0.00000000000E+00  0.00000000000E+00  0.39999999674E+01  0.40000000000E+01  0.51100000000E-03 0. -1.
    9000002   -1    0    0    0    0 -0.00000000000E+00 -0.00000000000E+00  0.00000000000E+00  0.93800000000E+00  0.93800000000E+00 0.  1.
         11    1    1    2    0    0 -0.10875006592E+00  0.24249870647E-01  0.11185952543E+01  0.11241308808E+01  0.51100000000E-03 0. -1.
    9000002    1    1    2    0    0  0.39252028093E+00 -0.11702786583E+00  0.11337910519E+00  0.10297895483E+01  0.93800000000E+00 0.  1.
         22    1    1    2    0    0 -0.28377021501E+00  0.92777995181E-01  0.27680256079E+01  0.27840795709E+01  0.00000000000E+00 0. -1.
</event>
<event>
 5    1  0.3005426E+001  0.1599668E+01  0.7818608E-02  0.3353724E+00
         11   -1    0    0    0    0  0.00000000000E+00  0.00000000000E+00  0.39999999674E+01  0.40000000000E+01  0.51100000000E-03 0.  1.
    9000002   -1    0    0    0    0 -0.00000000000E+00 -0.00000000000E+00  0.00000000000E+00  0.93800000000E+00  0.93800000000E+00 0. -1.
         11    1    1    2    0    0 -0.11014573112E+00 -0.52877798418E-01  0.12561006258E+01  0.12620289961E+01  0.51100000000E-03 0.  1.
    9000002    1    1    2    0    0  0.33264925070E+00  0.16057331818E+00  0.91693528636E-01  0.10122702296E+01  0.93800000000E+00 0. -1.
         22    1    1    2    0    0 -0.22250351957E+00 -0.10769551976E+00  0.26522058129E+01  0.26637007743E+01  0.00000000000E+00 0.  1.
</event>
<event>
 5    1  0.3005426E+001  0.1599674E+01  0.7818608E-02  0.3353718E+00
         11   -1    0    0    0    0  0.00000000000E+00  0.00000000000E+00  0.39999999674E+01  0.40000000000E+01  0.51100000000E-03 0.  1.
    9000002   -1    0    0    0    0 -0.00000000000E+00 -0.00000000000E+00  0.00000000000E+00  0.93800000000E+00  0.93800000000E+00 0. -1.
         11    1    1    2    0    0  0.53807899990E-01 -0.15268019463E+00  0.12323088870E+01  0.12428966112E+01  0.51100000000E-03 0.  1.
    9000002    1    1    2    0    0 -0.16122719190E+00  0.47188986890E+00  0.17019675629E+00  0.10758648575E+01  0.93800000000E+00 0. -1.
         22    1    1    2    0    0  0.10741929191E+00 -0.31920967427E+00  0.25974943241E+01  0.26192385313E+01  0.00000000000E+00 0.  1.
</event>
<event>
 5    1  0.3005426E+001  0.1599676E+01  0.7818608E-02  0.3353716E+00
         11   -1    0    0    0    0  0.00000000000E+00  0.00000000000E+00  0.39999999674E+01  0.40000000000E+01  0.51100000000E-03 0.  1.
    9000002   -1    0    0    0    0 -0.00000000000E+00 -0.00000000000E+00  0.00000000000E+00  0.93800000000E+00  0.93800000000E+00 0.  1.
         11    1    1    2    0    0  0.69764680962E-02 -0.12469706583E-01  0.12750940965E+00  0.12830851632E+00  0.51100000000E-03 0. -1.
    9000002    1    1    2    0    0 -0.21302908208E+00  0.37296916975E+00  0.12493452821E+00  0.10392016300E+01  0.93800000000E+00 0.  1.
         22    1    1    2    0    0  0.20605261398E+00 -0.36049946317E+00  0.37475560295E+01  0.37704898537E+01  0.00000000000E+00 0.  1.
</event>
<event>
 5    1  0.3005426E+001  0.1599677E+01  0.7818608E-02  0.3353715E+00
         11   -1    0    0    0    0  0.00000000000E+00  0.00000000000E+00  0.39999999674E+01  0.40000000000E+01  0.51100000000E-03 0. -1.
    9000002   -1    0    0    0    0 -0.00000000000E+00 -0.00000000000E+00  0.00000000000E+00  0.93800000000E+00  0.93800000000E+00 0. -1.
         11    1    1    2    0    0 -0.33708083437E-01  0.15094965484E+00  0.14429785469E+01  0.14512440805E+01  0.51100000000E-03 0. -1.
    9000002    1    1    2    0    0  0.91304148273E-01 -0.40420589053E+00  0.11604681872E+00  0.10320027682E+01  0.93800000000E+00 0. -1.
         22    1    1    2    0    0 -0.57596064836E-01  0.25325623569E+00  0.24409746018E+01  0.24547531513E+01  0.00000000000E+00 0. -1.
</event>
<event>
 5    1  0.3005426E+001  0.1596850E+01  0.7818608E-02  0.3356790E+00
         11   -1    0    0    0    0  0.00000000000E+00  0.00000000000E+00  0.39999999674E+01  0.40000000000E+01  0.51100000000E-03 0.  1.
    9000002   -1    0    0    0    0 -0.00000000000E+00 -0.00000000000E+00  0.00000000000E+00  0.93800000000E+00  0.93800000000E+00 0. -1.
         11    1    1    2    0    0 -0.27735590444E-01 -0.22505227088E-01  0.16085576303E+00  0.16477434826E+00  0.51100000000E-03 0.  1.
    9000002    1    1    2    0    0  0.41523948036E+00 -0.21801672693E-01  0.11924903303E+00  0.10329392387E+01  0.93800000000E+00 0. -1.
         22    1    1    2    0    0 -0.38750388991E+00  0.44306899780E-01  0.37198951713E+01  0.37402864130E+01  0.00000000000E+00 0.  1.
</event>
<event>
 5    1  0.3005426E+001  0.1599676E+01  0.7818608E-02  0.3353715E+00
         11   -1    0    0    0    0  0.00000000000E+00  0.00000000000E+00  0.39999999674E+01  0.40000000000E+01  0.51100000000E-03 0. -1.
    9000002   -1    0    0    0    0 -0.00000000000E+00 -0.00000000000E+00  0.00000000000E+00  0.93800000000E+00  0.93800000000E+00 0. -1.
         11    1    1    2    0    0 -0.18222894960E-01 -0.21705300491E-01  0.29055058585E+00  0.29192995398E+00  0.51100000000E-03 0. -1.
    9000002    1    1    2    0    0  0.24191544625E+00  0.28575681026E+00  0.94256383888E-01  0.10143511737E+01  0.93800000000E+00 0. -1.
         22    1    1    2    0    0 -0.22369255129E+00 -0.26405150977E+00  0.36151929976E+01  0.36317188723E+01  0.00000000000E+00 0. -1.
</event>
<event>
 5    1  0.3005426E+001  0.1599618E+01  0.7818608E-02  0.3353778E+00
         11   -1    0    0    0    0  0.00000000000E+00  0.00000000000E+00  0.39999999674E+01  0.40000000000E+01  0.51100000000E-03 0.  1.
    9000002   -1    0    0    0    0 -0.00000000000E+00 -0.00000000000E+00  0.00000000000E+00  0.93800000000E+00  0.93800000000E+00 0. -1.
         11    1    1    2    0    0 -0.21832246863E-02 -0.29867195820E-01  0.35750551654E+00  0.35875795648E+00  0.51100000000E-03 0.  1.
    9000002    1    1    2    0    0  0.13789738131E-01  0.38313855309E+00  0.98986682314E-01  0.10181491399E+01  0.93800000000E+00 0. -1.
         22    1    1    2    0    0 -0.11606513445E-01 -0.35327135727E+00  0.35435077685E+01  0.35610929037E+01  0.00000000000E+00 0.  1.
</event>
<event>
 5    1  0.3005426E+001  0.1598814E+01  0.7818608E-02  0.3354651E+00
         11   -1    0    0    0    0  0.00000000000E+00  0.00000000000E+00  0.39999999674E+01  0.40000000000E+01  0.51100000000E-03 0.  1.
    9000002   -1    0    0    0    0 -0.00000000000E+00 -0.00000000000E+00  0.00000000000E+00  0.93800000000E+00  0.93800000000E+00 0. -1.
         11    1    1    2    0    0  0.10542006713E+00 -0.15129141662E+00  0.13679797617E+01  0.13803519018E+01  0.51100000000E-03 0.  1.
    9000002    1    1    2    0    0 -0.36473979023E+00  0.47123337941E+00  0.24838796669E+00  0.11386995189E+01  0.93800000000E+00 0. -1.
         22    1    1    2    0    0  0.25931972310E+00 -0.31994196279E+00  0.23836322389E+01  0.24189485792E+01  0.00000000000E+00 0.  1.
</event>
<event>
 5    1  0.3005426E+001  0.1599459E+01  0.7818608E-02  0.3353951E+00
         11   -1    0    0    0    0  0.00000000000E+00  0.00000000000E+00  0.39999999674E+01  0.40000000000E+01  0.51100000000E-03 0.  1.
    9000002   -1    0    0    0    0 -0.00000000000E+00 -0.00000000000E+00  0.00000000000E+00  0.93800000000E+00  0.93800000000E+00 0. -1.
         11    1    1    2    0    0  0.76586330191E-01  0.19150292548E-01  0.74938041659E+00  0.75352735157E+00  0.51100000000E-03 0.  1.
    9000002    1    1    2    0    0 -0.39410896401E+00 -0.26807767976E-01  0.10536663524E+00  0.10232236607E+01  0.93800000000E+00 0. -1.
         22    1    1    2    0    0  0.31752263382E+00  0.76574754283E-02  0.31452529155E+01  0.31612489878E+01  0.00000000000E+00 0.  1.
</event>
<event>
 5    1  0.3005426E+001  0.1599413E+01  0.7818608E-02  0.3354001E+00
         11   -1    0    0    0    0  0.00000000000E+00  0.00000000000E+00  0.39999999674E+01  0.40000000000E+01  0.51100000000E-03 0. -1.
    9000002   -1    0    0    0    0 -0.00000000000E+00 -0.00000000000E+00  0.00000000000E+00  0.93800000000E+00  0.93800000000E+00 0. -1.
         11    1    1    2    0    0  0.13142267537E-01 -0.19755577181E-01  0.16380390170E+00  0.16551429352E+00  0.51100000000E-03 0. -1.
    9000002    1    1    2    0    0 -0.37471450703E+00  0.29072804078E+00  0.15356983030E+00  0.10622435918E+01  0.93800000000E+00 0. -1.
         22    1    1    2    0    0  0.36157223950E+00 -0.27097246360E+00  0.36826262354E+01  0.37102421147E+01  0.00000000000E+00 0. -1.
</event>
<event>
 5    1  0.3005426E+001  0.1596665E+01  0.7818608E-02  0.3356991E+00
         11   -1    0    0    0    0  0.00000000000E+00  0.00000000000E+00  0.39999999674E+01  0.40000000000E+01  0.51100000000E-03 0.  1.
    9000002   -1    0    0    0    0 -0.00000000000E+00 -0.00000000000E+00  0.00000000000E+00  0.93800000000E+00  0.93800000000E+00 0. -1.
         11    1    1    2    0    0 -0.20988093577E-01 -0.61161630833E-01  0.92724841722E+00  0.92950047526E+00  0.51100000000E-03 0.  1.
    9000002    1    1    2    0    0  0.28728396749E+00  0.12809273542E+00  0.68475523628E-01  0.99170193313E+00  0.93800000000E+00 0. -1.
         22    1    1    2    0    0 -0.26629587391E+00 -0.66931104585E-01  0.30042760265E+01  0.30167975916E+01  0.00000000000E+00 0.  1.
</event>
<event>
 5    1  0.3005426E+001  0.1599676E+01  0.7818608E-02  0.3353716E+00
         11   -1    0    0    0    0  0.00000000000E+00  0.00000000000E+00  0.39999999674E+01  0.40000000000E+01  0.51100000000E-03 0. -1.
    9000002   -1    0    0    0    0 -0.00000000000E+00 -0.00000000000E+00  0.00000000000E+00  0.93800000000E+00  0.93800000000E+00 0. -1.
         11    1    1    2    0    0 -0.31059110575E+00 -0.18070209854E+00  0.12594503271E+01  0.13097081625E+01  0.51100000000E-03 0. -1.
    9000002    1    1    2    0    0  0.81679209026E+00  0.47638612676E+00  0.69886483036E+00  0.15041107378E+01  0.93800000000E+00 0. -1.
         22    1    1    2    0    0 -0.50620098452E+00 -0.29568402823E+00  0.20416848099E+01  0.21241810997E+01  0.00000000000E+00 0. -1.
</event>
<event>
 5    1  0.3005426E+001  0.1599040E+01  0.7818608E-02  0.3354406E+00
         11   -1    0    0    0    0  0.00000000000E+00  0.00000000000E+00  0.39999999674E+01  0.40000000000E+01  0.51100000000E-03 0.  1.
    9000002   -1    0    0    0    0 -0.00000000000E+00 -0.00000000000E+00  0.00000000000E+00  0.93800000000E+00  0.93800000000E+00 0.  1.
         11    1    1    2    0    0  0.10784342481E+00  0.21235728107E+00  0.13079064579E+01  0.13294154290E+01  0.51100000000E-03 0.  1.
    9000002    1    1    2    0    0 -0.34311203754E+00 -0.65351013439E+00  0.39430031753E+00  0.12570274883E+01  0.93800000000E+00 0.  1.
         22    1    1    2    0    0  0.23526861274E+00  0.44115285333E+00  0.22977931920E+01  0.23515570827E+01  0.00000000000E+00 0.  1.
</event>
<event>
 5    1  0.3005426E+001  0.1574187E+01  0.7818608E-02  0.3381865E+00
         11   -1    0    0    0    0  0.00000000000E+00  0.00000000000E+00  0.39999999674E+01  0.40000000000E+01  0.51100000000E-03 0.  1.
    9000002   -1    0    0    0    0 -0.00000000000E+00 -0.00000000000E+00  0.00000000000E+00  0.93800000000E+00  0.93800000000E+00 0.  1.
         11    1    1    2    0    0 -0.80181566084E-01 -0.17576765808E+00  0.11336625232E+01  0.11500062308E+01  0.51100000000E-03 0.  1.
    9000002    1    1    2    0    0  0.26711116462E+00  0.54447742856E-02  0.67375319368E-01  0.97763053016E+00  0.93800000000E+00 0.  1.
         22    1    1    2    0    0 -0.18692959854E+00  0.17032288379E+00  0.27989621248E+01  0.28103632391E+01  0.00000000000E+00 0.  1.
</event>
<event>
 5    1  0.3005426E+001  0.1502667E+01  0.7818608E-02  0.3466290E+00
         11   -1    0    0    0    0  0.00000000000E+00  0.00000000000E+00  0.39999999674E+01  0.40000000000E+01  0.51100000000E-03 0.  1.
    9000002   -1    0    0    0    0 -0.00000000000E+00 -0.00000000000E+00  0.00000000000E+00  0.93800000000E+00  0.93800000000E+00 0.  1.
         11    1    1    2    0    0  0.88262898796E-01  0.28112643908E+00  0.63066388371E+00  0.69610316002E+00  0.51100000000E-03 0.  1.
    9000002    1    1    2    0    0  0.26819789948E+00 -0.19380928888E+00  0.15497742154E+00  0.10066549334E+01  0.93800000000E+00 0.  1.
         22    1    1    2    0    0 -0.35646079828E+00 -0.87317150192E-01  0.32143586621E+01  0.32352419066E+01  0.00000000000E+00 0.  1.
</event>
<event>
 5    1  0.3005426E+001  0.1599648E+01  0.7818608E-02  0.3353745E+00
         11   -1    0    0    0    0  0.00000000000E+00  0.00000000000E+00  0.39999999674E+01  0.40000000000E+01  0.51100000000E-03 0. -1.
    9000002   -1    0    0    0    0 -0.00000000000E+00 -0.00000000000E+00  0.00000000000E+00  0.93800000000E+00  0.93800000000E+00 0.  1.
         11    1    1    2    0    0 -0.19999671890E-01 -0.30558542693E-01  0.29249391721E+00  0.29476560880E+00  0.51100000000E-03 0. -1.
    9000002    1    1    2    0    0  0.23294382179E+00  0.37228083419E+00  0.13080282609E+00  0.10439392812E+01  0.93800000000E+00 0.  1.
         22    1    1    2    0    0 -0.21294414990E+00 -0.34172229150E+00  0.35767032241E+01  0.35992951100E+01  0.00000000000E+00 0. -1.
</event>
<event>
 5    1  0.3005426E+001  0.1590644E+01  0.7818608E-02  0.3363581E+00
         11   -1    0    0    0    0  0.00000000000E+00  0.00000000000E+00  0.39999999674E+01  0.40000000000E+01  0.51100000000E-03 0. -1.
    9000002   -1    0    0    0    0 -0.00000000000E+00 -0.00000000000E+00  0.00000000000E+00  0.93800000000E+00  0.93800000000E+00 0. -1.
         11    1    1    2    0    0  0.12606887356E+00 -0.12411506106E+00  0.13748294425E+01  0.13861652738E+01  0.51100000000E-03 0. -1.
    9000002    1    1    2    0    0 -0.53424516600E-01  0.41294059557E+00  0.12483979235E+00  0.10338293322E+01  0.93800000000E+00 0. -1.
         22    1    1    2    0    0 -0.72644356963E-01 -0.28882553452E+00  0.25003307325E+01  0.25180053940E+01  0.00000000000E+00 0.  1.
</event>
<event>
 5    1  0.3005426E+001  0.1597449E+01  0.7818608E-02  0.3356137E+00
         11   -1    0    0    0    0  0.00000000000E+00  0.00000000000E+00  0.39999999674E+01  0.40000000000E+01  0.51100000000E-03 0. -1.
    9000002   -1    0    0    0    0 -0.00000000000E+00 -0.00000000000E+00  0.00000000000E+00  0.93800000000E+00  0.93800000000E+00 0.  1.
         11    1    1    2    0    0  0.18081484273E+00  0.28756462784E-01  0.98878037755E+00  0.10055883043E+01  0.51100000000E-03 0. -1.
    9000002    1    1    2    0    0 -0.72402970764E+00 -0.27326593787E+00  0.44016138308E+00  0.12932437255E+01  0.93800000000E+00 0.  1.
         22    1    1    2    0    0  0.54321486492E+00  0.24450947508E+00  0.25710582067E+01  0.26391679703E+01  0.00000000000E+00 0. -1.
</event>
<event>
 5    1  0.3005426E+001  0.1599677E+01  0.7818608E-02  0.3353714E+00
         11   -1    0    0    0    0  0.00000000000E+00  0.00000000000E+00  0.39999999674E+01  0.40000000000E+01  0.51100000000E-03 0.  1.
    9000002   -1    0    0    0    0 -0.00000000000E+00 -0.00000000000E+00  0.00000000000E+00  0.93800000000E+00  0.93800000000E+00 0.  1.
         11    1    1    2    0    0  0.15268580895E-01 -0.11907196668E+00  0.11049739854E+01  0.11114760602E+01  0.51100000000E-03 0. -1.
    9000002    1    1    2    0    0 -0.54373514352E-01  0.41827276424E+00  0.12034980167E+00  0.10354886089E+01  0.93800000000E+00 0.  1.
         22    1    1    2    0    0  0.39104933457E-01 -0.29920079757E+00  0.27746761803E+01  0.27910353309E+01  0.00000000000E+00 0.  1.
</event>
<event>
 5    1  0.3005426E+001  0.1599673E+01  0.7818608E-02  0.3353718E+00
         11   -1    0    0    0    0  0.00000000000E+00  0.00000000000E+00  0.39999999674E+01  0.40000000000E+01  0.51100000000E-03 0.  1.
    9000002   -1    0    0    0    0 -0.00000000000E+00 -0.00000000000E+00  0.00000000000E+00  0.93800000000E+00  0.93800000000E+00 0. -1.
         11    1    1    2    0    0 -0.56634382364E-01 -0.68610482145E-01  0.63448111135E+00  0.64068821848E+00  0.51100000000E-03 0.  1.
    9000002    1    1    2    0    0  0.33285165246E+00  0.41870030149E+00  0.19705686078E+00  0.10976226908E+01  0.93800000000E+00 0. -1.
         22    1    1    2    0    0 -0.27621727010E+00 -0.35008981934E+00  0.31684619952E+01  0.31996890907E+01  0.00000000000E+00 0.  1.
</event>
<event>
 5    1  0.3005426E+001  0.1566850E+01  0.7818608E-02  0.3390149E+00
         11   -1    0    0    0    0  0.00000000000E+00  0.00000000000E+00  0.39999999674E+01  0.40000000000E+01  0.51100000000E-03 0.  1.
    9000002   -1    0    0    0    0 -0.00000000000E+00 -0.00000000000E+00  0.00000000000E+00  0.93800000000E+00  0.93800000000E+00 0. -1.
         11    1    1    2    0    0  0.84377700245E-01  0.12236996214E+00  0.10880003384E+01  0.10981070082E+01  0.51100000000E-03 0.  1.
    9000002    1    1    2    0    0 -0.16364696146E+00  0.24840801407E+00  0.85134659105E-01  0.98771391588E+00  0.93800000000E+00 0. -1.
         22    1    1    2    0    0  0.79269261218E-01 -0.37077797621E+00  0.28268649699E+01  0.28521790759E+01  0.00000000000E+00 0.  1.
</event>
<event>
 5    1  0.3005426E+001  0.1592050E+01  0.7818608E-02  0.3362038E+00
         11   -1    0    0    0    0  0.00000000000E+00  0.00000000000E+00  0.39999999674E+01  0.40000000000E+01  0.51100000000E-03 0. -1.
    9000002   -1    0    0    0    0 -0.00000000000E+00 -0.00000000000E+00  0.00000000000E+00  0.93800000000E+00  0.93800000000E+00 0. -1.
         11    1    1    2    0    0  0.19982403973E+00 -0.13701784775E+00  0.10921363891E+01  0.11186892736E+01  0.51100000000E-03 0. -1.
    9000002    1    1    2    0    0 -0.48002849795E+00  0.22060954592E+00  0.19908370284E+00  0.10947941593E+01  0.93800000000E+00 0. -1.
         22    1    1    2    0    0  0.28020445822E+00 -0.83591698172E-01  0.27087798755E+01  0.27245165670E+01  0.00000000000E+00 0. -1.
</event>
<event>
 5    1  0.3005426E+001  0.1591360E+01  0.7818608E-02  0.3362794E+00
         11   -1    0    0    0    0  0.00000000000E+00  0.00000000000E+00  0.39999999674E+01  0.40000000000E+01  0.51100000000E-03 0. -1.
    9000002   -1    0    0    0    0 -0.00000000000E+00 -0.00000000000E+00  0.00000000000E+00  0.93800000000E+00  0.93800000000E+00 0.  1.
         11    1    1    2    0    0 -0.17969556181E-01  0.42453282031E-01  0.77280231237E+00  0.77417624688E+00  0.51100000000E-03 0. -1.
    9000002    1    1    2    0    0  0.33883602878E+00  0.15129237720E+00  0.99368291722E-01  0.10136159505E+01  0.93800000000E+00 0.  1.
         22    1    1    2    0    0 -0.32086647259E+00 -0.19374565924E+00  0.31278293633E+01  0.31502078026E+01  0.00000000000E+00 0. -1.
</event>
<event>
 5    1  0.3005426E+001  0.1578427E+01  0.7818608E-02  0.3377116E+00
         11   -1    0    0    0    0  0.00000000000E+00  0.00000000000E+00  0.39999999674E+01  0.40000000000E+01  0.51100000000E-03 0.  1.
    9000002   -1    0    0    0    0 -0.00000000000E+00 -0.00000000000E+00  0.00000000000E+00  0.93800000000E+00  0.93800000000E+00 0. -1.
         11    1    1    2    0    0  0.70606428295E-01 -0.77328274414E-01  0.63732570218E+00  0.64587091707E+00  0.51100000000E-03 0.  1.
    9000002    1    1    2    0    0  0.22527120504E+00  0.30684076366E-01  0.50543549770E-01  0.96648190815E+00  0.93800000000E+00 0. -1.
         22    1    1    2    0    0 -0.29587763334E+00  0.46644198048E-01  0.33121307154E+01  0.33256471748E+01  0.00000000000E+00 0.  1.
</event>
<event>
 5    1  0.3005426E+001  0.1599522E+01  0.7818608E-02  0.3353882E+00
         11   -1    0    0    0    0  0.00000000000E+00  0.00000000000E+00  0.39999999674E+01  0.40000000000E+01  0.51100000000E-03 0. -1.
    9000002   -1    0    0    0    0 -0.00000000000E+00 -0.00000000000E+00  0.00000000000E+00  0.93800000000E+00  0.93800000000E+00 0.  1.
         11    1    1    2    0    0 -0.39929275753E-01 -0.28345643633E-02  0.34748267870E+00  0.34978115291E+00  0.51100000000E-03 0. -1.
    9000002    1    1    2    0    0  0.40633143148E+00  0.11851116849E+00  0.12134498467E+00  0.10362040024E+01  0.93800000000E+00 0.  1.
         22    1    1    2    0    0 -0.36640215573E+00 -0.11567660412E+00  0.35311723040E+01  0.35520148447E+01  0.00000000000E+00 0. -1.
</event>
<event>
 5    1  0.3005426E+001  0.1588457E+01  0.7818608E-02  0.3365987E+00
         11   -1    0    0    0    0  0.00000000000E+00  0.00000000000E+00  0.39999999674E+01  0.40000000000E+01  0.51100000000E-03 0.  1.
    9000002   -1    0    0    0    0 -0.00000000000E+00 -0.00000000000E+00  0.00000000000E+00  0.93800000000E+00  0.93800000000E+00 0.  1.
         11    1    1    2    0    0 -0.24115527182E+00  0.63758189208E-02  0.12844947464E+01  0.13069520002E+01  0.51100000000E-03 0.  1.
    9000002    1    1    2    0    0  0.43272749134E+00 -0.23777405419E+00  0.17683403968E+00  0.10746645338E+01  0.93800000000E+00 0.  1.
         22    1    1    2    0    0 -0.19157221952E+00  0.23139823527E+00  0.25386711813E+01  0.25563834660E+01  0.00000000000E+00 0. -1.
</event>
<event>
 5    1  0.3005426E+001  0.1599675E+01  0.7818608E-02  0.3353717E+00
         11   -1    0    0    0    0  0.00000000000E+00  0.00000000000E+00  0.39999999674E+01  0.40000000000E+01  0.51100000000E-03 0.  1.
    9000002   -1    0    0    0    0 -0.00000000000E+00 -0.00000000000E+00  0.00000000000E+00  0.93800000000E+00  0.93800000000E+00 0. -1.
         11    1    1    2    0    0  0.26784966273E-01  0.78026975410E-01  0.64449991944E+00  0.64975845557E+00  0.51100000000E-03 0.  1.
    9000002    1    1    2    0    0 -0.15357306763E+00 -0.45926938848E+00  0.16012434272E+00  0.10677063564E+01  0.93800000000E+00 0. -1.
         22    1    1    2    0    0  0.12678810135E+00  0.38124241307E+00  0.31953757052E+01  0.32205351881E+01  0.00000000000E+00 0.  1.
</event>
<event>
 5    1  0.3005426E+001  0.1599282E+01  0.7818608E-02  0.3354143E+00
         11   -1    0    0    0    0  0.00000000000E+00  0.00000000000E+00  0.39999999674E+01  0.40000000000E+01  0.51100000000E-03 0.  1.
    9000002   -1    0    0    0    0 -0.00000000000E+00 -0.00000000000E+00  0.00000000000E+00  0.93800000000E+00  0.93800000000E+00 0.  1.
         11    1    1    2    0    0 -0.52190654655E-01 -0.10973169250E-01  0.34568432740E+00  0.34977448478E+00  0.51100000000E-03 0.  1.
    9000002    1    1    2    0    0  0.64670311863E+00  0.23293036324E+00  0.33697758919E+00  0.12107350550E+01  0.93800000000E+00 0.  1.
         22    1    1    2    0    0 -0.59451246398E+00 -0.22195719399E+00  0.33173380508E+01  0.33774904602E+01  0.00000000000E+00 0.  1.
</event>
<event>
 5    1  0.3005426E+001  0.1599675E+01  0.7818608E-02  0.3353716E+00
         11   -1    0    0    0    0  0.00000000000E+00  0.00000000000E+00  0.39999999674E+01  0.40000000000E+01  0.51100000000E-03 0. -1.
    9000002   -1    0    0    0    0 -0.00000000000E+00 -0.00000000000E+00  0.00000000000E+00  0.93800000000E+00  0.93800000000E+00 0.  1.
         11    1    1    2    0    0 -0.16988490879E+00  0.11454567152E+00  0.14790690582E+01  0.14931936021E+01  0.51100000000E-03 0. -1.
    9000002    1    1    2    0    0  0.43364955838E+00 -0.29735021674E+00  0.19010944202E+00  0.10919957375E+01  0.93800000000E+00 0.  1.
         22    1    1    2    0    0 -0.26376464958E+00  0.18280454523E+00  0.23308214671E+01  0.23528106604E+01  0.00000000000E+00 0.  1.
</event>
<event>
 5    1  0.3005426E+001  0.1599459E+01  0.7818608E-02  0.3353950E+00
         11   -1    0    0    0    0  0.00000000000E+00  0.00000000000E+00  0.39999999674E+01  0.40000000000E+01  0.51100000000E-03 0. -1.
    9000002   -1    0    0    0    0 -0.00000000000E+00 -0.00000000000E+00  0.00000000000E+00  0.93800000000E+00  0.93800000000E+00 0. -1.
         11    1    1    2    0    0  0.16246599692E+00  0.11757156464E+00  0.11017319050E+01  0.11198355792E+01  0.51100000000E-03 0. -1.
    9000002    1    1    2    0    0 -0.49344963788E+00 -0.39307588306E+00  0.27981495582E+00  0.11645349305E+01  0.93800000000E+00 0. -1.
         22    1    1    2    0    0  0.33098364096E+00  0.27550431842E+00  0.26184531066E+01  0.26536294902E+01  0.00000000000E+00 0. -1.
</event>
<event>
 5    1  0.3005426E+001  0.1597971E+01  0.7818608E-02  0.3355569E+00
         11   -1    0    0    0    0  0.00000000000E+00  0.00000000000E+00  0.39999999674E+01  0.40000000000E+01  0.51100000000E-03 0.  1.
    9000002   -1    0    0    0    0 -0.00000000000E+00 -0.00000000000E+00  0.00000000000E+00  0.93800000000E+00  0.93800000000E+00 0.  1.
         11    1    1    2    0    0 -0.66577931645E-01 -0.86645240844E-01  0.13786453631E+01  0.13829690225E+01  0.51100000000E-03 0.  1.
    9000002    1    1    2    0    0  0.10991229482E+00  0.35484857139E+00  0.94150203716E-01  0.10132652575E+01  0.93800000000E+00 0.  1.
         22    1    1    2    0    0 -0.43334363171E-01 -0.26820333055E+00  0.25272044005E+01  0.25417657200E+01  0.00000000000E+00 0.  1.
</event>
<event>
 5    1  0.3005426E+001  0.1599207E+01  0.7818608E-02  0.3354224E+00
         11   -1    0    0    0    0  0.00000000000E+00  0.00000000000E+00  0.39999999674E+01  0.40000000000E+01  0.51100000000E-03 0. -1.
    9000002   -1    0    0    0    0 -0.00000000000E+00 -0.00000000000E+00  0.00000000000E+00  0.93800000000E+00  0.93800000000E+00 0.  1.
         11    1    1    2    0    0  0.34075541489E-01 -0.67222263473E-01  0.85799742399E+00  0.86130123414E+00  0.51100000000E-03 0. -1.
    9000002    1    1    2    0    0 -0.71805474849E-01  0.35843705424E+00  0.90142290212E-01  0.10107436770E+01  0.93800000000E+00 0.  1.
         22    1    1    2    0    0  0.37729933360E-01 -0.29121479077E+00  0.30518602532E+01  0.30659550889E+01  0.00000000000E+00 0. -1.
</event>
<event>
 5    1  0.3005426E+001  0.1599672E+01  0.7818608E-02  0.3353719E+00
         11   -1    0    0    0    0  0.00000000000E+00  0.00000000000E+00  0.39999999674E+01  0.40000000000E+01  0.51100000000E-03 0. -1.
    9000002   -1    0    0    0    0 -0.00000000000E+00 -0.00000000000E+00  0.00000000000E+00  0.93800000000E+00  0.93800000000E+00 0. -1.
         11    1    1    2    0    0 -0.89952926958E-01  0.53707378972E-02  0.10294593124E+01  0.10333959120E+01  0.51100000000E-03 0. -1.
    9000002    1    1    2    0    0  0.35015895979E+00 -0.24362333702E-01  0.82623127289E-01  0.10049255702E+01  0.93800000000E+00 0. -1.
         22    1    1    2    0    0 -0.26020603283E+00  0.18991595805E-01  0.28879175277E+01  0.28996785178E+01  0.00000000000E+00 0. -1.
</event>
<event>
 5    1  0.3005426E+001  0.1599664E+01  0.7818608E-02  0.3353728E+00
         11   -1    0    0    0    0  0.00000000000E+00  0.00000000000E+00  0.39999999674E+01  0.40000000000E+01  0.51100000000E-03 0. -1.
    9000002   -1    0    0    0    0 -0.00000000000E+00 -0.00000000000E+00  0.00000000000E+00  0.93800000000E+00  0.93800000000E+00 0.  1.
         11    1    1    2    0    0 -0.15943381929E-01 -0.92709132741E-01  0.10113322684E+01  0.10156979831E+01  0.51100000000E-03 0. -1.
    9000002    1    1    2    0    0  0.76021558589E-01  0.35721397270E+00  0.89597501783E-01  0.10105705379E+01  0.93800000000E+00 0.  1.
         22    1    1    2    0    0 -0.60078176660E-01 -0.26450483996E+00  0.28990701972E+01  0.29117314790E+01  0.00000000000E+00 0.  1.
</event>
<event>
 5    1  0.3005426E+001  0.1585172E+01  0.7818608E-02  0.3369616E+00
         11   -1    0    0    0    0  0.00000000000E+00  0.00000000000E+00  0.39999999674E+01  0.40000000000E+01  0.51100000000E-03 0. -1.
    9000002   -1    0    0    0    0 -0.00000000000E+00 -0.00000000000E+00  0.00000000000E+00  0.93800000000E+00  0.93800000000E+00 0.  1.
         11    1    1    2    0    0 -0.55901534203E-01 -0.49096155784E-01  0.16735792400E+00  0.18315116676E+00  0.51100000000E-03 0. -1.
    9000002    1    1    2    0    0  0.45821981306E+00  0.14116863877E-02  0.15550240285E+00  0.10554583778E+01  0.93800000000E+00 0.  1.
         22    1    1    2    0    0 -0.40231827886E+00  0.47684469396E-01  0.36771396405E+01  0.36993904555E+01  0.00000000000E+00 0. -1.
</event>
<event>
 5    1  0.3005426E+001  0.1599671E+01  0.7818608E-02  0.3353721E+00
         11   -1    0    0    0    0  0.00000000000E+00  0.00000000000E+00  0.39999999674E+01  0.40000000000E+01  0.51100000000E-03 0. -1.
    9000002   -1    0    0    0    0 -0.00000000000E+00 -0.00000000000E+00  0.00000000000E+00  0.93800000000E+00  0.93800000000E+00 0.  1.
         11    1    1    2    0    0  0.89693622535E-01  0.15979288111E-01  0.94333789439E+00  0.94772724330E+00  0.51100000000E-03 0. -1.
    9000002    1    1    2    0    0 -0.37187470020E+00 -0.76802520931E-01  0.97018425442E-01  0.10165854587E+01  0.93800000000E+00 0.  1.
         22    1    1    2    0    0  0.28218107766E+00  0.60823232821E-01  0.29596436475E+01  0.29736872981E+01  0.00000000000E+00 0. -1.
</event>
<event>
 5    1  0.3005426E+001  0.1599392E+01  0.7818608E-02  0.3354024E+00
         11   -1    0    0    0    0  0.00000000000E+00  0.00000000000E+00  0.39999999674E+01  0.40000000000E+01  0.51100000000E-03 0.  1.
    9000002   -1    0    0    0    0 -0.00000000000E+00 -0.00000000000E+00  0.00000000000E+00  0.93800000000E+00  0.93800000000E+00 0. -1.
         11    1    1    2    0    0  0.96245561414E-01  0.12562276034E-01  0.11198753223E+01  0.11240738488E+01  0.51100000000E-03 0.  1.
    9000002    1    1    2    0    0 -0.34980739512E+00 -0.10655515186E+00  0.90051057675E-01  0.10107781196E+01  0.93800000000E+00 0. -1.
         22    1    1    2    0    0  0.25356183371E+00  0.93992875827E-01  0.27900735873E+01  0.28031480316E+01  0.00000000000E+00 0.  1.
</event>
<event>
 5    1  0.3005426E+001  0.1599634E+01  0.7818608E-02  0.3353761E+00
         11   -1    0    0    0    0  0.00000000000E+00  0.00000000000E+00  0.39999999674E+01  0.40000000000E+01  0.51100000000E-03 0. -1.
    9000002   -1    0    0    0    0 -0.00000000000E+00 -0.00000000000E+00  0.00000000000E+00  0.93800000000E+00  0.93800000000E+00 0.  1.
         11    1    1    2    0    0 -0.79092535997E-01 -0.58763407265E-01  0.98417963574E+00  0.98909988566E+00  0.51100000000E-03 0. -1.
    9000002    1    1    2    0    0  0.33852179294E+00  0.22410988593E+00  0.11129822058E+00  0.10281310905E+01  0.93800000000E+00 0.  1.
         22    1    1    2    0    0 -0.25942925694E+00 -0.16534647866E+00  0.29045221110E+01  0.29207690239E+01  0.00000000000E+00 0. -1.
</event>
<event>
 5    1  0.3005426E+001  0.1599676E+01  0.7818608E-02  0.3353715E+00
         11   -1    0    0    0    0  0.00000000000E+00  0.00000000000E+00  0.39999999674E+01  0.40000000000E+01  0.51100000000E-03 0.  1.
    9000002   -1    0    0    0    0 -0.00000000000E+00 -0.00000000000E+00  0.00000000000E+00  0.93800000000E+00  0.93800000000E+00 0. -1.
         11    1    1    2    0    0  0.80983595263E-01  0.36906023417E-01  0.72191980768E+00  0.72738495112E+00  0.51100000000E-03 0.  1.
    9000002    1    1    2    0    0 -0.43319535058E+00 -0.20069384483E+00  0.15546232590E+00  0.10639308088E+01  0.93800000000E+00 0. -1.
         22    1    1    2    0    0  0.35221175532E+00  0.16378782142E+00  0.31226178338E+01  0.31466842401E+01  0.00000000000E+00 0.  1.
</event>
<event>
 5    1  0.3005426E+001  0.1599082E+01  0.7818608E-02  0.3354360E+00
         11   -1    0    0    0    0  0.00000000000E+00  0.00000000000E+00  0.39999999674E+01  0.40000000000E+01  0.51100000000E-03 0.  1.
    9000002   -1    0    0    0    0 -0.00000000000E+00 -0.00000000000E+00  0.00000000000E+00  0.93800000000E+00  0.93800000000E+00 0.  1.
         11    1    1    2    0    0 -0.79335593106E-03  0.23475811137E-01  0.19710713076E+00  0.19850245650E+00  0.51100000000E-03 0.  1.
    9000002    1    1    2    0    0  0.22919462597E+00 -0.32598306605E+00  0.10758423976E+00  0.10247992509E+01  0.93800000000E+00 0.  1.
         22    1    1    2    0    0 -0.22840127004E+00  0.30250725491E+00  0.36953085968E+01  0.37146982926E+01  0.00000000000E+00 0.  1.
</event>
<event>
 5    1  0.3005426E+001  0.1549428E+01  0.7818608E-02  0.3410151E+00
         11   -1    0    0    0    0  0.00000000000E+00  0.00000000000E+00  0.39999999674E+01  0.40000000000E+01  0.51100000000E-03 0.  1.
    9000002   -1    0    0    0    0 -0.00000000000E+00 -0.00000000000E+00  0.00000000000E+00  0.93800000000E+00  0.93800000000E+00 0.  1.
         11    1    1    2    0    0  0.11273536391E+00  0.32732926439E+00  0.65039534490E+00  0.73679581662E+00  0.51100000000E-03 0.  1.
    9000002    1    1    2    0    0  0.40311627803E-03 -0.75617193880E+00  0.47904152633E+00  0.12965804825E+01  0.93800000000E+00 0.  1.
         22    1    1    2    0    0 -0.11313848019E+00  0.42884267442E+00  0.28705630961E+01  0.29046237009E+01  0.00000000000E+00 0.  1.
</event>
<event>
 5    1  0.3005426E+001  0.1596657E+01  0.7818608E-02  0.3357000E+00
         11   -1    0    0    0    0  0.00000000000E+00  0.00000000000E+00  0.39999999674E+01  0.40000000000E+01  0.51100000000E-03 0.  1.
    9000002   -1    0    0    0    0 -0.00000000000E+00 -0.00000000000E+00  0.00000000000E+00  0.93800000000E+00  0.93800000000E+00 0. -1.
         11    1    1    2    0    0  0.22211417776E+00 -0.52553644686E-01  0.13565829341E+01  0.13756504323E+01  0.51100000000E-03 0.  1.
    9000002    1    1    2    0    0 -0.56395955598E+00 -0.21989316991E-01  0.22352129435E+00  0.11172912243E+01  0.93800000000E+00 0. -1.
         22    1    1    2    0    0  0.34184537822E+00  0.74542961677E-01  0.24198957389E+01  0.24450583434E+01  0.00000000000E+00 0.  1.
</event>
<event>
 5    1  0.3005426E+001  0.1599665E+01  0.7818608E-02  0.3353727E+00
         11   -1    0    0    0    0  0.00000000000E+00  0.00000000000E+00  0.39999999674E+01  0.40000000000E+01  0.51100000000E-03 0.  1.
    9000002   -1    0    0    0    0 -0.00000000000E+00 -0.00000000000E+00  0.00000000000E+00  0.93800000000E+00  0.93800000000E+00 0. -1.
         11    1    1    2    0    0  0.20932378166E-01  0.11325059443E+00  0.12735987806E+01  0.12787955179E+01  0.51100000000E-03 0.  1.
    9000002    1    1    2    0    0 -0.60020099325E-01 -0.35916572614E+00  0.89063259199E-01  0.10101379585E+01  0.93800000000E+00 0. -1.
         22    1    1    2    0    0  0.39087721159E-01  0.24591513170E+00  0.26373379276E+01  0.26490665235E+01  0.00000000000E+00 0.  1.
</event>
<event>
 5    1  0.3005426E+001  0.1569098E+01  0.7818608E-02  0.3387602E+00
         11   -1    0    0    0    0  0.00000000000E+00  0.00000000000E+00  0.39999999674E+01  0.40000000000E+01  0.51100000000E-03 0.  1.
    9000002   -1    0    0    0    0 -0.00000000000E+00 -0.00000000000E+00  0.00000000000E+00  0.93800000000E+00  0.93800000000E+00 0. -1.
         11    1    1    2    0    0 -0.28598254957E-01  0.99950550818E-01  0.10211454477E+01  0.10264240153E+01  0.51100000000E-03 0.  1.
    9000002    1    1    2    0    0 -0.23689878347E+00  0.23449525743E+00  0.99159170067E-01  0.10003927231E+01  0.93800000000E+00 0. -1.
         22    1    1    2    0    0  0.26549703843E+00 -0.33444580825E+00  0.28796953496E+01  0.29111832616E+01  0.00000000000E+00 0.  1.
</event>
<event>
 5    1  0.3005426E+001  0.1599532E+01  0.7818608E-02  0.3353871E+00
         11   -1    0    0    0    0  0.00000000000E+00  0.00000000000E+00  0.39999999674E+01  0.40000000000E+01  0.51100000000E-03 0.  1.
    9000002   -1    0    0    0    0 -0.00000000000E+00 -0.00000000000E+00  0.00000000000E+00  0.93800000000E+00  0.93800000000E+00 0. -1.
         11    1    1    2    0    0  0.86478749196E-01 -0.52213199523E-01  0.12329035837E+01  0.12370352865E+01  0.51100000000E-03 0.  1.
    9000002    1    1    2    0    0 -0.31098007243E+00  0.18789321125E+00  0.88766446023E-01  0.10098197593E+01  0.93800000000E+00 0. -1.
         22    1    1    2    0    0  0.22450132323E+00 -0.13568001173E+00  0.26783299376E+01  0.26911449542E+01  0.00000000000E+00 0.  1.
</event>
<event>
 5    1  0.3005426E+001  0.1479312E+01  0.7818608E-02  0.3495760E+00
         11   -1    0    0    0    0  0.00000000000E+00  0.00000000000E+00  0.39999999674E+01  0.40000000000E+01  0.51100000000E-03 0. -1.
    9000002   -1    0    0    0    0 -0.00000000000E+00 -0.00000000000E+00  0.00000000000E+00  0.93800000000E+00  0.93800000000E+00 0. -1.
         11    1    1    2    0    0  0.94347819230E-01  0.20610963834E+00  0.33867866474E+00  0.40753673832E+00  0.51100000000E-03 0. -1.
    9000002    1    1    2    0    0  0.17251186491E+00  0.13074935442E+00  0.12802586948E+00  0.97112839546E+00  0.93800000000E+00 0. -1.
         22    1    1    2    0    0 -0.26685968414E+00 -0.33685899276E+00  0.35332954331E+01  0.35593348662E+01  0.00000000000E+00 0. -1.
</event>
<event>
 5    1  0.3005426E+001  0.1599672E+01  0.7818608E-02  0.3353719E+00
         11   -1    0    0    0    0  0.00000000000E+00  0.00000000000E+00  0.39999999674E+01  0.40000000000E+01  0.51100000000E-03 0. -1.
    9000002   -1    0    0    0    0 -0.00000000000E+00 -0.00000000000E+00  0.00000000000E+00  0.93800000000E+00  0.93800000000E+00 0. -1.
         11    1    1    2    0    0  0.83048177137E-01  0.61130510787E-01  0.94840411677E+00  0.95399400884E+00  0.51100000000E-03 0. -1.
    9000002    1    1    2    0    0 -0.34692931603E+00 -0.24483210740E+00  0.12202044254E+00  0.10368392834E+01  0.93800000000E+00 0. -1.
         22    1    1    2    0    0  0.26388113890E+00  0.18370159661E+00  0.29295754081E+01  0.29471667078E+01  0.00000000000E+00 0. -1.
</event>
<event>
 5    1  0.3005426E+001  0.1599301E+01  0.7818608E-02  0.3354122E+00
         11   -1    0    0    0    0  0.00000000000E+00  0.00000000000E+00  0.39999999674E+01  0.40000000000E+01  0.51100000000E-03 0. -1.
    9000002   -1    0    0    0    0 -0.00000000000E+00 -0.00000000000E+00  0.00000000000E+00  0.93800000000E+00  0.93800000000E+00 0. -1.
         11    1    1    2    0    0 -0.26872606827E-01  0.13433898327E-01  0.29098218913E+00  0.29252948935E+00  0.51100000000E-03 0. -1.
    9000002    1    1    2    0    0  0.51084534075E+00 -0.14171103042E+00  0.19375267013E+00  0.10947278545E+01  0.93800000000E+00 0. -1.
         22    1    1    2    0    0 -0.48397273392E+00  0.12827713210E+00  0.35152651081E+01  0.35507426561E+01  0.00000000000E+00 0. -1.
</event>
<event>
 5    1  0.3005426E+001  0.1599058E+01  0.7818608E-02  0.3354386E+00
         11   -1    0    0    0    0  0.00000000000E+00  0.00000000000E+00  0.39999999674E+01  0.40000000000E+01  0.51100000000E-03 0. -1.
    9000002   -1    0    0    0    0 -0.00000000000E+00 -0.00000000000E+00  0.00000000000E+00  0.93800000000E+00  0.93800000000E+00 0. -1.
         11    1    1    2    0    0 -0.72397156868E-01 -0.13326567774E+00  0.12093646035E+01  0.12188371895E+01  0.51100000000E-03 0. -1.
    9000002    1    1    2    0    0  0.23120845827E+00  0.50519616298E+00  0.21402138811E+00  0.11110039014E+01  0.93800000000E+00 0.  1.
         22    1    1    2    0    0 -0.15881130140E+00 -0.37193048523E+00  0.25766139757E+01  0.26081589091E+01  0.00000000000E+00 0. -1.
</event>
<event>
 5    1  0.3005426E+001  0.1599670E+01  0.7818608E-02  0.3353721E+00
         11   -1    0    0    0    0  0.00000000000E+00  0.00000000000E+00  0.39999999674E+01  0.40000000000E+01  0.51100000000E-03 0.  1.
    9000002   -1    0    0    0    0 -0.00000000000E+00 -0.00000000000E+00  0.00000000000E+00  0.93800000000E+00  0.93800000000E+00 0.  1.
         11    1    1    2    0    0 -0.71690649199E-01  0.10414585302E+00  0.10423693500E+01  0.10500095384E+01  0.51100000000E-03 0.  1.
    9000002    1    1    2    0    0  0.26693046294E+00 -0.37523410525E+00  0.14425462259E+00  0.10548487578E+01  0.93800000000E+00 0.  1.
         22    1    1    2    0    0 -0.19523981374E+00  0.27108825223E+00  0.28133759948E+01  0.28331417037E+01  0.00000000000E+00 0.  1.
</event>
<event>
 5    1  0.3005426E+001  0.1599674E+01  0.7818608E-02  0.3353717E+00
         11   -1    0    0    0    0  0.00000000000E+00  0.00000000000E+00  0.39999999674E+01  0.40000000000E+01  0.51100000000E-03 0.  1.
    9000002   -1    0    0    0    0 -0.00000000000E+00 -0.00000000000E+00  0.00000000000E+00  0.93800000000E+00  0.93800000000E+00 0. -1.
         11    1    1    2    0    0 -0.77443068923E-01 -0.55371890713E-01  0.88707237802E+00  0.89216654284E+00  0.51100000000E-03 0.  1.
    9000002    1    1    2    0    0  0.34631068975E+00  0.24325259339E+00  0.12118374882E+00  0.10361623517E+01  0.93800000000E+00 0. -1.
         22    1    1    2    0    0 -0.26886762082E+00 -0.18788070268E+00  0.29917438405E+01  0.30096711055E+01  0.00000000000E+00 0.  1.
</event>
<event>
 5    1  0.3005426E+001  0.1599428E+01  0.7818608E-02  0.3353985E+00
         11   -1    0    0    0    0  0.00000000000E+00  0.00000000000E+00  0.39999999674E+01  0.40000000000E+01  0.51100000000E-03 0.  1.
    9000002   -1    0    0    0    0 -0.00000000000E+00 -0.00000000000E+00  0.00000000000E+00  0.93800000000E+00  0.93800000000E+00 0.  1.
         11    1    1    2    0    0 -0.45224847851E-01 -0.34821031594E-01  0.22821599328E+00  0.23524581147E+00  0.51100000000E-03 0.  1.
    9000002    1    1    2    0    0  0.62576248208E+00  0.42440597575E+00  0.41551491904E+00  0.12744393921E+01  0.93800000000E+00 0.  1.
         22    1    1    2    0    0 -0.58053763423E+00 -0.38958494416E+00  0.33562690550E+01  0.34283147964E+01  0.00000000000E+00 0.  1.
</event>
<event>
 5    1  0.3005426E+001  0.1598899E+01  0.7818608E-02  0.3354559E+00
         11   -1    0    0    0    0  0.00000000000E+00  0.00000000000E+00  0.39999999674E+01  0.40000000000E+01  0.51100000000E-03 0.  1.
    9000002   -1    0    0    0    0 -0.00000000000E+00 -0.00000000000E+00  0.00000000000E+00  0.93800000000E+00  0.93800000000E+00 0.  1.
         11    1    1    2    0    0 -0.35239943620E-01  0.67383772374E-01  0.57038716193E+00  0.57543392498E+00  0.51100000000E-03 0.  1.
    9000002    1    1    2    0    0  0.86756117906E-01 -0.40538546499E+00  0.11680172484E+00  0.10321582447E+01  0.93800000000E+00 0.  1.
         22    1    1    2    0    0 -0.51516174286E-01  0.33800169262E+00  0.33128110806E+01  0.33304078303E+01  0.00000000000E+00 0.  1.
</event>
<event>
 5    1  0.3005426E+001  0.1599677E+01  0.7818608E-02  0.3353715E+00
         11   -1    0    0    0    0  0.00000000000E+00  0.00000000000E+00  0.39999999674E+01  0.40000000000E+01  0.51100000000E-03 0. -1.
    9000002   -1    0    0    0    0 -0.00000000000E+00 -0.00000000000E+00  0.00000000000E+00  0.93800000000E+00  0.93800000000E+00 0.  1.
         11    1    1    2    0    0  0.12428043482E+00  0.21070264511E-01  0.91523259241E+00  0.92387257879E+00  0.51100000000E-03 0. -1.
    9000002    1    1    2    0    0 -0.51781038685E+00 -0.90359911975E-01  0.18998063517E+00  0.10918924636E+01  0.93800000000E+00 0.  1.
         22    1    1    2    0    0  0.39352995203E+00  0.69289647465E-01  0.28947867398E+01  0.29222349576E+01  0.00000000000E+00 0. -1.
</event>
<event>
 5    1  0.3005426E+001  0.1599633E+01  0.7818608E-02  0.3353762E+00
         11   -1    0    0    0    0  0.00000000000E+00  0.00000000000E+00  0.39999999674E+01  0.40000000000E+01  0.51100000000E-03 0.  1.
    9000002   -1    0    0    0    0 -0.00000000000E+00 -0.00000000000E+00  0.00000000000E+00  0.93800000000E+00  0.93800000000E+00 0.  1.
         11    1    1    2    0    0  0.10111955531E+00 -0.71329575939E-01  0.95913633286E+00  0.96708626244E+00  0.51100000000E-03 0.  1.
    9000002    1    1    2    0    0 -0.42769582062E+00  0.29484177371E+00  0.18539179210E+00  0.10881495775E+01  0.93800000000E+00 0.  1.
         22    1    1    2    0    0  0.32657626531E+00 -0.22351219777E+00  0.28554718424E+01  0.28827641600E+01  0.00000000000E+00 0.  1.
</event>
<event>
 5    1  0.3005426E+001  0.1655627E+01  0.7818608E-02  0.3295116E+00
         11   -1    0    0    0    0  0.00000000000E+00  0.00000000000E+00  0.39999999674E+01  0.40000000000E+01  0.51100000000E-03 0. -1.
    9000002   -1    0    0    0    0 -0.00000000000E+00 -0.00000000000E+00  0.00000000000E+00  0.93800000000E+00  0.93800000000E+00 0. -1.
         11    1    1    2    0    0  0.24403809250E+00 -0.78174410426E-01 -0.14977069437E-01  0.25669125963E+00  0.51100000000E-03 0. -1.
    9000002    1    1    2    0    0  0.87546742196E-01  0.29786516390E+00  0.43544139142E+00  0.10797413085E+01  0.93800000000E+00 0. -1.
         22    1    1    2    0    0 -0.33158483470E+00 -0.21969075347E+00  0.35795356454E+01  0.36015674319E+01  0.00000000000E+00 0. -1.
</event>
<event>
 5    1  0.3005426E+001  0.1599591E+01  0.7818608E-02  0.3353808E+00
         11   -1    0    0    0    0  0.00000000000E+00  0.00000000000E+00  0.39999999674E+01  0.40000000000E+01  0.51100000000E-03 0. -1.
    9000002   -1    0    0    0    0 -0.00000000000E+00 -0.00000000000E+00  0.00000000000E+00  0.93800000000E+00  0.93800000000E+00 0. -1.
         11    1    1    2    0    0  0.75736019275E-01  0.86444244602E-01  0.11735960556E+01  0.11792101233E+01  0.51100000000E-03 0. -1.
    9000002    1    1    2    0    0 -0.27801385321E+00 -0.30654537061E+00  0.11580152150E+00  0.10317537299E+01  0.93800000000E+00 0. -1.
         22    1    1    2    0    0  0.20227783394E+00  0.22010112601E+00  0.27106023903E+01  0.27270361468E+01  0.00000000000E+00 0. -1.
</event>
<event>
 5    1  0.3005426E+001  0.1599463E+01  0.7818608E-02  0.3353946E+00
         11   -1    0    0    0    0  0.00000000000E+00  0.00000000000E+00  0.39999999674E+01  0.40000000000E+01  0.51100000000E-03 0.  1.
    9000002   -1    0    0    0    0 -0.00000000000E+00 -0.00000000000E+00  0.00000000000E+00  0.93800000000E+00  0.93800000000E+00 0. -1.
         11    1    1    2    0    0  0.11499914923E+00  0.20691889780E-01  0.78807971030E+00  0.79669495388E+00  0.51100000000E-03 0.  1.
    9000002    1    1    2    0    0 -0.57442468571E+00 -0.34994163178E-01  0.23010323767E+00  0.11242685671E+01  0.93800000000E+00 0. -1.
         22    1    1    2    0    0  0.45942553648E+00  0.14302273398E-01  0.29818170194E+01  0.30170364790E+01  0.00000000000E+00 0.  1.
</event>
<event>
 5    1  0.3005426E+001  0.1599619E+01  0.7818608E-02  0.3353777E+00
         11   -1    0    0    0    0  0.00000000000E+00  0.00000000000E+00  0.39999999674E+01  0.40000000000E+01  0.51100000000E-03 0.  1.
    9000002   -1    0    0    0    0 -0.00000000000E+00 -0.00000000000E+00  0.00000000000E+00  0.93800000000E+00  0.93800000000E+00 0.  1.
         11    1    1    2    0    0 -0.33388026480E-01  0.15880353182E-01  0.33529479913E+00  0.33732745126E+00  0.51100000000E-03 0.  1.
    9000002    1    1    2    0    0  0.32944525237E+00 -0.19514123919E+00  0.98730772739E-01  0.10179420627E+01  0.93800000000E+00 0.  1.
         22    1    1    2    0    0 -0.29605722589E+00  0.17926088601E+00  0.35659743955E+01  0.35827304860E+01  0.00000000000E+00 0.  1.
</event>
<event>
 5    1  0.3005426E+001  0.1599675E+01  0.7818608E-02  0.3353716E+00
         11   -1    0    0    0    0  0.00000000000E+00  0.00000000000E+00  0.39999999674E+01  0.40000000000E+01  0.51100000000E-03 0.  1.
    9000002   -1    0    0    0    0 -0.00000000000E+00 -0.00000000000E+00  0.00000000000E+00  0.93800000000E+00  0.93800000000E+00 0. -1.
         11    1    1    2    0    0  0.11538432147E+00 -0.92210340419E-01  0.11984515381E+01  0.12075192085E+01  0.51100000000E-03 0.  1.
    9000002    1    1    2    0    0 -0.36871168489E+00  0.29164002113E+00  0.15056079076E+00  0.10599597918E+01  0.93800000000E+00 0. -1.
         22    1    1    2    0    0  0.25332736342E+00 -0.19942968071E+00  0.26509876384E+01  0.26705209997E+01  0.00000000000E+00 0.  1.
</event>
<event>
 5    1  0.3005426E+001  0.1599671E+01  0.7818608E-02  0.3353720E+00
         11   -1    0    0    0    0  0.00000000000E+00  0.00000000000E+00  0.39999999674E+01  0.40000000000E+01  0.51100000000E-03 0. -1.
    9000002   -1    0    0    0    0 -0.00000000000E+00 -0.00000000000E+00  0.00000000000E+00  0.93800000000E+00  0.93800000000E+00 0. -1.
         11    1    1    2    0    0  0.36294257995E-01  0.12609819657E+00  0.13881300721E+01  0.13943182516E+01  0.51100000000E-03 0. -1.
    9000002    1    1    2    0    0 -0.10183115338E+00 -0.34756162797E+00  0.88075073343E-01  0.10093413137E+01  0.93800000000E+00 0. -1.
         22    1    1    2    0    0  0.65536895387E-01  0.22146343140E+00  0.25237948219E+01  0.25343404347E+01  0.00000000000E+00 0. -1.
</event>
<event>
 5    1  0.3005426E+001  0.1534241E+01  0.7818608E-02  0.3427982E+00
         11   -1    0    0    0    0  0.00000000000E+00  0.00000000000E+00  0.39999999674E+01  0.40000000000E+01  0.51100000000E-03 0.  1.
    9000002   -1    0    0    0    0 -0.00000000000E+00 -0.00000000000E+00  0.00000000000E+00  0.93800000000E+00  0.93800000000E+00 0.  1.
         11    1    1    2    0    0  0.14978082320E+00  0.23070437876E+00  0.11095792584E+01  0.11431645539E+01  0.51100000000E-03 0.  1.
    9000002    1    1    2    0    0 -0.32340630911E+00  0.14764078041E+00  0.13969889271E+00  0.10127927831E+01  0.93800000000E+00 0.  1.
         22    1    1    2    0    0  0.17362548591E+00 -0.37834515918E+00  0.27507218162E+01  0.27820426631E+01  0.00000000000E+00 0.  1.
</event>
<event>
 5    1  0.3005426E+001  0.1599676E+01  0.7818608E-02  0.3353715E+00
         11   -1    0    0    0    0  0.00000000000E+00  0.00000000000E+00  0.39999999674E+01  0.40000000000E+01  0.51100000000E-03 0.  1.
    9000002   -1    0    0    0    0 -0.00000000000E+00 -0.00000000000E+00  0.00000000000E+00  0.93800000000E+00  0.93800000000E+00 0. -1.
         11    1    1    2    0    0 -0.10213629023E+00  0.70067040107E-01  0.12354840241E+01  0.12416771911E+01  0.51100000000E-03 0. -1.
    9000002    1    1    2    0    0  0.32447419447E+00 -0.21842903699E+00  0.10308310273E+00  0.10215012840E+01  0.93800000000E+00 0. -1.
         22    1    1    2    0    0 -0.22233790424E+00  0.14836199688E+00  0.26614328405E+01  0.26748215250E+01  0.00000000000E+00 0.  1.
</event>
<event>
 5    1  0.3005426E+001  0.1599677E+01  0.7818608E-02  0.3353714E+00
         11   -1    0    0    0    0  0.00000000000E+00  0.00000000000E+00  0.39999999674E+01  0.40000000000E+01  0.51100000000E-03 0. -1.
    9000002   -1    0    0    0    0 -0.00000000000E+00 -0.00000000000E+00  0.00000000000E+00  0.93800000000E+00  0.93800000000E+00 0.  1.
         11    1    1    2    0    0 -0.56642478212E-01 -0.73116120710E-01  0.10183756115E+01  0.10225671052E+01  0.51100000000E-03 0.  1.
    9000002    1    1    2    0    0  0.21882117267E+00  0.28182744639E+00  0.85427191741E-01  0.10071996923E+01  0.93800000000E+00 0.  1.
         22    1    1    2    0    0 -0.16217869446E+00 -0.20871132568E+00  0.28961971641E+01  0.29082332024E+01  0.00000000000E+00 0. -1.
</event>
<event>
 5    1  0.3005426E+001  0.1599641E+01  0.7818608E-02  0.3353753E+00
         11   -1    0    0    0    0  0.00000000000E+00  0.00000000000E+00  0.39999999674E+01  0.40000000000E+01  0.51100000000E-03 0. -1.
    9000002   -1    0    0    0    0 -0.00000000000E+00 -0.00000000000E+00  0.00000000000E+00  0.93800000000E+00  0.93800000000E+00 0. -1.
         11    1    1    2    0    0  0.10825336157E+00  0.43251175281E-01  0.11997538727E+01  0.12054041109E+01  0.51100000000E-03 0. -1.
    9000002    1    1    2    0    0 -0.36391255311E+00 -0.15803237574E+00  0.10615954368E+00  0.10239728643E+01  0.93800000000E+00 0. -1.
         22    1    1    2    0    0  0.25565919154E+00  0.11478120046E+00  0.26940865510E+01  0.27086230248E+01  0.00000000000E+00 0. -1.
</event>
<event>
 5    1  0.3005426E+001  0.1599666E+01  0.7818608E-02  0.3353726E+00
         11   -1    0    0    0    0  0.00000000000E+00  0.00000000000E+00  0.39999999674E+01  0.40000000000E+01  0.51100000000E-03 0.  1.
    9000002   -1    0    0    0    0 -0.00000000000E+00 -0.00000000000E+00  0.00000000000E+00  0.93800000000E+00  0.93800000000E+00 0.  1.
         11    1    1    2    0    0 -0.11902490036E-01 -0.16444951499E+00  0.11678451822E+01  0.11794269553E+01  0.51100000000E-03 0.  1.
    9000002    1    1    2    0    0  0.29099634881E-01  0.52871857490E+00  0.19294284028E+00  0.10942856390E+01  0.93800000000E+00 0.  1.
         22    1    1    2    0    0 -0.17197144845E-01 -0.36426905990E+00  0.26392119449E+01  0.26642874056E+01  0.00000000000E+00 0.  1.
</event>
<event>
 5    1  0.3005426E+001  0.1556363E+01  0.7818608E-02  0.3402132E+00
         11   -1    0    0    0    0  0.00000000000E+00  0.00000000000E+00  0.39999999674E+01  0.40000000000E+01  0.51100000000E-03 0. -1.
    9000002   -1    0    0    0    0 -0.00000000000E+00 -0.00000000000E+00  0.00000000000E+00  0.93800000000E+00  0.93800000000E+00 0.  1.
         11    1    1    2    0    0  0.10679048158E+00 -0.80517388231E-01  0.41791205237E+00  0.43879152385E+00  0.51100000000E-03 0. -1.
    9000002    1    1    2    0    0  0.73623564556E-01 -0.22847157913E+00  0.71966612768E-01  0.97089797872E+00  0.93800000000E+00 0.  1.
         22    1    1    2    0    0 -0.18041404613E+00  0.30898896736E+00  0.35101213022E+01  0.35283104974E+01  0.00000000000E+00 0. -1.
</event>
<event>
 5    1  0.3005426E+001  0.1599673E+01  0.7818608E-02  0.3353718E+00
         11   -1    0    0    0    0  0.00000000000E+00  0.00000000000E+00  0.39999999674E+01  0.40000000000E+01  0.51100000000E-03 0.  1.
    9000002   -1    0    0    0    0 -0.00000000000E+00 -0.00000000000E+00  0.00000000000E+00  0.93800000000E+00  0.93800000000E+00 0. -1.
         11    1    1    2    0    0  0.12035228602E+00 -0.20809960418E+00  0.11387576555E+01  0.11638553935E+01  0.51100000000E-03 0.  1.
    9000002    1    1    2    0    0 -0.38296324165E+00  0.64997483519E+00  0.41313535063E+00  0.12726558642E+01  0.93800000000E+00 0. -1.
         22    1    1    2    0    0  0.26261095563E+00 -0.44187523101E+00  0.24481069612E+01  0.25014887422E+01  0.00000000000E+00 0.  1.
</event>
<event>
 5    1  0.3005426E+001  0.1586405E+01  0.7818608E-02  0.3368253E+00
         11   -1    0    0    0    0  0.00000000000E+00  0.00000000000E+00  0.39999999674E+01  0.40000000000E+01  0.51100000000E-03 0. -1.
    9000002   -1    0    0    0    0 -0.00000000000E+00 -0.00000000000E+00  0.00000000000E+00  0.93800000000E+00  0.93800000000E+00 0. -1.
         11    1    1    2    0    0  0.31316374002E-01  0.62718977534E-01  0.29312669124E+00  0.30139327077E+00  0.51100000000E-03 0. -1.
    9000002    1    1    2    0    0  0.28585541129E+00 -0.15875708298E+00  0.82131970415E-01  0.99674810666E+00  0.93800000000E+00 0. -1.
         22    1    1    2    0    0 -0.31717178529E+00  0.96038105448E-01  0.36247413057E+01  0.36398586226E+01  0.00000000000E+00 0. -1.
</event>
<event>
 5    1  0.3005426E+001  0.1599677E+01  0.7818608E-02  0.3353714E+00
         11   -1    0    0    0    0  0.00000000000E+00  0.00000000000E+00  0.39999999674E+01  0.40000000000E+01  0.51100000000E-03 0.  1.
    9000002   -1    0    0    0    0 -0.00000000000E+00 -0.00000000000E+00  0.00000000000E+00  0.93800000000E+00  0.93800000000E+00 0.  1.
         11    1    1    2    0    0  0.80193373187E-01  0.11797601472E+00  0.12761537282E+01  0.12841019883E+01  0.51100000000E-03 0.  1.
    9000002    1    1    2    0    0 -0.24325139121E+00 -0.35901989105E+00  0.12743124029E+00  0.10412248760E+01  0.93800000000E+00 0.  1.
         22    1    1    2    0    0  0.16305801802E+00  0.24104387633E+00  0.25964149988E+01  0.26126731357E+01  0.00000000000E+00 0.  1.
</event>
<event>
 5    1  0.3005426E+001  0.1595107E+01  0.7818608E-02  0.3358692E+00
         11   -1    0    0    0    0  0.00000000000E+00  0.00000000000E+00  0.39999999674E+01  0.40000000000E+01  0.51100000000E-03 0. -1.
    9000002   -1    0    0    0    0 -0.00000000000E+00 -0.00000000000E+00  0.00000000000E+00  0.93800000000E+00  0.93800000000E+00 0.  1.
         11    1    1    2    0    0 -0.56511678317E-02  0.22267776957E-01  0.10250479873E+00  0.10504896226E+00  0.51100000000E-03 0. -1.
    9000002    1    1    2    0    0 -0.38614486012E+00 -0.56523649949E-01  0.10639140076E+00  0.10215017896E+01  0.93800000000E+00 0.  1.
         22    1    1    2    0    0  0.39179602795E+00  0.34255872993E-01  0.37911037679E+01  0.38114492481E+01  0.00000000000E+00 0. -1.
</event>
<event>
 5    1  0.3005426E+001  0.1599653E+01  0.7818608E-02  0.3353740E+00
         11   -1    0    0    0    0  0.00000000000E+00  0.00000000000E+00  0.39999999674E+01  0.40000000000E+01  0.51100000000E-03 0. -1.
    9000002   -1    0    0    0    0 -0.00000000000E+00 -0.00000000000E+00  0.00000000000E+00  0.93800000000E+00  0.93800000000E+00 0.  1.
         11    1    1    2    0    0 -0.15181897687E+00 -0.52875344452E-01  0.14413300306E+01  0.14502680174E+01  0.51100000000E-03 0. -1.
    9000002    1    1    2    0    0  0.41373187092E+00  0.12805036394E+00  0.12710520934E+00  0.10409470164E+01  0.93800000000E+00 0.  1.
         22    1    1    2    0    0 -0.26191289405E+00 -0.75175019485E-01  0.24315647274E+01  0.24467849662E+01  0.00000000000E+00 0. -1.
</event>
<event>
 5    1  0.3005426E+001  0.1464895E+01  0.7818608E-02  0.3514460E+00
         11   -1    0    0    0    0  0.00000000000E+00  0.00000000000E+00  0.39999999674E+01  0.40000000000E+01  0.51100000000E-03 0. -1.
    9000002   -1    0    0    0    0 -0.00000000000E+00 -0.00000000000E+00  0.00000000000E+00  0.93800000000E+00  0.93800000000E+00 0.  1.
         11    1    1    2    0    0  0.15035624996E+00  0.36069902683E+00  0.64979809458E+00  0.75825366118E+00  0.51100000000E-03 0. -1.
    9000002    1    1    2    0    0  0.23548741855E-01 -0.77393310540E-01  0.13935766434E+00  0.95173989428E+00  0.93800000000E+00 0.  1.
         22    1    1    2    0    0 -0.17390499181E+00 -0.28330571629E+00  0.32108442084E+01  0.32280064445E+01  0.00000000000E+00 0. -1.
</event>
<event>
 5    1  0.3005426E+001  0.1599669E+01  0.7818608E-02  0.3353722E+00
         11   -1    0    0    0    0  0.00000000000E+00  0.00000000000E+00  0.39999999674E+01  0.40000000000E+01  0.51100000000E-03 0. -1.
    9000002   -1    0    0    0    0 -0.00000000000E+00 -0.00000000000E+00  0.00000000000E+00  0.93800000000E+00  0.93800000000E+00 0. -1.
         11    1    1    2    0    0 -0.48056348239E-01  0.64858023023E-01  0.82391048559E+00  0.82785549774E+00  0.51100000000E-03 0. -1.
    9000002    1    1    2    0    0  0.21819879319E+00 -0.31574678924E+00  0.99166067598E-01  0.10183244361E+01  0.93800000000E+00 0. -1.
         22    1    1    2    0    0 -0.17014244495E+00  0.25088876622E+00  0.30769234142E+01  0.30918200661E+01  0.00000000000E+00 0. -1.
</event>
<event>
 5    1  0.3005426E+001  0.1599677E+01  0.7818608E-02  0.3353714E+00
         11   -1    0    0    0    0  0.00000000000E+00  0.00000000000E+00  0.39999999674E+01  0.40000000000E+01  0.51100000000E-03 0.  1.
    9000002   -1    0    0    0    0 -0.00000000000E+00 -0.00000000000E+00  0.00000000000E+00  0.93800000000E+00  0.93800000000E+00 0. -1.
         11    1    1    2    0    0 -0.32943855193E+00  0.10498180645E+00  0.12955335625E+01  0.13408797157E+01  0.51100000000E-03 0. -1.
    9000002    1    1    2    0    0  0.85859198610E+00 -0.27215525382E+00  0.62113253548E+00  0.14411447906E+01  0.93800000000E+00 0. -1.
         22    1    1    2    0    0 -0.52915343417E+00  0.16717344736E+00  0.20833338693E+01  0.21559754937E+01  0.00000000000E+00 0.  1.
</event>
<event>
 5    1  0.3005426E+001  0.1559913E+01  0.7818608E-02  0.3398056E+00
         11   -1    0    0    0    0  0.00000000000E+00  0.00000000000E+00  0.39999999674E+01  0.40000000000E+01  0.51100000000E-03 0.  1.
    9000002   -1    0    0    0    0 -0.00000000000E+00 -0.00000000000E+00  0.00000000000E+00  0.93800000000E+00  0.93800000000E+00 0.  1.
         11    1    1    2    0    0 -0.70154274515E-01 -0.54904129912E-01  0.14864154004E+01  0.14890826335E+01  0.51100000000E-03 0.  1.
    9000002    1    1    2    0    0  0.13020781295E+00  0.70853493915E+00  0.42036908834E+00  0.12552011811E+01  0.93800000000E+00 0.  1.
         22    1    1    2    0    0 -0.60053538437E-01 -0.65363080924E+00  0.20932154786E+01  0.21937161854E+01  0.00000000000E+00 0.  1.
</event>
<event>
 5    1  0.3005426E+001  0.1599673E+01  0.7818608E-02  0.3353718E+00
         11   -1    0    0    0    0  0.00000000000E+00  0.00000000000E+00  0.39999999674E+01  0.40000000000E+01  0.51100000000E-03 0. -1.
    9000002   -1    0    0    0    0 -0.00000000000E+00 -0.00000000000E+00  0.00000000000E+00  0.93800000000E+00  0.93800000000E+00 0.  1.
         11    1    1    2    0    0 -0.12952575372E+00  0.12292522386E-01  0.10345389687E+01  0.10426884319E+01  0.51100000000E-03 0. -1.
    9000002    1    1    2    0    0  0.48209239719E+00 -0.53063599628E-01  0.16063329792E+00  0.10681179155E+01  0.93800000000E+00 0.  1.
         22    1    1    2    0    0 -0.35256664347E+00  0.40771077242E-01  0.28048277007E+01  0.28271936526E+01  0.00000000000E+00 0. -1.
</event>
<event>
 5    1  0.3005426E+001  0.1583234E+01  0.7818608E-02  0.3371764E+00
         11   -1    0    0    0    0  0.00000000000E+00  0.00000000000E+00  0.39999999674E+01  0.40000000000E+01  0.51100000000E-03 0.  1.
    9000002   -1    0    0    0    0 -0.00000000000E+00 -0.00000000000E+00  0.00000000000E+00  0.93800000000E+00  0.93800000000E+00 0. -1.
         11    1    1    2    0    0 -0.11515661654E+00 -0.57399053026E-01  0.13939165136E+01  0.13998425646E+01  0.51100000000E-03 0.  1.
    9000002    1    1    2    0    0 -0.20891127430E-01  0.39123844095E+00  0.11716488295E+00  0.10232671043E+01  0.93800000000E+00 0. -1.
         22    1    1    2    0    0  0.13604774397E+00 -0.33383938793E+00  0.24889185708E+01  0.25148903312E+01  0.00000000000E+00 0.  1.
</event>
<event>
 5    1  0.3005426E+001  0.1598119E+01  0.7818608E-02  0.3355407E+00
         11   -1    0    0    0    0  0.00000000000E+00  0.00000000000E+00  0.39999999674E+01  0.40000000000E+01  0.51100000000E-03 0.  1.
    9000002   -1    0    0    0    0 -0.00000000000E+00 -0.00000000000E+00  0.00000000000E+00  0.93800000000E+00  0.93800000000E+00 0.  1.
         11    1    1    2    0    0  0.20166898324E-01 -0.42741953174E-01  0.28655589504E+00  0.29042747882E+00  0.51100000000E-03 0.  1.
    9000002    1    1    2    0    0 -0.31155463360E+00  0.24438949099E+00  0.10699901673E+00  0.10237603736E+01  0.93800000000E+00 0.  1.
         22    1    1    2    0    0  0.29138773528E+00 -0.20164753782E+00  0.36064450556E+01  0.36238121476E+01  0.00000000000E+00 0.  1.
</event>
<event>
 5    1  0.3005426E+001  0.1599662E+01  0.7818608E-02  0.3353730E+00
         11   -1    0    0    0    0  0.00000000000E+00  0.00000000000E+00  0.39999999674E+01  0.40000000000E+01  0.51100000000E-03 0.  1.
    9000002   -1    0    0    0    0 -0.00000000000E+00 -0.00000000000E+00  0.00000000000E+00  0.93800000000E+00  0.93800000000E+00 0. -1.
         11    1    1    2    0    0  0.17258310114E+00  0.77000758507E-01  0.12404492720E+01  0.12547624082E+01  0.51100000000E-03 0.  1.
    9000002    1    1    2    0    0 -0.52270931143E+00 -0.24700632188E+00  0.23215118410E+00  0.11260441020E+01  0.93800000000E+00 0. -1.
         22    1    1    2    0    0  0.35012621028E+00  0.17000556337E+00  0.25273995113E+01  0.25571934898E+01  0.00000000000E+00 0.  1.
</event>
<event>
 5    1  0.3005426E+001  0.1599671E+01  0.7818608E-02  0.3353721E+00
         11   -1    0    0    0    0  0.00000000000E+00  0.00000000000E+00  0.39999999674E+01  0.40000000000E+01  0.51100000000E-03 0. -1.
    9000002   -1    0    0    0    0 -0.00000000000E+00 -0.00000000000E+00  0.00000000000E+00  0.93800000000E+00  0.93800000000E+00 0. -1.
         11    1    1    2    0    0 -0.65269879797E-01 -0.92413120265E-01  0.10045445232E+01  0.10108957920E+01  0.51100000000E-03 0. -1.
    9000002    1    1    2    0    0  0.25216170964E+00  0.34626852566E+00  0.12424137329E+00  0.10386372507E+01  0.93800000000E+00 0. -1.
         22    1    1    2    0    0 -0.18689182984E+00 -0.25385540540E+00  0.28712140708E+01  0.28884669573E+01  0.00000000000E+00 0. -1.
</event>
<event>
 5    1  0.3005426E+001  0.1599574E+01  0.7818608E-02  0.3353826E+00
         11   -1    0    0    0    0  0.00000000000E+00  0.00000000000E+00  0.39999999674E+01  0.40000000000E+01  0.51100000000E-03 0. -1.
    9000002   -1    0    0    0    0 -0.00000000000E+00 -0.00000000000E+00  0.00000000000E+00  0.93800000000E+00  0.93800000000E+00 0.  1.
         11    1    1    2    0    0  0.21675692482E-01 -0.25411555082E-01  0.27214870920E+00  0.27419110820E+00  0.51100000000E-03 0. -1.
    9000002    1    1    2    0    0 -0.31965192080E+00  0.27412958786E+00  0.12002996799E+00  0.10351693459E+01  0.93800000000E+00 0.  1.
         22    1    1    2    0    0  0.29797622832E+00 -0.24871803278E+00  0.36078212902E+01  0.36286395459E+01  0.00000000000E+00 0. -1.
</event>
<event>
 5    1  0.3005426E+001  0.1599046E+01  0.7818608E-02  0.3354399E+00
         11   -1    0    0    0    0  0.00000000000E+00  0.00000000000E+00  0.39999999674E+01  0.40000000000E+01  0.51100000000E-03 0. -1.
    9000002   -1    0    0    0    0 -0.00000000000E+00 -0.00000000000E+00  0.00000000000E+00  0.93800000000E+00  0.93800000000E+00 0.  1.
         11    1    1    2    0    0 -0.11798188032E-01 -0.39002402701E-01  0.65468619017E+00  0.65595324024E+00  0.51100000000E-03 0. -1.
    9000002    1    1    2    0    0  0.19787981605E+00  0.27930633132E+00  0.79002288355E-01  0.10016255837E+01  0.93800000000E+00 0.  1.
         22    1    1    2    0    0 -0.18608162802E+00 -0.24030392862E+00  0.32663114888E+01  0.32804211761E+01  0.00000000000E+00 0. -1.
</event>
<event>
 5    1  0.3005426E+001  0.1599671E+01  0.7818608E-02  0.3353721E+00
         11   -1    0    0    0    0  0.00000000000E+00  0.00000000000E+00  0.39999999674E+01  0.40000000000E+01  0.51100000000E-03 0. -1.
    9000002   -1    0    0    0    0 -0.00000000000E+00 -0.00000000000E+00  0.00000000000E+00  0.93800000000E+00  0.93800000000E+00 0. -1.
         11    1    1    2    0    0  0.12796251038E+00  0.55884886747E-02  0.95794157461E+00  0.96646673857E+00  0.51100000000E-03 0. -1.
    9000002    1    1    2    0    0 -0.50677866191E+00 -0.12730175648E-01  0.17613431570E+00  0.10806729231E+01  0.93800000000E+00 0. -1.
         22    1    1    2    0    0  0.37881615153E+00  0.71416869731E-02  0.28659240770E+01  0.28908603383E+01  0.00000000000E+00 0. -1.
</event>
<event>
 5    1  0.3005426E+001  0.1599644E+01  0.7818608E-02  0.3353750E+00
         11   -1    0    0    0    0  0.00000000000E+00  0.00000000000E+00  0.39999999674E+01  0.40000000000E+01  0.51100000000E-03 0. -1.
    9000002   -1    0    0    0    0 -0.00000000000E+00 -0.00000000000E+00  0.00000000000E+00  0.93800000000E+00  0.93800000000E+00 0. -1.
         11    1    1    2    0    0 -0.23809092414E-01  0.53619767948E-01  0.34200632205E+00  0.34700221590E+00  0.51100000000E-03 0. -1.
    9000002    1    1    2    0    0  0.23897145638E+00 -0.54976273856E+00  0.25071915164E+00  0.11410742827E+01  0.93800000000E+00 0. -1.
         22    1    1    2    0    0 -0.21516236397E+00  0.49614297062E+00  0.34072744937E+01  0.34499235014E+01  0.00000000000E+00 0. -1.
</event>
<event>
 5    1  0.3005426E+001  0.1583996E+01  0.7818608E-02  0.3370919E+00
         11   -1    0    0    0    0  0.00000000000E+00  0.00000000000E+00  0.39999999674E+01  0.40000000000E+01  0.51100000000E-03 0. -1.
    9000002   -1    0    0    0    0 -0.00000000000E+00 -0.00000000000E+00  0.00000000000E+00  0.93800000000E+00  0.93800000000E+00 0. -1.
         11    1    1    2    0    0 -0.44535052538E-01 -0.43122046348E-01  0.19040543550E+00  0.20024328397E+00  0.51100000000E-03 0. -1.
    9000002    1    1    2    0    0 -0.39967090873E+00  0.53050033554E+00  0.32938073868E+00  0.11956182971E+01  0.93800000000E+00 0. -1.
         22    1    1    2    0    0  0.44420596126E+00 -0.48737828920E+00  0.34802137932E+01  0.35421384189E+01  0.00000000000E+00 0. -1.
</event>
<event>
 5    1  0.3005426E+001  0.1599611E+01  0.7818608E-02  0.3353785E+00
         11   -1    0    0    0    0  0.00000000000E+00  0.00000000000E+00  0.39999999674E+01  0.40000000000E+01  0.51100000000E-03 0.  1.
    9000002   -1    0    0    0    0 -0.00000000000E+00 -0.00000000000E+00  0.00000000000E+00  0.93800000000E+00  0.93800000000E+00 0. -1.
         11    1    1    2    0    0 -0.28494361984E-01  0.14569821622E+00  0.12707312715E+01  0.12793741143E+01  0.51100000000E-03 0.  1.
    9000002    1    1    2    0    0  0.10231542705E+00 -0.42074143966E+00  0.12708580675E+00  0.10409066279E+01  0.93800000000E+00 0. -1.
         22    1    1    2    0    0 -0.73821065070E-01  0.27504322343E+00  0.26021828891E+01  0.26177192579E+01  0.00000000000E+00 0.  1.
</event>
<event>
 5    1  0.3005426E+001  0.1599633E+01  0.7818608E-02  0.3353762E+00
         11   -1    0    0    0    0  0.00000000000E+00  0.00000000000E+00  0.39999999674E+01  0.40000000000E+01  0.51100000000E-03 0.  1.
    9000002   -1    0    0    0    0 -0.00000000000E+00 -0.00000000000E+00  0.00000000000E+00  0.93800000000E+00  0.93800000000E+00 0.  1.
         11    1    1    2    0    0 -0.76298600263E-01  0.74959286126E-01  0.88538771536E+00  0.89182511661E+00  0.51100000000E-03 0.  1.
    9000002    1    1    2    0    0  0.30385609653E+00 -0.33098711910E+00  0.13713840573E+00  0.10490624113E+01  0.93800000000E+00 0.  1.
         22    1    1    2    0    0 -0.22755749627E+00  0.25602783297E+00  0.29774738463E+01  0.29971124721E+01  0.00000000000E+00 0.  1.
</event>
<event>
 5    1  0.3005426E+001  0.1599677E+01  0.7818608E-02  0.3353714E+00
         11   -1    0    0    0    0  0.00000000000E+00  0.00000000000E+00  0.39999999674E+01  0.40000000000E+01  0.51100000000E-03 0. -1.
    9000002   -1    0    0    0    0 -0.00000000000E+00 -0.00000000000E+00  0.00000000000E+00  0.93800000000E+00  0.93800000000E+00 0. -1.
         11    1    1    2    0    0  0.56491791004E-01 -0.35459363351E-01  0.72792494790E+00  0.73097447273E+00  0.51100000000E-03 0. -1.
    9000002    1    1    2    0    0 -0.30570769340E+00  0.18869199602E+00  0.86627316063E-01  0.10081716893E+01  0.93800000000E+00 0. -1.
         22    1    1    2    0    0  0.24921590240E+00 -0.15323263267E+00  0.31854477034E+01  0.31988538380E+01  0.00000000000E+00 0. -1.
</event>
<event>
 5    1  0.3005426E+001  0.1599677E+01  0.7818608E-02  0.3353715E+00
         11   -1    0    0    0    0  0.00000000000E+00  0.00000000000E+00  0.39999999674E+01  0.40000000000E+01  0.51100000000E-03 0. -1.
    9000002   -1    0    0    0    0 -0.00000000000E+00 -0.00000000000E+00  0.00000000000E+00  0.93800000000E+00  0.93800000000E+00 0.  1.
         11    1    1    2    0    0  0.70098201586E-01  0.95564498709E-02  0.74932892476E+00  0.75266139944E+00  0.51100000000E-03 0.  1.
    9000002    1    1    2    0    0 -0.36272154147E+00 -0.50134075040E-01  0.90067297476E-01  0.10109581891E+01  0.93800000000E+00 0.  1.
         22    1    1    2    0    0  0.29262333988E+00  0.40577625169E-01  0.31606037451E+01  0.31743804114E+01  0.00000000000E+00 0. -1.
</event>
<event>
 5    1  0.3005426E+001  0.1599567E+01  0.7818608E-02  0.3353834E+00
         11   -1    0    0    0    0  0.00000000000E+00  0.00000000000E+00  0.39999999674E+01  0.40000000000E+01  0.51100000000E-03 0. -1.
    9000002   -1    0    0    0    0 -0.00000000000E+00 -0.00000000000E+00  0.00000000000E+00  0.93800000000E+00  0.93800000000E+00 0.  1.
         11    1    1    2    0    0 -0.51386509785E-01  0.15566070843E-02  0.26292661947E+00  0.26790607451E+00  0.51100000000E-03 0. -1.
    9000002    1    1    2    0    0  0.63640166733E+00 -0.46334849321E-01  0.28661297476E+00  0.11701046952E+01  0.93800000000E+00 0.  1.
         22    1    1    2    0    0 -0.58501515755E+00  0.44778242236E-01  0.34504603731E+01  0.34999892303E+01  0.00000000000E+00 0. -1.
</event>
<event>
 5    1  0.3005426E+001  0.1598440E+01  0.7818608E-02  0.3355058E+00
         11   -1    0    0    0    0  0.00000000000E+00  0.00000000000E+00  0.39999999674E+01  0.40000000000E+01  0.51100000000E-03 0. -1.
    9000002   -1    0    0    0    0 -0.00000000000E+00 -0.00000000000E+00  0.00000000000E+00  0.93800000000E+00  0.93800000000E+00 0.  1.
         11    1    1    2    0    0  0.13845469366E+00  0.95658899393E-01  0.12336975874E+01  0.12451226146E+01  0.51100000000E-03 0. -1.
    9000002    1    1    2    0    0 -0.35239775008E+00 -0.20866776996E+00  0.11431227905E+00  0.10298726667E+01  0.93800000000E+00 0.  1.
         22    1    1    2    0    0  0.21394305641E+00  0.11300887057E+00  0.26519901009E+01  0.26630047187E+01  0.00000000000E+00 0. -1.
</event>
<event>
 5    1  0.3005426E+001  0.1584724E+01  0.7818608E-02  0.3370112E+00
         11   -1    0    0    0    0  0.00000000000E+00  0.00000000000E+00  0.39999999674E+01  0.40000000000E+01  0.51100000000E-03 0.  1.
    9000002   -1    0    0    0    0 -0.00000000000E+00 -0.00000000000E+00  0.00000000000E+00  0.93800000000E+00  0.93800000000E+00 0.  1.
         11    1    1    2    0    0 -0.20418284732E+00 -0.11371404819E+00  0.11392813453E+01  0.11630063477E+01  0.51100000000E-03 0.  1.
    9000002    1    1    2    0    0  0.48673671019E+00 -0.25748286720E-01  0.17574063493E+00  0.10715896463E+01  0.93800000000E+00 0.  1.
         22    1    1    2    0    0 -0.28255386287E+00  0.13946233491E+00  0.26849779871E+01  0.27034040060E+01  0.00000000000E+00 0.  1.
</event>
<event>
 5    1  0.3005426E+001  0.1594375E+01  0.7818608E-02  0.3359491E+00
         11   -1    0    0    0    0  0.00000000000E+00  0.00000000000E+00  0.39999999674E+01  0.40000000000E+01  0.51100000000E-03 0. -1.
    9000002   -1    0    0    0    0 -0.00000000000E+00 -0.00000000000E+00  0.00000000000E+00  0.93800000000E+00  0.93800000000E+00 0. -1.
         11    1    1    2    0    0  0.49506622735E-01  0.39451782731E-02  0.12860921152E+00  0.13786609640E+00  0.51100000000E-03 0. -1.
    9000002    1    1    2    0    0 -0.58501344023E+00  0.33317190207E+00  0.32743099605E+00  0.12001247013E+01  0.93800000000E+00 0. -1.
         22    1    1    2    0    0  0.53550681749E+00 -0.33711708035E+00  0.35439597598E+01  0.36000092023E+01  0.00000000000E+00 0. -1.
</event>
<event>
 5    1  0.3005426E+001  0.1599438E+01  0.7818608E-02  0.3353974E+00
         11   -1    0    0    0    0  0.00000000000E+00  0.00000000000E+00  0.39999999674E+01  0.40000000000E+01  0.51100000000E-03 0.  1.
    9000002   -1    0    0    0    0 -0.00000000000E+00 -0.00000000000E+00  0.00000000000E+00  0.93800000000E+00  0.93800000000E+00 0. -1.
         11    1    1    2    0    0 -0.43029216483E-01 -0.54135204284E-01  0.51794194669E+00  0.52253828097E+00  0.51100000000E-03 0.  1.
    9000002    1    1    2    0    0  0.23109928557E+00  0.37443158297E+00  0.13150815802E+00  0.10443870383E+01  0.93800000000E+00 0. -1.
         22    1    1    2    0    0 -0.18807006908E+00 -0.32029637868E+00  0.33505498626E+01  0.33710746807E+01  0.00000000000E+00 0.  1.
</event>
<event>
 5    1  0.3005426E+001  0.1599526E+01  0.7818608E-02  0.3353878E+00
         11   -1    0    0    0    0  0.00000000000E+00  0.00000000000E+00  0.39999999674E+01  0.40000000000E+01  0.51100000000E-03 0.  1.
    9000002   -1    0    0    0    0 -0.00000000000E+00 -0.00000000000E+00  0.00000000000E+00  0.93800000000E+00  0.93800000000E+00 0. -1.
         11    1    1    2    0    0  0.14078335920E-01  0.31631430934E-01  0.26272175163E+00  0.26499382421E+00  0.51100000000E-03 0.  1.
    9000002    1    1    2    0    0 -0.16774116723E+00 -0.36580638331E+00  0.10939949951E+00  0.10265299118E+01  0.93800000000E+00 0. -1.
         22    1    1    2    0    0  0.15366283131E+00  0.33417495238E+00  0.36278787162E+01  0.36464762640E+01  0.00000000000E+00 0.  1.
</event>
<event>
 5    1  0.3005426E+001  0.1599674E+01  0.7818608E-02  0.3353718E+00
         11   -1    0    0    0    0  0.00000000000E+00  0.00000000000E+00  0.39999999674E+01  0.40000000000E+01  0.51100000000E-03 0. -1.
    9000002   -1    0    0    0    0 -0.00000000000E+00 -0.00000000000E+00  0.00000000000E+00  0.93800000000E+00  0.93800000000E+00 0. -1.
         11    1    1    2    0    0 -0.56771139613E-01  0.21679085614E-01  0.64048738811E+00  0.64336404973E+00  0.51100000000E-03 0. -1.
    9000002    1    1    2    0    0  0.33681543922E+00 -0.13198851413E+00  0.87865529343E-01  0.10091729085E+01  0.93800000000E+00 0. -1.
         22    1    1    2    0    0 -0.28004429961E+00  0.11030942851E+00  0.32716470499E+01  0.32854630418E+01  0.00000000000E+00 0. -1.
</event>
<event>
 5    1  0.3005426E+001  0.1556775E+01  0.7818608E-02  0.3401658E+00
         11   -1    0    0    0    0  0.00000000000E+00  0.00000000000E+00  0.39999999674E+01  0.40000000000E+01  0.51100000000E-03 0. -1.
    9000002   -1    0    0    0    0 -0.00000000000E+00 -0.00000000000E+00  0.00000000000E+00  0.93800000000E+00  0.93800000000E+00 0. -1.
         11    1    1    2    0    0  0.20394690890E+00 -0.16282993258E+00  0.12288619738E+01  0.12562682597E+01  0.51100000000E-03 0. -1.
    9000002    1    1    2    0    0  0.84993882123E-01  0.42346430658E+00  0.16386592598E+00  0.10455821444E+01  0.93800000000E+00 0. -1.
         22    1    1    2    0    0 -0.28894079102E+00 -0.26063437401E+00  0.26072720676E+01  0.26361495959E+01  0.00000000000E+00 0. -1.
</event>
<event>
 5    1  0.3005426E+001  0.1570860E+01  0.7818608E-02  0.3385612E+00
         11   -1    0    0    0    0  0.00000000000E+00  0.00000000000E+00  0.39999999674E+01  0.40000000000E+01  0.51100000000E-03 0. -1.
    9000002   -1    0    0    0    0 -0.00000000000E+00 -0.00000000000E+00  0.00000000000E+00  0.93800000000E+00  0.93800000000E+00 0. -1.
         11    1    1    2    0    0  0.11571114682E+00 -0.53181063479E-01  0.36249686683E+00  0.38421547938E+00  0.51100000000E-03 0. -1.
    9000002    1    1    2    0    0  0.31713807032E-01  0.36606130375E+00  0.11454542870E+00  0.10138891946E+01  0.93800000000E+00 0. -1.
         22    1    1    2    0    0 -0.14742495385E+00 -0.31288024027E+00  0.35229576718E+01  0.35398953260E+01  0.00000000000E+00 0. -1.
</event>
<event>
 5    1  0.3005426E+001  0.1576251E+01  0.7818608E-02  0.3379550E+00
         11   -1    0    0    0    0  0.00000000000E+00  0.00000000000E+00  0.39999999674E+01  0.40000000000E+01  0.51100000000E-03 0.  1.
    9000002   -1    0    0    0    0 -0.00000000000E+00 -0.00000000000E+00  0.00000000000E+00  0.93800000000E+00  0.93800000000E+00 0.  1.
         11    1    1    2    0    0 -0.10799318119E+00  0.23197807904E-01  0.93895729575E+00  0.94543203343E+00  0.51100000000E-03 0.  1.
    9000002    1    1    2    0    0 -0.17433067832E+00  0.10195968183E+00  0.44782659526E-01  0.96053966535E+00  0.93800000000E+00 0.  1.
         22    1    1    2    0    0  0.28232385950E+00 -0.12515748973E+00  0.30162600121E+01  0.30320283012E+01  0.00000000000E+00 0.  1.
</event>
<event>
 5    1  0.3005426E+001  0.1581642E+01  0.7818608E-02  0.3373533E+00
         11   -1    0    0    0    0  0.00000000000E+00  0.00000000000E+00  0.39999999674E+01  0.40000000000E+01  0.51100000000E-03 0. -1.
    9000002   -1    0    0    0    0 -0.00000000000E+00 -0.00000000000E+00  0.00000000000E+00  0.93800000000E+00  0.93800000000E+00 0. -1.
         11    1    1    2    0    0 -0.25931705324E-01 -0.42395264831E-02  0.13670456064E+01  0.13672982037E+01  0.51100000000E-03 0. -1.
    9000002    1    1    2    0    0 -0.34458371811E+00  0.14873024870E+00  0.10962861346E+00  0.10162288416E+01  0.93800000000E+00 0. -1.
         22    1    1    2    0    0  0.37051542343E+00 -0.14449072221E+00  0.25233257475E+01  0.25544729546E+01  0.00000000000E+00 0. -1.
</event>
<event>
 5    1  0.3005426E+001  0.1599481E+01  0.7818608E-02  0.3353927E+00
         11   -1    0    0    0    0  0.00000000000E+00  0.00000000000E+00  0.39999999674E+01  0.40000000000E+01  0.51100000000E-03 0. -1.
    9000002   -1    0    0    0    0 -0.00000000000E+00 -0.00000000000E+00  0.00000000000E+00  0.93800000000E+00  0.93800000000E+00 0.  1.
         11    1    1    2    0    0 -0.37142002633E-03  0.29448254884E-02  0.81764148595E-01  0.81819600748E-01  0.51100000000E-03 0. -1.
    9000002    1    1    2    0    0  0.15992055265E+00 -0.32162882275E+00  0.86756878418E-01  0.10081619110E+01  0.93800000000E+00 0.  1.
         22    1    1    2    0    0 -0.15954913263E+00  0.31868399726E+00  0.38314789403E+01  0.38480184883E+01  0.00000000000E+00 0. -1.
</event>
<event>
 5    1  0.3005426E+001  0.1599667E+01  0.7818608E-02  0.3353725E+00
         11   -1    0    0    0    0  0.00000000000E+00  0.00000000000E+00  0.39999999674E+01  0.40000000000E+01  0.51100000000E-03 0. -1.
    9000002   -1    0    0    0    0 -0.00000000000E+00 -0.00000000000E+00  0.00000000000E+00  0.93800000000E+00  0.93800000000E+00 0.  1.
         11    1    1    2    0    0 -0.78896608717E-01  0.16292421181E-02  0.67029761359E+00  0.67492701916E+00  0.51100000000E-03 0. -1.
    9000002    1    1    2    0    0  0.46875339581E+00 -0.15049217086E-01  0.14982941366E+00  0.10593625811E+01  0.93800000000E+00 0.  1.
         22    1    1    2    0    0 -0.38985678709E+00  0.13419974968E-01  0.31798729401E+01  0.32037103997E+01  0.00000000000E+00 0. -1.
</event>
<event>
 5    1  0.3005426E+001  0.1599670E+01  0.7818608E-02  0.3353722E+00
         11   -1    0    0    0    0  0.00000000000E+00  0.00000000000E+00  0.39999999674E+01  0.40000000000E+01  0.51100000000E-03 0. -1.
    9000002   -1    0    0    0    0 -0.00000000000E+00 -0.00000000000E+00  0.00000000000E+00  0.93800000000E+00  0.93800000000E+00 0. -1.
         11    1    1    2    0    0  0.23403994258E-01  0.16548648686E-02  0.23668556237E+00  0.23784617314E+00  0.51100000000E-03 0. -1.
    9000002    1    1    2    0    0 -0.37611697830E+00 -0.49885542235E-01  0.96856223129E-01  0.10164534798E+01  0.93800000000E+00 0. -1.
         22    1    1    2    0    0  0.35271298405E+00  0.48230677366E-01  0.36664581819E+01  0.36837003470E+01  0.00000000000E+00 0. -1.
</event>
<event>
 5    1  0.3005426E+001  0.1523013E+01  0.7818608E-02  0.3441409E+00
         11   -1    0    0    0    0  0.00000000000E+00  0.00000000000E+00  0.39999999674E+01  0.40000000000E+01  0.51100000000E-03 0.  1.
    9000002   -1    0    0    0    0 -0.00000000000E+00 -0.00000000000E+00  0.00000000000E+00  0.93800000000E+00  0.93800000000E+00 0. -1.
         11    1    1    2    0    0 -0.63858572768E-01 -0.26441153949E+00  0.61594370409E+00  0.67333371166E+00  0.51100000000E-03 0.  1.
    9000002    1    1    2    0    0  0.31974172545E+00  0.10313440270E+00  0.13953195053E+00  0.10060738746E+01  0.93800000000E+00 0. -1.
         22    1    1    2    0    0 -0.25588315268E+00  0.16127713680E+00  0.32445243127E+01  0.32585924137E+01  0.00000000000E+00 0.  1.
</event>
<event>
 5    1  0.3005426E+001  0.1525959E+01  0.7818608E-02  0.3437866E+00
         11   -1    0    0    0    0  0.00000000000E+00  0.00000000000E+00  0.39999999674E+01  0.40000000000E+01  0.51100000000E-03 0.  1.
    9000002   -1    0    0    0    0 -0.00000000000E+00 -0.00000000000E+00  0.00000000000E+00  0.93800000000E+00  0.93800000000E+00 0. -1.
         11    1    1    2    0    0 -0.65209841001E-01  0.10815527517E+00  0.20763426372E+00  0.24302702628E+00  0.51100000000E-03 0.  1.
    9000002    1    1    2    0    0  0.10795171982E+00  0.59897492085E+00  0.33714496668E+00  0.11678763882E+01  0.93800000000E+00 0. -1.
         22    1    1    2    0    0 -0.42741878820E-01 -0.70713019601E+00  0.34552207370E+01  0.35270965855E+01  0.00000000000E+00 0.  1.
</event>
<event>
 5    1  0.3005426E+001  0.1599670E+01  0.7818608E-02  0.3353722E+00
         11   -1    0    0    0    0  0.00000000000E+00  0.00000000000E+00  0.39999999674E+01  0.40000000000E+01  0.51100000000E-03 0.  1.
    9000002   -1    0    0    0    0 -0.00000000000E+00 -0.00000000000E+00  0.00000000000E+00  0.93800000000E+00  0.93800000000E+00 0. -1.
         11    1    1    2    0    0  0.32170660535E-02 -0.10482466018E-01  0.99498005291E-01  0.10010167724E+00  0.51100000000E-03 0.  1.
    9000002    1    1    2    0    0 -0.15407078411E+00  0.38750447177E+00  0.11756635807E+00  0.10332295828E+01  0.93800000000E+00 0. -1.
         22    1    1    2    0    0  0.15085371805E+00 -0.37702200575E+00  0.37829356040E+01  0.38046687400E+01  0.00000000000E+00 0.  1.
</event>
<event>
 5    1  0.3005426E+001  0.1599672E+01  0.7818608E-02  0.3353719E+00
         11   -1    0    0    0    0  0.00000000000E+00  0.00000000000E+00  0.39999999674E+01  0.40000000000E+01  0.51100000000E-03 0.  1.
    9000002   -1    0    0    0    0 -0.00000000000E+00 -0.00000000000E+00  0.00000000000E+00  0.93800000000E+00  0.93800000000E+00 0. -1.
         11    1    1    2    0    0  0.95315190340E-01  0.47119982861E-01  0.10447760303E+01  0.10501726015E+01  0.51100000000E-03 0.  1.
    9000002    1    1    2    0    0 -0.34937958007E+00 -0.16949954875E+00  0.10156943075E+00  0.10202727759E+01  0.93800000000E+00 0. -1.
         22    1    1    2    0    0  0.25406438973E+00  0.12237956589E+00  0.28536545063E+01  0.28675546226E+01  0.00000000000E+00 0.  1.
</event>
<event>
 5    1  0.3005426E+001  0.1599579E+01  0.7818608E-02  0.3353821E+00
         11   -1    0    0    0    0  0.00000000000E+00  0.00000000000E+00  0.39999999674E+01  0.40000000000E+01  0.51100000000E-03 0. -1.
    9000002   -1    0    0    0    0 -0.00000000000E+00 -0.00000000000E+00  0.00000000000E+00  0.93800000000E+00  0.93800000000E+00 0. -1.
         11    1    1    2    0    0  0.19511569616E-01 -0.31293960867E-01  0.21704627639E+00  0.22015758118E+00  0.51100000000E-03 0. -1.
    9000002    1    1    2    0    0 -0.42524745693E+00  0.53192340371E+00  0.32990511261E+00  0.12051801900E+01  0.93800000000E+00 0. -1.
         22    1    1    2    0    0  0.40573588731E+00 -0.50062944284E+00  0.34530485784E+01  0.35126622288E+01  0.00000000000E+00 0. -1.
</event>
<event>
 5    1  0.3005426E+001  0.1599672E+01  0.7818608E-02  0.3353720E+00
         11   -1    0    0    0    0  0.00000000000E+00  0.00000000000E+00  0.39999999674E+01  0.40000000000E+01  0.51100000000E-03 0. -1.
    9000002   -1    0    0    0    0 -0.00000000000E+00 -0.00000000000E+00  0.00000000000E+00  0.93800000000E+00  0.93800000000E+00 0. -1.
         11    1    1    2    0    0 -0.10121047259E+00  0.12032369756E+00  0.10114842961E+01  0.10236318158E+01  0.51100000000E-03 0. -1.
    9000002    1    1    2    0    0  0.37733434005E+00 -0.45593049812E+00  0.24395428634E+00  0.11356106362E+01  0.93800000000E+00 0. -1.
         22    1    1    2    0    0 -0.27612386746E+00  0.33560680055E+00  0.27445613849E+01  0.27787575480E+01  0.00000000000E+00 0. -1.
</event>
<event>
 5    1  0.3005426E+001  0.1599199E+01  0.7818608E-02  0.3354233E+00
         11   -1    0    0    0    0  0.00000000000E+00  0.00000000000E+00  0.39999999674E+01  0.40000000000E+01  0.51100000000E-03 0. -1.
    9000002   -1    0    0    0    0 -0.00000000000E+00 -0.00000000000E+00  0.00000000000E+00  0.93800000000E+00  0.93800000000E+00 0.  1.
         11    1    1    2    0    0 -0.86734272068E-01  0.15730324932E+00  0.11833005065E+01  0.11968573416E+01  0.51100000000E-03 0. -1.
    9000002    1    1    2    0    0  0.24268667262E+00 -0.43905284220E+00  0.17275724813E+00  0.10776610256E+01  0.93800000000E+00 0.  1.
         22    1    1    2    0    0 -0.15595240055E+00  0.28174959288E+00  0.26439422127E+01  0.26634816328E+01  0.00000000000E+00 0. -1.
</event>
<event>
 5    1  0.3005426E+001  0.1599676E+01  0.7818608E-02  0.3353715E+00
         11   -1    0    0    0    0  0.00000000000E+00  0.00000000000E+00  0.39999999674E+01  0.40000000000E+01  0.51100000000E-03 0.  1.
    9000002   -1    0    0    0    0 -0.00000000000E+00 -0.00000000000E+00  0.00000000000E+00  0.93800000000E+00  0.93800000000E+00 0. -1.
         11    1    1    2    0    0 -0.40077853697E-01  0.68723698445E-01  0.68710059822E+00  0.69169116973E+00  0.51100000000E-03 0.  1.
    9000002    1    1    2    0    0  0.22101289930E+00 -0.38923255513E+00  0.13602670179E+00  0.10481869810E+01  0.93800000000E+00 0. -1.
         22    1    1    2    0    0 -0.18093504560E+00  0.32050885668E+00  0.31768726674E+01  0.31981218492E+01  0.00000000000E+00 0.  1.
</event>
<event>
 5    1  0.3005426E+001  0.1599647E+01  0.7818608E-02  0.3353747E+00
         11   -1    0    0    0    0  0.00000000000E+00  0.00000000000E+00  0.39999999674E+01  0.40000000000E+01  0.51100000000E-03 0.  1.
    9000002   -1    0    0    0    0 -0.00000000000E+00 -0.00000000000E+00  0.00000000000E+00  0.93800000000E+00  0.93800000000E+00 0.  1.
         11    1    1    2    0    0  0.32882621559E-01  0.98246842702E-01  0.84071017099E+00  0.84706998626E+00  0.51100000000E-03 0.  1.
    9000002    1    1    2    0    0 -0.12950328632E+00 -0.46273688768E+00  0.15758457713E+00  0.10656328764E+01  0.93800000000E+00 0.  1.
         22    1    1    2    0    0  0.96620664765E-01  0.36449004498E+00  0.30017052192E+01  0.30252971373E+01  0.00000000000E+00 0.  1.
</event>
<event>
 5    1  0.3005426E+001  0.1599666E+01  0.7818608E-02  0.3353725E+00
         11   -1    0    0    0    0  0.00000000000E+00  0.00000000000E+00  0.39999999674E+01  0.40000000000E+01  0.51100000000E-03 0. -1.
    9000002   -1    0    0    0    0 -0.00000000000E+00 -0.00000000000E+00  0.00000000000E+00  0.93800000000E+00  0.93800000000E+00 0. -1.
         11    1    1    2    0    0  0.94327833583E-01  0.58889379261E-01  0.59183934036E+00  0.60219578635E+00  0.51100000000E-03 0. -1.
    9000002    1    1    2    0    0 -0.56942076439E+00 -0.37377648653E+00  0.32994146459E+00  0.12052610667E+01  0.93800000000E+00 0. -1.
         22    1    1    2    0    0  0.47509293080E+00  0.31488710727E+00  0.30782191624E+01  0.31305431470E+01  0.00000000000E+00 0. -1.
</event>
<event>
 5    1  0.3005426E+001  0.1599148E+01  0.7818608E-02  0.3354288E+00
         11   -1    0    0    0    0  0.00000000000E+00  0.00000000000E+00  0.39999999674E+01  0.40000000000E+01  0.51100000000E-03 0.  1.
    9000002   -1    0    0    0    0 -0.00000000000E+00 -0.00000000000E+00  0.00000000000E+00  0.93800000000E+00  0.93800000000E+00 0.  1.
         11    1    1    2    0    0  0.85166238316E-01 -0.30514134615E-01  0.71604518771E+00  0.72173774497E+00  0.51100000000E-03 0.  1.
    9000002    1    1    2    0    0 -0.35617494228E+00  0.21498535696E+00  0.11743667523E+00  0.10328187963E+01  0.93800000000E+00 0.  1.
         22    1    1    2    0    0  0.27100870397E+00 -0.18447122235E+00  0.31665181044E+01  0.31834434588E+01  0.00000000000E+00 0.  1.
</event>
<event>
 5    1  0.3005426E+001  0.1599676E+01  0.7818608E-02  0.3353715E+00
         11   -1    0    0    0    0  0.00000000000E+00  0.00000000000E+00  0.39999999674E+01  0.40000000000E+01  0.51100000000E-03 0. -1.
    9000002   -1    0    0    0    0 -0.00000000000E+00 -0.00000000000E+00  0.00000000000E+00  0.93800000000E+00  0.93800000000E+00 0. -1.
         11    1    1    2    0    0 -0.41364105113E-01 -0.13628511799E+00  0.13626657870E+01  0.13700886580E+01  0.51100000000E-03 0. -1.
    9000002    1    1    2    0    0  0.11570907135E+00  0.39079404742E+00  0.11215430870E+00  0.10288494378E+01  0.93800000000E+00 0. -1.
         22    1    1    2    0    0 -0.74344966240E-01 -0.25450892944E+00  0.25251798716E+01  0.25390619042E+01  0.00000000000E+00 0. -1.
</event>
<event>
 5    1  0.3005426E+001  0.1596724E+01  0.7818608E-02  0.3356927E+00
         11   -1    0    0    0    0  0.00000000000E+00  0.00000000000E+00  0.39999999674E+01  0.40000000000E+01  0.51100000000E-03 0. -1.
    9000002   -1    0    0    0    0 -0.00000000000E+00 -0.00000000000E+00  0.00000000000E+00  0.93800000000E+00  0.93800000000E+00 0.  1.
         11    1    1    2    0    0  0.13495329264E+00 -0.85075510921E-01  0.93352965712E+00  0.94706288893E+00  0.51100000000E-03 0. -1.
    9000002    1    1    2    0    0 -0.32565158432E+00  0.32572019915E+00  0.14688917941E+00  0.10552549614E+01  0.93800000000E+00 0.  1.
         22    1    1    2    0    0  0.19069829168E+00 -0.24064468823E+00  0.29195811308E+01  0.29356821497E+01  0.00000000000E+00 0. -1.
</event>
<event>
 5    1  0.3005426E+001  0.1599673E+01  0.7818608E-02  0.3353718E+00
         11   -1    0    0    0    0  0.00000000000E+00  0.00000000000E+00  0.39999999674E+01  0.40000000000E+01  0.51100000000E-03 0. -1.
    9000002   -1    0    0    0    0 -0.00000000000E+00 -0.00000000000E+00  0.00000000000E+00  0.93800000000E+00  0.93800000000E+00 0.  1.
         11    1    1    2    0    0  0.47637078053E-01  0.50632746657E-01  0.54313698571E+00  0.54756827210E+00  0.51100000000E-03 0. -1.
    9000002    1    1    2    0    0 -0.32577027477E+00 -0.35498870447E+00  0.15844509148E+00  0.10663452064E+01  0.93800000000E+00 0.  1.
         22    1    1    2    0    0  0.27813319672E+00  0.30435595782E+00  0.32984178902E+01  0.33240865215E+01  0.00000000000E+00 0. -1.
</event>
<event>
 5    1  0.3005426E+001  0.1599079E+01  0.7818608E-02  0.3354364E+00
         11   -1    0    0    0    0  0.00000000000E+00  0.00000000000E+00  0.39999999674E+01  0.40000000000E+01  0.51100000000E-03 0.  1.
    9000002   -1    0    0    0    0 -0.00000000000E+00 -0.00000000000E+00  0.00000000000E+00  0.93800000000E+00  0.93800000000E+00 0.  1.
         11    1    1    2    0    0  0.82366507879E-01 -0.19269847538E-01  0.90057357259E+00  0.90453777667E+00  0.51100000000E-03 0.  1.
    9000002    1    1    2    0    0 -0.45639152332E+00  0.55754199162E-01  0.14431152586E+00  0.10545480405E+01  0.93800000000E+00 0.  1.
         22    1    1    2    0    0  0.37402501544E+00 -0.36484351624E-01  0.29551148689E+01  0.29789141828E+01  0.00000000000E+00 0.  1.
</event>
<event>
 5    1  0.3005426E+001  0.1599675E+01  0.7818608E-02  0.3353717E+00
         11   -1    0    0    0    0  0.00000000000E+00  0.00000000000E+00  0.39999999674E+01  0.40000000000E+01  0.51100000000E-03 0.  1.
    9000002   -1    0    0    0    0 -0.00000000000E+00 -0.00000000000E+00  0.00000000000E+00  0.93800000000E+00  0.93800000000E+00 0.  1.
         11    1    1    2    0    0 -0.48939320274E-01  0.75641697865E-01  0.93019588717E+00  0.93454875376E+00  0.51100000000E-03 0.  1.
    9000002    1    1    2    0    0  0.20973339703E+00 -0.31252145665E+00  0.95273433387E-01  0.10151742638E+01  0.93800000000E+00 0.  1.
         22    1    1    2    0    0 -0.16079407676E+00  0.23687975878E+00  0.29745306468E+01  0.29882769825E+01  0.00000000000E+00 0.  1.
</event>
<event>
 5    1  0.3005426E+001  0.1596438E+01  0.7818608E-02  0.3357239E+00
         11   -1    0    0    0    0  0.00000000000E+00  0.00000000000E+00  0.39999999674E+01  0.40000000000E+01  0.51100000000E-03 0. -1.
    9000002   -1    0    0    0    0 -0.00000000000E+00 -0.00000000000E+00  0.00000000000E+00  0.93800000000E+00  0.93800000000E+00 0.  1.
         11    1    1    2    0    0 -0.11368299432E-01  0.99953012367E-02  0.15918046780E+00  0.15989942692E+00  0.51100000000E-03 0. -1.
    9000002    1    1    2    0    0  0.10864821292E+00  0.39670200910E+00  0.11700340086E+00  0.10308786126E+01  0.93800000000E+00 0.  1.
         22    1    1    2    0    0 -0.97279913483E-01 -0.40669731034E+00  0.37238160987E+01  0.37472219604E+01  0.00000000000E+00 0. -1.
</event>
<event>
 5    1  0.3005426E+001  0.1599345E+01  0.7818608E-02  0.3354074E+00
         11   -1    0    0    0    0  0.00000000000E+00  0.00000000000E+00  0.39999999674E+01  0.40000000000E+01  0.51100000000E-03 0. -1.
    9000002   -1    0    0    0    0 -0.00000000000E+00 -0.00000000000E+00  0.00000000000E+00  0.93800000000E+00  0.93800000000E+00 0. -1.
         11    1    1    2    0    0 -0.13576020890E-01  0.95919235011E-01  0.75930529218E+00  0.76546038163E+00  0.51100000000E-03 0. -1.
    9000002    1    1    2    0    0  0.38712622361E-01 -0.40698562790E+00  0.11314372589E+00  0.10294568816E+01  0.93800000000E+00 0. -1.
         22    1    1    2    0    0 -0.25136601472E-01  0.31106639289E+00  0.31275509493E+01  0.31430827367E+01  0.00000000000E+00 0. -1.
</event>
<event>
 5    1  0.3005426E+001  0.1599664E+01  0.7818608E-02  0.3353728E+00
         11   -1    0    0    0    0  0.00000000000E+00  0.00000000000E+00  0.39999999674E+01  0.40000000000E+01  0.51100000000E-03 0. -1.
    9000002   -1    0    0    0    0 -0.00000000000E+00 -0.00000000000E+00  0.00000000000E+00  0.93800000000E+00  0.93800000000E+00 0. -1.
         11    1    1    2    0    0 -0.46972238985E-01 -0.46089676090E-01  0.33543708233E+00  0.34183175218E+00  0.51100000000E-03 0. -1.
    9000002    1    1    2    0    0  0.49302985762E+00  0.52119295091E+00  0.36963790963E+00  0.12374153372E+01  0.93800000000E+00 0. -1.
         22    1    1    2    0    0 -0.44605761863E+00 -0.47510327481E+00  0.32949249754E+01  0.33587529106E+01  0.00000000000E+00 0. -1.
</event>
<event>
 5    1  0.3005426E+001  0.1485792E+01  0.7818608E-02  0.3487483E+00
         11   -1    0    0    0    0  0.00000000000E+00  0.00000000000E+00  0.39999999674E+01  0.40000000000E+01  0.51100000000E-03 0.  1.
    9000002   -1    0    0    0    0 -0.00000000000E+00 -0.00000000000E+00  0.00000000000E+00  0.93800000000E+00  0.93800000000E+00 0.  1.
         11    1    1    2    0    0 -0.98201152272E-01 -0.27767841121E+00  0.14689291501E+01  0.14981661708E+01  0.51100000000E-03 0.  1.
    9000002    1    1    2    0    0 -0.11783796702E+00 -0.23599239716E+00  0.13964312257E+00  0.98433855947E+00  0.93800000000E+00 0.  1.
         22    1    1    2    0    0  0.21603911929E+00  0.51367080837E+00  0.23914276947E+01  0.24554952697E+01  0.00000000000E+00 0.  1.
</event>
<event>
 5    1  0.3005426E+001  0.1599595E+01  0.7818608E-02  0.3353803E+00
         11   -1    0    0    0    0  0.00000000000E+00  0.00000000000E+00  0.39999999674E+01  0.40000000000E+01  0.51100000000E-03 0. -1.
    9000002   -1    0    0    0    0 -0.00000000000E+00 -0.00000000000E+00  0.00000000000E+00  0.93800000000E+00  0.93800000000E+00 0.  1.
         11    1    1    2    0    0 -0.14772269864E-01 -0.10519843256E-01  0.13287725384E+00  0.13411007706E+00  0.51100000000E-03 0. -1.
    9000002    1    1    2    0    0  0.37942151489E+00  0.20357774081E+00  0.12564261239E+00  0.10397281609E+01  0.93800000000E+00 0.  1.
         22    1    1    2    0    0 -0.36464924503E+00 -0.19305789756E+00  0.37414801011E+01  0.37641617620E+01  0.00000000000E+00 0. -1.
</event>
<event>
 5    1  0.3005426E+001  0.1599677E+01  0.7818608E-02  0.3353714E+00
         11   -1    0    0    0    0  0.00000000000E+00  0.00000000000E+00  0.39999999674E+01  0.40000000000E+01  0.51100000000E-03 0. -1.
    9000002   -1    0    0    0    0 -0.00000000000E+00 -0.00000000000E+00  0.00000000000E+00  0.93800000000E+00  0.93800000000E+00 0.  1.
         11    1    1    2    0    0 -0.46887694272E-01  0.12314816758E+00  0.14725372818E+01  0.14784215348E+01  0.51100000000E-03 0. -1.
    9000002    1    1    2    0    0  0.12488063298E+00 -0.32960492004E+00  0.83323698344E-01  0.10054956064E+01  0.93800000000E+00 0.  1.
         22    1    1    2    0    0 -0.77992938704E-01  0.20645675246E+00  0.24441389872E+01  0.24540828588E+01  0.00000000000E+00 0. -1.
</event>
<event>
 5    1  0.3245947E+001  0.1587762E+01  0.7818608E-02  0.3366755E+00
         11   -1    0    0    0    0  0.00000000000E+00  0.00000000000E+00  0.39999999674E+01  0.40000000000E+01  0.51100000000E-03 0.  1.
    9000002   -1    0    0    0    0 -0.00000000000E+00 -0.00000000000E+00  0.00000000000E+00  0.93800000000E+00  0.93800000000E+00 0.  1.
         11    1    1    2    0    0 -0.42108628782E-01  0.60968836050E-01  0.91025187904E+00  0.91326287563E+00  0.51100000000E-03 0.  1.
    9000002    1    1    2    0    0 -0.24747963235E+00 -0.51616313310E-01  0.51637272191E-01  0.97284162129E+00  0.93800000000E+00 0.  1.
         22    1    1    2    0    0  0.28958826113E+00 -0.93525227406E-02  0.30381108161E+01  0.30518955031E+01  0.00000000000E+00 0.  1.
</event>
<event>
 5    1  0.3005426E+001  0.1599660E+01  0.7818608E-02  0.3353733E+00
         11   -1    0    0    0    0  0.00000000000E+00  0.00000000000E+00  0.39999999674E+01  0.40000000000E+01  0.51100000000E-03 0. -1.
    9000002   -1    0    0    0    0 -0.00000000000E+00 -0.00000000000E+00  0.00000000000E+00  0.93800000000E+00  0.93800000000E+00 0.  1.
         11    1    1    2    0    0  0.61098631594E-01 -0.32947752975E-01  0.62278856481E+00  0.62664539796E+00  0.51100000000E-03 0. -1.
    9000002    1    1    2    0    0 -0.38807443094E+00  0.22542934625E+00  0.13679225340E+00  0.10487975375E+01  0.93800000000E+00 0.  1.
         22    1    1    2    0    0  0.32697579934E+00 -0.19248159327E+00  0.32404191492E+01  0.32625570645E+01  0.00000000000E+00 0. -1.
</event>
<event>
 5    1  0.3005426E+001  0.1572114E+01  0.7818608E-02  0.3384198E+00
         11   -1    0    0    0    0  0.00000000000E+00  0.00000000000E+00  0.39999999674E+01  0.40000000000E+01  0.51100000000E-03 0. -1.
    9000002   -1    0    0    0    0 -0.00000000000E+00 -0.00000000000E+00  0.00000000000E+00  0.93800000000E+00  0.93800000000E+00 0. -1.
         11    1    1    2    0    0 -0.23393740126E-01  0.69131396960E-01  0.13554595175E+00  0.15394604016E+00  0.51100000000E-03 0. -1.
    9000002    1    1    2    0    0  0.48541805828E+00  0.18498230287E+00  0.21107115450E+00  0.10928147949E+01  0.93800000000E+00 0. -1.
         22    1    1    2    0    0 -0.46202431815E+00 -0.25411369983E+00  0.36533828611E+01  0.36912391649E+01  0.00000000000E+00 0. -1.
</event>
<event>
 5    1  0.3005426E+001  0.1594157E+01  0.7818608E-02  0.3359730E+00
         11   -1    0    0    0    0  0.00000000000E+00  0.00000000000E+00  0.39999999674E+01  0.40000000000E+01  0.51100000000E-03 0.  1.
    9000002   -1    0    0    0    0 -0.00000000000E+00 -0.00000000000E+00  0.00000000000E+00  0.93800000000E+00  0.93800000000E+00 0. -1.
         11    1    1    2    0    0  0.21918795913E-01  0.39445223021E-02  0.40239379103E+00  0.40300994659E+00  0.51100000000E-03 0.  1.
    9000002    1    1    2    0    0 -0.19737810778E+00  0.48376165541E+00  0.19269120787E+00  0.10908516665E+01  0.93800000000E+00 0. -1.
         22    1    1    2    0    0  0.17545931187E+00 -0.48770617771E+00  0.34049149685E+01  0.34441383869E+01  0.00000000000E+00 0.  1.
</event>
<event>
 5    1  0.3005426E+001  0.1596254E+01  0.7818608E-02  0.3357439E+00
         11   -1    0    0    0    0  0.00000000000E+00  0.00000000000E+00  0.39999999674E+01  0.40000000000E+01  0.51100000000E-03 0.  1.
    9000002   -1    0    0    0    0 -0.00000000000E+00 -0.00000000000E+00  0.00000000000E+00  0.93800000000E+00  0.93800000000E+00 0.  1.
         11    1    1    2    0    0  0.15149127891E-01 -0.62338250869E-01  0.88214139217E+00  0.88447116996E+00  0.51100000000E-03 0.  1.
    9000002    1    1    2    0    0  0.69988875316E-01  0.49054832685E+00  0.17103467373E+00  0.10745384885E+01  0.93800000000E+00 0.  1.
         22    1    1    2    0    0 -0.85138003207E-01 -0.42821007599E+00  0.29468239015E+01  0.29789903415E+01  0.00000000000E+00 0.  1.
</event>
<event>
 5    1  0.3005426E+001  0.1599632E+01  0.7818608E-02  0.3353763E+00
         11   -1    0    0    0    0  0.00000000000E+00  0.00000000000E+00  0.39999999674E+01  0.40000000000E+01  0.51100000000E-03 0.  1.
    9000002   -1    0    0    0    0 -0.00000000000E+00 -0.00000000000E+00  0.00000000000E+00  0.93800000000E+00  0.93800000000E+00 0. -1.
         11    1    1    2    0    0 -0.16591360734E-02 -0.26454115885E-01  0.32013177709E+00  0.32122762771E+00  0.51100000000E-03 0.  1.
    9000002    1    1    2    0    0 -0.13475986373E-01  0.36498369362E+00  0.89632943368E-01  0.10105804091E+01  0.93800000000E+00 0. -1.
         22    1    1    2    0    0  0.15135122447E-01 -0.33852957774E+00  0.35902352469E+01  0.36061919631E+01  0.00000000000E+00 0.  1.
</event>
<event>
 5    1  0.3005426E+001  0.1599659E+01  0.7818608E-02  0.3353734E+00
         11   -1    0    0    0    0  0.00000000000E+00  0.00000000000E+00  0.39999999674E+01  0.40000000000E+01  0.51100000000E-03 0.  1.
    9000002   -1    0    0    0    0 -0.00000000000E+00 -0.00000000000E+00  0.00000000000E+00  0.93800000000E+00  0.93800000000E+00 0. -1.
         11    1    1    2    0    0 -0.10994549681E+00  0.64053637214E-01  0.11377141078E+01  0.11448076401E+01  0.51100000000E-03 0.  1.
    9000002    1    1    2    0    0  0.38946888277E+00 -0.21599242152E+00  0.13463259414E+00  0.10470475979E+01  0.93800000000E+00 0. -1.
         22    1    1    2    0    0 -0.27952338596E+00  0.15193878430E+00  0.27276532654E+01  0.27461447620E+01  0.00000000000E+00 0.  1.
</event>
<event>
 5    1  0.3005426E+001  0.1599677E+01  0.7818608E-02  0.3353714E+00
         11   -1    0    0    0    0  0.00000000000E+00  0.00000000000E+00  0.39999999674E+01  0.40000000000E+01  0.51100000000E-03 0.  1.
    9000002   -1    0    0    0    0 -0.00000000000E+00 -0.00000000000E+00  0.00000000000E+00  0.93800000000E+00  0.93800000000E+00 0. -1.
         11    1    1    2    0    0 -0.16901159981E+00 -0.75701565795E-01  0.14478801626E+01  0.14596756058E+01  0.51100000000E-03 0.  1.
    9000002    1    1    2    0    0  0.44610343403E+00  0.20138125556E+00  0.16370808922E+00  0.10706105839E+01  0.93800000000E+00 0. -1.
         22    1    1    2    0    0 -0.27709183422E+00 -0.12567968976E+00  0.23884117156E+01  0.24077138102E+01  0.00000000000E+00 0.  1.
</event>
<event>
 5    1  0.3005426E+001  0.1484840E+01  0.7818608E-02  0.3488694E+00
         11   -1    0    0    0    0  0.00000000000E+00  0.00000000000E+00  0.39999999674E+01  0.40000000000E+01  0.51100000000E-03 0. -1.
    9000002   -1    0    0    0    0 -0.00000000000E+00 -0.00000000000E+00  0.00000000000E+00  0.93800000000E+00  0.93800000000E+00 0. -1.
         11    1    1    2    0    0  0.30690738959E+00  0.76669049219E-01  0.72244155834E+00  0.78866491949E+00  0.51100000000E-03 0. -1.
    9000002    1    1    2    0    0  0.35518047322E-01 -0.52365396255E-01  0.91207957677E-01  0.94454568865E+00  0.93800000000E+00 0. -1.
         22    1    1    2    0    0 -0.34242543691E+00 -0.24303652964E-01  0.31863504513E+01  0.32047893919E+01  0.00000000000E+00 0. -1.
</event>
<event>
 5    1  0.3005426E+001  0.1599676E+01  0.7818608E-02  0.3353715E+00
         11   -1    0    0    0    0  0.00000000000E+00  0.00000000000E+00  0.39999999674E+01  0.40000000000E+01  0.51100000000E-03 0. -1.
    9000002   -1    0    0    0    0 -0.00000000000E+00 -0.00000000000E+00  0.00000000000E+00  0.93800000000E+00  0.93800000000E+00 0. -1.
         11    1    1    2    0    0 -0.13881212335E+00  0.64882131496E-01  0.14506326555E+01  0.14587028001E+01  0.51100000000E-03 0. -1.
    9000002    1    1    2    0    0  0.37369203837E+00 -0.17227697177E+00  0.11438506639E+00  0.10306566053E+01  0.93800000000E+00 0. -1.
         22    1    1    2    0    0 -0.23487991501E+00  0.10739484027E+00  0.24349822455E+01  0.24486405947E+01  0.00000000000E+00 0.  1.
</event>
<event>
 5    1  0.3005426E+001  0.1599671E+01  0.7818608E-02  0.3353720E+00
         11   -1    0    0    0    0  0.00000000000E+00  0.00000000000E+00  0.39999999674E+01  0.40000000000E+01  0.51100000000E-03 0. -1.
    9000002   -1    0    0    0    0 -0.00000000000E+00 -0.00000000000E+00  0.00000000000E+00  0.93800000000E+00  0.93800000000E+00 0. -1.
         11    1    1    2    0    0  0.41258906822E-01  0.34708114531E-01  0.53459233008E+00  0.53730454223E+00  0.51100000000E-03 0. -1.
    9000002    1    1    2    0    0 -0.28761976368E+00 -0.24848709250E+00  0.97211798369E-01  0.10167423948E+01  0.93800000000E+00 0. -1.
         22    1    1    2    0    0  0.24636085686E+00  0.21377897797E+00  0.33681958389E+01  0.33839530630E+01  0.00000000000E+00 0. -1.
</event>
<event>
 5    1  0.3005426E+001  0.1599133E+01  0.7818608E-02  0.3354305E+00
         11   -1    0    0    0    0  0.00000000000E+00  0.00000000000E+00  0.39999999674E+01  0.40000000000E+01  0.51100000000E-03 0. -1.
    9000002   -1    0    0    0    0 -0.00000000000E+00 -0.00000000000E+00  0.00000000000E+00  0.93800000000E+00  0.93800000000E+00 0.  1.
         11    1    1    2    0    0  0.12017813166E+00 -0.60790566626E-03  0.11791286667E+01  0.11852374558E+01  0.51100000000E-03 0. -1.
    9000002    1    1    2    0    0 -0.46106241000E+00  0.52404921203E-01  0.14702940548E+00  0.10567811825E+01  0.93800000000E+00 0.  1.
         22    1    1    2    0    0  0.34088427833E+00 -0.51797015537E-01  0.26738418952E+01  0.26959813617E+01  0.00000000000E+00 0. -1.
</event>
<event>
 5    1  0.3005426E+001  0.1599677E+01  0.7818608E-02  0.3353714E+00
         11   -1    0    0    0    0  0.00000000000E+00  0.00000000000E+00  0.39999999674E+01  0.40000000000E+01  0.51100000000E-03 0.  1.
    9000002   -1    0    0    0    0 -0.00000000000E+00 -0.00000000000E+00  0.00000000000E+00  0.93800000000E+00  0.93800000000E+00 0.  1.
         11    1    1    2    0    0 -0.11795606262E+00  0.66132145722E-01  0.12908231738E+01  0.12978874453E+01  0.51100000000E-03 0. -1.
    9000002    1    1    2    0    0  0.35597576686E+00 -0.19833575454E+00  0.11211711591E+00  0.10288197441E+01  0.93800000000E+00 0.  1.
         22    1    1    2    0    0 -0.23801970424E+00  0.13220360882E+00  0.25970596776E+01  0.26112928107E+01  0.00000000000E+00 0.  1.
</event>
<event>
 5    1  0.3005426E+001  0.1578937E+01  0.7818608E-02  0.3376547E+00
         11   -1    0    0    0    0  0.00000000000E+00  0.00000000000E+00  0.39999999674E+01  0.40000000000E+01  0.51100000000E-03 0. -1.
    9000002   -1    0    0    0    0 -0.00000000000E+00 -0.00000000000E+00  0.00000000000E+00  0.93800000000E+00  0.93800000000E+00 0.  1.
         11    1    1    2    0    0  0.25212909861E-01 -0.53662453052E-02  0.15839664569E-01  0.30259601898E-01  0.51100000000E-03 0. -1.
    9000002    1    1    2    0    0  0.38998576965E-01 -0.50333873616E+00  0.19362629140E+00  0.10826845861E+01  0.93800000000E+00 0.  1.
         22    1    1    2    0    0 -0.64211486827E-01  0.50870498146E+00  0.37905340114E+01  0.38250558120E+01  0.00000000000E+00 0. -1.
</event>
<event>
 5    1  0.3005426E+001  0.1599673E+01  0.7818608E-02  0.3353718E+00
         11   -1    0    0    0    0  0.00000000000E+00  0.00000000000E+00  0.39999999674E+01  0.40000000000E+01  0.51100000000E-03 0. -1.
    9000002   -1    0    0    0    0 -0.00000000000E+00 -0.00000000000E+00  0.00000000000E+00  0.93800000000E+00  0.93800000000E+00 0. -1.
         11    1    1    2    0    0  0.43933855316E-01  0.55091046835E-01  0.61277278821E+00  0.61681112034E+00  0.51100000000E-03 0. -1.
    9000002    1    1    2    0    0 -0.28786927234E+00 -0.34567532390E+00  0.13744023060E+00  0.10493302457E+01  0.93800000000E+00 0. -1.
         22    1    1    2    0    0  0.24393541703E+00  0.29058427706E+00  0.32497869486E+01  0.32718586340E+01  0.00000000000E+00 0. -1.
</event>
<event>
 5    1  0.4113941E+001  0.1599616E+01  0.7818608E-02  0.3353781E+00
         11   -1    0    0    0    0  0.00000000000E+00  0.00000000000E+00  0.39999999674E+01  0.40000000000E+01  0.51100000000E-03 0. -1.
    9000002   -1    0    0    0    0 -0.00000000000E+00 -0.00000000000E+00  0.00000000000E+00  0.93800000000E+00  0.93800000000E+00 0.  1.
         11    1    1    2    0    0 -0.58210137845E-02  0.11961893618E+00  0.14616423175E+01  0.14665405210E+01  0.51100000000E-03 0. -1.
    9000002    1    1    2    0    0  0.20329179332E-01 -0.34486126642E+00  0.80029835918E-01  0.10027917746E+01  0.93800000000E+00 0.  1.
         22    1    1    2    0    0 -0.14508165548E-01  0.22524233025E+00  0.24583278139E+01  0.24686677044E+01  0.00000000000E+00 0.  1.
</event>
<event>
 5    1  0.3005426E+001  0.1599667E+01  0.7818608E-02  0.3353725E+00
         11   -1    0    0    0    0  0.00000000000E+00  0.00000000000E+00  0.39999999674E+01  0.40000000000E+01  0.51100000000E-03 0. -1.
    9000002   -1    0    0    0    0 -0.00000000000E+00 -0.00000000000E+00  0.00000000000E+00  0.93800000000E+00  0.93800000000E+00 0.  1.
         11    1    1    2    0    0  0.60916359561E-01  0.71535164253E-01  0.84501027697E+00  0.85021803785E+00  0.51100000000E-03 0. -1.
    9000002    1    1    2    0    0 -0.29161230572E+00 -0.33441118176E+00  0.13359582635E+00  0.10462124164E+01  0.93800000000E+00 0.  1.
         22    1    1    2    0    0  0.23069594616E+00  0.26287601751E+00  0.30213938640E+01  0.30415695458E+01  0.00000000000E+00 0. -1.
</event>
<event>
 5    1  0.3005426E+001  0.1594772E+01  0.7818608E-02  0.3359058E+00
         11   -1    0    0    0    0  0.00000000000E+00  0.00000000000E+00  0.39999999674E+01  0.40000000000E+01  0.51100000000E-03 0.  1.
    9000002   -1    0    0    0    0 -0.00000000000E+00 -0.00000000000E+00  0.00000000000E+00  0.93800000000E+00  0.93800000000E+00 0. -1.
         11    1    1    2    0    0 -0.42664951119E+00  0.11315529990E+00  0.12815198002E+01  0.13554066499E+01  0.51100000000E-03 0.  1.
    9000002    1    1    2    0    0  0.88482295060E+00 -0.35062627445E+00  0.71871628393E+00  0.15173158982E+01  0.93800000000E+00 0. -1.
         22    1    1    2    0    0 -0.45817343941E+00  0.23747097455E+00  0.19997638832E+01  0.20652774518E+01  0.00000000000E+00 0.  1.
</event>
<event>
 5    1  0.3005426E+001  0.1574519E+01  0.7818608E-02  0.3381493E+00
         11   -1    0    0    0    0  0.00000000000E+00  0.00000000000E+00  0.39999999674E+01  0.40000000000E+01  0.51100000000E-03 0.  1.
    9000002   -1    0    0    0    0 -0.00000000000E+00 -0.00000000000E+00  0.00000000000E+00  0.93800000000E+00  0.93800000000E+00 0.  1.
         11    1    1    2    0    0 -0.13947164100E+00 -0.39608846178E-01  0.13500522249E+01  0.13578153300E+01  0.51100000000E-03 0.  1.
    9000002    1    1    2    0    0 -0.12159439576E+00  0.11357614633E+00  0.37183506070E-01  0.95336842365E+00  0.93800000000E+00 0.  1.
         22    1    1    2    0    0  0.26106603676E+00 -0.73967300155E-01  0.26127642364E+01  0.26268162463E+01  0.00000000000E+00 0.  1.
</event>
<event>
 5    1  0.3005426E+001  0.1599561E+01  0.7818608E-02  0.3353840E+00
         11   -1    0    0    0    0  0.00000000000E+00  0.00000000000E+00  0.39999999674E+01  0.40000000000E+01  0.51100000000E-03 0.  1.
    9000002   -1    0    0    0    0 -0.00000000000E+00 -0.00000000000E+00  0.00000000000E+00  0.93800000000E+00  0.93800000000E+00 0. -1.
         11    1    1    2    0    0 -0.30624106045E-01  0.30738139382E-01  0.54430819984E+00  0.54603511482E+00  0.51100000000E-03 0.  1.
    9000002    1    1    2    0    0  0.21300483330E+00 -0.28530126060E+00  0.85150378205E-01  0.10069073717E+01  0.93800000000E+00 0. -1.
         22    1    1    2    0    0 -0.18238072726E+00  0.25456312122E+00  0.33705413893E+01  0.33850575135E+01  0.00000000000E+00 0.  1.
</event>
<event>
 5    1  0.3005426E+001  0.1596986E+01  0.7818608E-02  0.3356641E+00
         11   -1    0    0    0    0  0.00000000000E+00  0.00000000000E+00  0.39999999674E+01  0.40000000000E+01  0.51100000000E-03 0.  1.
    9000002   -1    0    0    0    0 -0.00000000000E+00 -0.00000000000E+00  0.00000000000E+00  0.93800000000E+00  0.93800000000E+00 0.  1.
         11    1    1    2    0    0  0.31087861811E-01  0.41196317864E-01  0.10530125096E+01  0.10542766232E+01  0.51100000000E-03 0.  1.
    9000002    1    1    2    0    0 -0.22956150388E+00 -0.32303590930E+00  0.10812001142E+00  0.10240042088E+01  0.93800000000E+00 0.  1.
         22    1    1    2    0    0  0.19847364207E+00  0.28183959143E+00  0.28388674463E+01  0.28597191680E+01  0.00000000000E+00 0.  1.
</event>
<event>
 5    1  0.3005426E+001  0.1561481E+01  0.7818608E-02  0.3396262E+00
         11   -1    0    0    0    0  0.00000000000E+00  0.00000000000E+00  0.39999999674E+01  0.40000000000E+01  0.51100000000E-03 0.  1.
    9000002   -1    0    0    0    0 -0.00000000000E+00 -0.00000000000E+00  0.00000000000E+00  0.93800000000E+00  0.93800000000E+00 0.  1.
         11    1    1    2    0    0 -0.13767096365E+00  0.37964477459E+00  0.10457489950E+01  0.11210150180E+01  0.51100000000E-03 0.  1.
    9000002    1    1    2    0    0  0.42631617795E+00 -0.55677825765E+00  0.39581014777E+00  0.12362269957E+01  0.93800000000E+00 0.  1.
         22    1    1    2    0    0 -0.28864521431E+00  0.17713348306E+00  0.25584408246E+01  0.25807579863E+01  0.00000000000E+00 0.  1.
</event>
<event>
 5    1  0.3005426E+001  0.1599676E+01  0.7818608E-02  0.3353715E+00
         11   -1    0    0    0    0  0.00000000000E+00  0.00000000000E+00  0.39999999674E+01  0.40000000000E+01  0.51100000000E-03 0.  1.
    9000002   -1    0    0    0    0 -0.00000000000E+00 -0.00000000000E+00  0.00000000000E+00  0.93800000000E+00  0.93800000000E+00 0. -1.
         11    1    1    2    0    0 -0.71861573159E-01  0.88782089393E-01  0.11831081637E+01  0.11886090750E+01  0.51100000000E-03 0.  1.
    9000002    1    1    2    0    0  0.23416173952E+00 -0.29575467125E+00  0.95715962126E-01  0.10155334023E+01  0.93800000000E+00 0. -1.
         22    1    1    2    0    0 -0.16230016637E+00  0.20697258185E+00  0.27211758416E+01  0.27338575227E+01  0.00000000000E+00 0.  1.
</event>
<event>
 5    1  0.3005426E+001  0.1588998E+01  0.7818608E-02  0.3365392E+00
         11   -1    0    0    0    0  0.00000000000E+00  0.00000000000E+00  0.39999999674E+01  0.40000000000E+01  0.51100000000E-03 0.  1.
    9000002   -1    0    0    0    0 -0.00000000000E+00 -0.00000000000E+00  0.00000000000E+00  0.93800000000E+00  0.93800000000E+00 0.  1.
         11    1    1    2    0    0 -0.14965151071E+00  0.13201083737E+00  0.11036524810E+01  0.11215487041E+01  0.51100000000E-03 0.  1.
    9000002    1    1    2    0    0  0.12916429649E+00 -0.44027665305E+00  0.15252329784E+00  0.10552887297E+01  0.93800000000E+00 0.  1.
         22    1    1    2    0    0  0.20487214219E-01  0.30826581567E+00  0.27438241885E+01  0.27611625662E+01  0.00000000000E+00 0.  1.
</event>
<event>
 5    1  0.3005426E+001  0.1598978E+01  0.7818608E-02  0.3354473E+00
         11   -1    0    0    0    0  0.00000000000E+00  0.00000000000E+00  0.39999999674E+01  0.40000000000E+01  0.51100000000E-03 0.  1.
    9000002   -1    0    0    0    0 -0.00000000000E+00 -0.00000000000E+00  0.00000000000E+00  0.93800000000E+00  0.93800000000E+00 0. -1.
         11    1    1    2    0    0  0.22436270357E-01  0.17469402749E+00  0.10368186919E+01  0.10516723113E+01  0.51100000000E-03 0.  1.
    9000002    1    1    2    0    0 -0.12634712082E+00 -0.54319011837E+00  0.21580301919E+00  0.11124001271E+01  0.93800000000E+00 0. -1.
         22    1    1    2    0    0  0.10391085047E+00  0.36849609087E+00  0.27473782563E+01  0.27739275616E+01  0.00000000000E+00 0.  1.
</event>
<event>
 5    1  0.3005426E+001  0.1599677E+01  0.7818608E-02  0.3353714E+00
         11   -1    0    0    0    0  0.00000000000E+00  0.00000000000E+00  0.39999999674E+01  0.40000000000E+01  0.51100000000E-03 0.  1.
    9000002   -1    0    0    0    0 -0.00000000000E+00 -0.00000000000E+00  0.00000000000E+00  0.93800000000E+00  0.93800000000E+00 0.  1.
         11    1    1    2    0    0 -0.82512379263E-01  0.18973079390E+00  0.13653079020E+01  0.13808953600E+01  0.51100000000E-03 0.  1.
    9000002    1    1    2    0    0  0.22706163226E+00 -0.52387502908E+00  0.22609105042E+00  0.11211436991E+01  0.93800000000E+00 0.  1.
         22    1    1    2    0    0 -0.14454925300E+00  0.33414423518E+00  0.24086010150E+01  0.24359609409E+01  0.00000000000E+00 0. -1.
</event>
<event>
 5    1  0.3005426E+001  0.1599675E+01  0.7818608E-02  0.3353716E+00
         11   -1    0    0    0    0  0.00000000000E+00  0.00000000000E+00  0.39999999674E+01  0.40000000000E+01  0.51100000000E-03 0.  1.
    9000002   -1    0    0    0    0 -0.00000000000E+00 -0.00000000000E+00  0.00000000000E+00  0.93800000000E+00  0.93800000000E+00 0. -1.
         11    1    1    2    0    0 -0.30938800028E-02 -0.28300096316E-01  0.28500149588E+00  0.28642028790E+00  0.51100000000E-03 0.  1.
    9000002    1    1    2    0    0  0.40496148440E-01  0.37733831779E+00  0.96901040343E-01  0.10164929689E+01  0.93800000000E+00 0. -1.
         22    1    1    2    0    0 -0.37402268437E-01 -0.34903822147E+00  0.36180974311E+01  0.36350867433E+01  0.00000000000E+00 0.  1.
</event>
<event>
 5    1  0.3005426E+001  0.1599648E+01  0.7818608E-02  0.3353746E+00
         11   -1    0    0    0    0  0.00000000000E+00  0.00000000000E+00  0.39999999674E+01  0.40000000000E+01  0.51100000000E-03 0.  1.
    9000002   -1    0    0    0    0 -0.00000000000E+00 -0.00000000000E+00  0.00000000000E+00  0.93800000000E+00  0.93800000000E+00 0.  1.
         11    1    1    2    0    0 -0.76207446417E-01 -0.20703381092E+00  0.14419580684E+01  0.14587370928E+01  0.51100000000E-03 0.  1.
    9000002    1    1    2    0    0  0.21427921595E+00  0.53446371056E+00  0.23020277008E+00  0.11244573605E+01  0.93800000000E+00 0.  1.
         22    1    1    2    0    0 -0.13807176954E+00 -0.32742989963E+00  0.23278391289E+01  0.23548055467E+01  0.00000000000E+00 0.  1.
</event>
<event>
 5    1  0.3005426E+001  0.1567379E+01  0.7818608E-02  0.3389548E+00
         11   -1    0    0    0    0  0.00000000000E+00  0.00000000000E+00  0.39999999674E+01  0.40000000000E+01  0.51100000000E-03 0. -1.
    9000002   -1    0    0    0    0 -0.00000000000E+00 -0.00000000000E+00  0.00000000000E+00  0.93800000000E+00  0.93800000000E+00 0. -1.
         11    1    1    2    0    0  0.36755251345E-01  0.45261812553E-01  0.82343382055E-01  0.10089734321E+00  0.51100000000E-03 0. -1.
    9000002    1    1    2    0    0 -0.32701639056E-01  0.40891018944E+00  0.14124371695E+00  0.10334750736E+01  0.93800000000E+00 0. -1.
         22    1    1    2    0    0 -0.40536122891E-02 -0.45417200199E+00  0.37764128684E+01  0.38036275832E+01  0.00000000000E+00 0. -1.
</event>
<event>
 5    1  0.3005426E+001  0.1599490E+01  0.7818608E-02  0.3353917E+00
         11   -1    0    0    0    0  0.00000000000E+00  0.00000000000E+00  0.39999999674E+01  0.40000000000E+01  0.51100000000E-03 0. -1.
    9000002   -1    0    0    0    0 -0.00000000000E+00 -0.00000000000E+00  0.00000000000E+00  0.93800000000E+00  0.93800000000E+00 0. -1.
         11    1    1    2    0    0  0.40476274641E-01  0.12007193005E+00  0.10781856072E+01  0.10856058501E+01  0.51100000000E-03 0. -1.
    9000002    1    1    2    0    0 -0.10964223832E+00 -0.39375443271E+00  0.11297254357E+00  0.10294031131E+01  0.93800000000E+00 0. -1.
         22    1    1    2    0    0  0.69165963679E-01  0.27368250266E+00  0.28088418166E+01  0.28229910367E+01  0.00000000000E+00 0. -1.
</event>
<event>
 5    1  0.3005426E+001  0.1599676E+01  0.7818608E-02  0.3353715E+00
         11   -1    0    0    0    0  0.00000000000E+00  0.00000000000E+00  0.39999999674E+01  0.40000000000E+01  0.51100000000E-03 0.  1.
    9000002   -1    0    0    0    0 -0.00000000000E+00 -0.00000000000E+00  0.00000000000E+00  0.93800000000E+00  0.93800000000E+00 0.  1.
         11    1    1    2    0    0 -0.20412802829E+00  0.16211885064E+00  0.12143899273E+01  0.12420523058E+01  0.51100000000E-03 0.  1.
    9000002    1    1    2    0    0  0.60134146243E+00 -0.47933140584E+00  0.43122488714E+00  0.12873107839E+01  0.93800000000E+00 0.  1.
         22    1    1    2    0    0 -0.39721343413E+00  0.31721255520E+00  0.23543851529E+01  0.24086369103E+01  0.00000000000E+00 0.  1.
</event>
<event>
 5    1  0.3005426E+001  0.1599637E+01  0.7818608E-02  0.3353758E+00
         11   -1    0    0    0    0  0.00000000000E+00  0.00000000000E+00  0.39999999674E+01  0.40000000000E+01  0.51100000000E-03 0. -1.
    9000002   -1    0    0    0    0 -0.00000000000E+00 -0.00000000000E+00  0.00000000000E+00  0.93800000000E+00  0.93800000000E+00 0.  1.
         11    1    1    2    0    0 -0.74598979799E-02 -0.14064699795E-01  0.17936968040E+00  0.18007556532E+00  0.51100000000E-03 0. -1.
    9000002    1    1    2    0    0  0.15072509579E+00  0.37303941680E+00  0.10925528736E+00  0.10264780459E+01  0.93800000000E+00 0.  1.
         22    1    1    2    0    0 -0.14326519781E+00 -0.35897471700E+00  0.37113749996E+01  0.37314463887E+01  0.00000000000E+00 0. -1.
</event>
<event>
 5    1  0.3005426E+001  0.1571628E+01  0.7818608E-02  0.3384746E+00
         11   -1    0    0    0    0  0.00000000000E+00  0.00000000000E+00  0.39999999674E+01  0.40000000000E+01  0.51100000000E-03 0.  1.
    9000002   -1    0    0    0    0 -0.00000000000E+00 -0.00000000000E+00  0.00000000000E+00  0.93800000000E+00  0.93800000000E+00 0.  1.
         11    1    1    2    0    0  0.28591736367E+00 -0.29695217978E-01  0.14352168825E+01  0.14637207062E+01  0.51100000000E-03 0.  1.
    9000002    1    1    2    0    0 -0.33290340724E+00 -0.21121236881E+00  0.12839127071E+00  0.10255552943E+01  0.93800000000E+00 0.  1.
         22    1    1    2    0    0  0.46986043562E-01  0.24090758679E+00  0.24363918142E+01  0.24487239995E+01  0.00000000000E+00 0.  1.
</event>
<event>
 5    1  0.3005426E+001  0.1599550E+01  0.7818608E-02  0.3353852E+00
         11   -1    0    0    0    0  0.00000000000E+00  0.00000000000E+00  0.39999999674E+01  0.40000000000E+01  0.51100000000E-03 0. -1.
    9000002   -1    0    0    0    0 -0.00000000000E+00 -0.00000000000E+00  0.00000000000E+00  0.93800000000E+00  0.93800000000E+00 0.  1.
         11    1    1    2    0    0  0.24571368050E-01  0.12243216762E+00  0.11757336363E+01  0.11823464943E+01  0.51100000000E-03 0. -1.
    9000002    1    1    2    0    0 -0.78649438322E-01 -0.36525924366E+00  0.93961021928E-01  0.10140378311E+01  0.93800000000E+00 0.  1.
         22    1    1    2    0    0  0.54078070272E-01  0.24282707604E+00  0.27303053091E+01  0.27416156747E+01  0.00000000000E+00 0. -1.
</event>
<event>
 5    1  0.3005426E+001  0.1598866E+01  0.7818608E-02  0.3354595E+00
         11   -1    0    0    0    0  0.00000000000E+00  0.00000000000E+00  0.39999999674E+01  0.40000000000E+01  0.51100000000E-03 0. -1.
    9000002   -1    0    0    0    0 -0.00000000000E+00 -0.00000000000E+00  0.00000000000E+00  0.93800000000E+00  0.93800000000E+00 0. -1.
         11    1    1    2    0    0 -0.45329307616E-01 -0.78065049223E-02  0.30691493881E+00  0.31034292071E+00  0.51100000000E-03 0. -1.
    9000002    1    1    2    0    0  0.35298316102E+00  0.17678600744E+00  0.10572708211E+00  0.10231679336E+01  0.93800000000E+00 0. -1.
         22    1    1    2    0    0 -0.30765385340E+00 -0.16897950252E+00  0.35873579464E+01  0.36044891457E+01  0.00000000000E+00 0. -1.
</event>
<event>
 5    1  0.3005426E+001  0.1599639E+01  0.7818608E-02  0.3353756E+00
         11   -1    0    0    0    0  0.00000000000E+00  0.00000000000E+00  0.39999999674E+01  0.40000000000E+01  0.51100000000E-03 0.  1.
    9000002   -1    0    0    0    0 -0.00000000000E+00 -0.00000000000E+00  0.00000000000E+00  0.93800000000E+00  0.93800000000E+00 0.  1.
         11    1    1    2    0    0  0.42504909972E-02  0.88440569714E-03  0.62927173759E-01  0.63078832943E-01  0.51100000000E-03 0. -1.
    9000002    1    1    2    0    0 -0.35867300672E+00 -0.11542014447E+00  0.95516297967E-01  0.10153499390E+01  0.93800000000E+00 0.  1.
         22    1    1    2    0    0  0.35442251573E+00  0.11453573877E+00  0.38415564956E+01  0.38595712280E+01  0.00000000000E+00 0.  1.
</event>
<event>
 5    1  0.3005426E+001  0.1599675E+01  0.7818608E-02  0.3353717E+00
         11   -1    0    0    0    0  0.00000000000E+00  0.00000000000E+00  0.39999999674E+01  0.40000000000E+01  0.51100000000E-03 0. -1.
    9000002   -1    0    0    0    0 -0.00000000000E+00 -0.00000000000E+00  0.00000000000E+00  0.93800000000E+00  0.93800000000E+00 0. -1.
         11    1    1    2    0    0  0.67643531139E-01  0.13667088356E-02  0.58454954858E+00  0.58845216549E+00  0.51100000000E-03 0.  1.
    9000002    1    1    2    0    0 -0.44815620391E+00 -0.55312229839E-03  0.13637537244E+00  0.10484686601E+01  0.93800000000E+00 0. -1.
         22    1    1    2    0    0  0.38051267277E+00 -0.81358653722E-03  0.32790750463E+01  0.33010791744E+01  0.00000000000E+00 0. -1.
</event>
<event>
 5    1  0.3005426E+001  0.1542514E+01  0.7818608E-02  0.3418222E+00
         11   -1    0    0    0    0  0.00000000000E+00  0.00000000000E+00  0.39999999674E+01  0.40000000000E+01  0.51100000000E-03 0.  1.
    9000002   -1    0    0    0    0 -0.00000000000E+00 -0.00000000000E+00  0.00000000000E+00  0.93800000000E+00  0.93800000000E+00 0. -1.
         11    1    1    2    0    0  0.14045950020E+00 -0.10525774353E+00  0.58990922714E+00  0.61546829419E+00  0.51100000000E-03 0.  1.
    9000002    1    1    2    0    0  0.88952634708E-01 -0.21621093846E+00  0.80986506040E-01  0.97008378777E+00  0.93800000000E+00 0. -1.
         22    1    1    2    0    0 -0.22941213491E+00  0.32146868198E+00  0.33291042342E+01  0.33524479180E+01  0.00000000000E+00 0.  1.
</event>
<event>
 5    1  0.3005426E+001  0.1599674E+01  0.7818608E-02  0.3353717E+00
         11   -1    0    0    0    0  0.00000000000E+00  0.00000000000E+00  0.39999999674E+01  0.40000000000E+01  0.51100000000E-03 0.  1.
    9000002   -1    0    0    0    0 -0.00000000000E+00 -0.00000000000E+00  0.00000000000E+00  0.93800000000E+00  0.93800000000E+00 0.  1.
         11    1    1    2    0    0 -0.10362770655E+00  0.97441881649E-01  0.14801987071E+01  0.14870178531E+01  0.51100000000E-03 0.  1.
    9000002    1    1    2    0    0  0.26858838843E+00 -0.25723172376E+00  0.92971096690E-01  0.10133091862E+01  0.93800000000E+00 0.  1.
         22    1    1    2    0    0 -0.16496068189E+00  0.15978984211E+00  0.24268301636E+01  0.24376729607E+01  0.00000000000E+00 0.  1.
</event>
<event>
 5    1  0.3005426E+001  0.1562370E+01  0.7818608E-02  0.3395247E+00
         11   -1    0    0    0    0  0.00000000000E+00  0.00000000000E+00  0.39999999674E+01  0.40000000000E+01  0.51100000000E-03 0. -1.
    9000002   -1    0    0    0    0 -0.00000000000E+00 -0.00000000000E+00  0.00000000000E+00  0.93800000000E+00  0.93800000000E+00 0. -1.
         11    1    1    2    0    0  0.12517218775E+00  0.25529097502E+00  0.12971050274E+01  0.13279018307E+01  0.51100000000E-03 0. -1.
    9000002    1    1    2    0    0  0.12575435824E+00 -0.33691552531E+00  0.11767104191E+00  0.10114428822E+01  0.93800000000E+00 0. -1.
         22    1    1    2    0    0 -0.25092654599E+00  0.81624550294E-01  0.25852238980E+01  0.25986552872E+01  0.00000000000E+00 0. -1.
</event>
<event>
 5    1  0.3005426E+001  0.1599036E+01  0.7818608E-02  0.3354411E+00
         11   -1    0    0    0    0  0.00000000000E+00  0.00000000000E+00  0.39999999674E+01  0.40000000000E+01  0.51100000000E-03 0.  1.
    9000002   -1    0    0    0    0 -0.00000000000E+00 -0.00000000000E+00  0.00000000000E+00  0.93800000000E+00  0.93800000000E+00 0.  1.
         11    1    1    2    0    0 -0.17195256614E+00  0.74849988127E-02  0.14833051399E+01  0.14932575496E+01  0.51100000000E-03 0.  1.
    9000002    1    1    2    0    0  0.50670775724E+00  0.24223189368E-01  0.17696260038E+00  0.10809714502E+01  0.93800000000E+00 0.  1.
         22    1    1    2    0    0 -0.33475519110E+00 -0.31708188181E-01  0.23397322271E+01  0.23637710003E+01  0.00000000000E+00 0. -1.
</event>
<event>
 5    1  0.3005426E+001  0.1594609E+01  0.7818608E-02  0.3359236E+00
         11   -1    0    0    0    0  0.00000000000E+00  0.00000000000E+00  0.39999999674E+01  0.40000000000E+01  0.51100000000E-03 0.  1.
    9000002   -1    0    0    0    0 -0.00000000000E+00 -0.00000000000E+00  0.00000000000E+00  0.93800000000E+00  0.93800000000E+00 0.  1.
         11    1    1    2    0    0  0.13387442953E-01 -0.12325637444E+00  0.11703373718E+01  0.11768862233E+01  0.51100000000E-03 0.  1.
    9000002    1    1    2    0    0 -0.32603293386E-03  0.64168247919E+00  0.29528210902E+00  0.11742197555E+01  0.93800000000E+00 0.  1.
         22    1    1    2    0    0 -0.13061410020E-01 -0.51842610475E+00  0.25343804865E+01  0.25868940212E+01  0.00000000000E+00 0.  1.
</event>
<event>
 5    1  0.3005426E+001  0.1599670E+01  0.7818608E-02  0.3353722E+00
         11   -1    0    0    0    0  0.00000000000E+00  0.00000000000E+00  0.39999999674E+01  0.40000000000E+01  0.51100000000E-03 0. -1.
    9000002   -1    0    0    0    0 -0.00000000000E+00 -0.00000000000E+00  0.00000000000E+00  0.93800000000E+00  0.93800000000E+00 0. -1.
         11    1    1    2    0    0  0.37036532977E+00  0.43084778847E+00  0.10934142117E+01  0.12322155630E+01  0.51100000000E-03 0. -1.
    9000002    1    1    2    0    0 -0.80934755459E+00 -0.94472802973E+00  0.15913412968E+01  0.22270531285E+01  0.93800000000E+00 0. -1.
         22    1    1    2    0    0  0.43898222482E+00  0.51388024127E+00  0.13152444589E+01  0.14787313085E+01  0.00000000000E+00 0. -1.
</event>
<event>
 5    1  0.3005426E+001  0.1569830E+01  0.7818608E-02  0.3386774E+00
         11   -1    0    0    0    0  0.00000000000E+00  0.00000000000E+00  0.39999999674E+01  0.40000000000E+01  0.51100000000E-03 0. -1.
    9000002   -1    0    0    0    0 -0.00000000000E+00 -0.00000000000E+00  0.00000000000E+00  0.93800000000E+00  0.93800000000E+00 0. -1.
         11    1    1    2    0    0 -0.15446480587E+00  0.14757969643E-01  0.91162861990E+00  0.92474005843E+00  0.51100000000E-03 0. -1.
    9000002    1    1    2    0    0 -0.68889211391E-01 -0.24490290828E+00  0.66222379242E-01  0.97414196165E+00  0.93800000000E+00 0. -1.
         22    1    1    2    0    0  0.22335401726E+00  0.23014493863E+00  0.30221489682E+01  0.30391179799E+01  0.00000000000E+00 0. -1.
</event>
<event>
 5    1  0.3005426E+001  0.1599672E+01  0.7818608E-02  0.3353720E+00
         11   -1    0    0    0    0  0.00000000000E+00  0.00000000000E+00  0.39999999674E+01  0.40000000000E+01  0.51100000000E-03 0.  1.
    9000002   -1    0    0    0    0 -0.00000000000E+00 -0.00000000000E+00  0.00000000000E+00  0.93800000000E+00  0.93800000000E+00 0. -1.
         11    1    1    2    0    0  0.18651129404E+00 -0.89438192324E-01  0.14513880459E+01  0.14660536054E+01  0.51100000000E-03 0.  1.
    9000002    1    1    2    0    0 -0.48392314294E+00  0.23981667632E+00  0.20110378845E+00  0.11008998048E+01  0.93800000000E+00 0. -1.
         22    1    1    2    0    0  0.29741184891E+00 -0.15037848400E+00  0.23475081330E+01  0.23710465898E+01  0.00000000000E+00 0.  1.
</event>
<event>
 5    1  0.3005426E+001  0.1599426E+01  0.7818608E-02  0.3353986E+00
         11   -1    0    0    0    0  0.00000000000E+00  0.00000000000E+00  0.39999999674E+01  0.40000000000E+01  0.51100000000E-03 0. -1.
    9000002   -1    0    0    0    0 -0.00000000000E+00 -0.00000000000E+00  0.00000000000E+00  0.93800000000E+00  0.93800000000E+00 0.  1.
         11    1    1    2    0    0  0.25556982382E-01  0.41067580843E-01  0.25416079408E+00  0.25872316463E+00  0.51100000000E-03 0. -1.
    9000002    1    1    2    0    0 -0.42655793187E+00 -0.46977859647E+00  0.28335058426E+00  0.11673796094E+01  0.93800000000E+00 0.  1.
         22    1    1    2    0    0  0.40100094948E+00  0.42871101563E+00  0.34624885890E+01  0.35118972259E+01  0.00000000000E+00 0. -1.
</event>
<event>
 5    1  0.3005426E+001  0.1599665E+01  0.7818608E-02  0.3353727E+00
         11   -1    0    0    0    0  0.00000000000E+00  0.00000000000E+00  0.39999999674E+01  0.40000000000E+01  0.51100000000E-03 0. -1.
    9000002   -1    0    0    0    0 -0.00000000000E+00 -0.00000000000E+00  0.00000000000E+00  0.93800000000E+00  0.93800000000E+00 0.  1.
         11    1    1    2    0    0 -0.79806906982E-01  0.12351495928E-03  0.65012589955E+00  0.65500618626E+00  0.51100000000E-03 0. -1.
    9000002    1    1    2    0    0  0.45508191844E+00 -0.46154975193E-03  0.14077561870E+00  0.10520273477E+01  0.93800000000E+00 0.  1.
         22    1    1    2    0    0 -0.37527501146E+00  0.33803479266E-03  0.32090984491E+01  0.32309664660E+01  0.00000000000E+00 0. -1.
</event>
<event>
 5    1  0.3005426E+001  0.1508763E+01  0.7818608E-02  0.3458760E+00
         11   -1    0    0    0    0  0.00000000000E+00  0.00000000000E+00  0.39999999674E+01  0.40000000000E+01  0.51100000000E-03 0.  1.
    9000002   -1    0    0    0    0 -0.00000000000E+00 -0.00000000000E+00  0.00000000000E+00  0.93800000000E+00  0.93800000000E+00 0. -1.
         11    1    1    2    0    0  0.20067666281E+00  0.27828946191E+00  0.10548418497E+01  0.11092374573E+01  0.51100000000E-03 0.  1.
    9000002    1    1    2    0    0  0.66799889381E-01 -0.14577393073E+00  0.87572217301E-01  0.95562814805E+00  0.93800000000E+00 0. -1.
         22    1    1    2    0    0 -0.26747655219E+00 -0.13251553117E+00  0.28575859004E+01  0.28731343947E+01  0.00000000000E+00 0.  1.
</event>
<event>
 5    1  0.3005426E+001  0.1599572E+01  0.7818608E-02  0.3353828E+00
         11   -1    0    0    0    0  0.00000000000E+00  0.00000000000E+00  0.39999999674E+01  0.40000000000E+01  0.51100000000E-03 0. -1.
    9000002   -1    0    0    0    0 -0.00000000000E+00 -0.00000000000E+00  0.00000000000E+00  0.93800000000E+00  0.93800000000E+00 0.  1.
         11    1    1    2    0    0 -0.36982538493E-01 -0.13045019612E+00  0.84952305804E+00  0.86027591451E+00  0.51100000000E-03 0. -1.
    9000002    1    1    2    0    0  0.13386986511E+00  0.60800482847E+00  0.27187078993E+00  0.11581661101E+01  0.93800000000E+00 0.  1.
         22    1    1    2    0    0 -0.96887326613E-01 -0.47755463234E+00  0.28786061194E+01  0.29195579754E+01  0.00000000000E+00 0. -1.
</event>
<event>
 5    1  0.3005426E+001  0.1599661E+01  0.7818608E-02  0.3353731E+00
         11   -1    0    0    0    0  0.00000000000E+00  0.00000000000E+00  0.39999999674E+01  0.40000000000E+01  0.51100000000E-03 0. -1.
    9000002   -1    0    0    0    0 -0.00000000000E+00 -0.00000000000E+00  0.00000000000E+00  0.93800000000E+00  0.93800000000E+00 0. -1.
         11    1    1    2    0    0 -0.63900114373E-01  0.22764474804E-01  0.52502795098E+00  0.52939215744E+00  0.51100000000E-03 0. -1.
    9000002    1    1    2    0    0  0.45118169434E+00 -0.14995124760E+00  0.15414064763E+00  0.10628516534E+01  0.93800000000E+00 0. -1.
         22    1    1    2    0    0 -0.38728157997E+00  0.12718677280E+00  0.33208313687E+01  0.33457561891E+01  0.00000000000E+00 0. -1.
</event>
<event>
 5    1  0.3005426E+001  0.1599457E+01  0.7818608E-02  0.3353952E+00
         11   -1    0    0    0    0  0.00000000000E+00  0.00000000000E+00  0.39999999674E+01  0.40000000000E+01  0.51100000000E-03 0.  1.
    9000002   -1    0    0    0    0 -0.00000000000E+00 -0.00000000000E+00  0.00000000000E+00  0.93800000000E+00  0.93800000000E+00 0.  1.
         11    1    1    2    0    0  0.13583018001E+00  0.49278948426E-01  0.14929646320E+01  0.14999406342E+01  0.51100000000E-03 0.  1.
    9000002    1    1    2    0    0 -0.35201728876E+00 -0.83876879507E-01  0.88099691203E-01  0.10092358783E+01  0.93800000000E+00 0.  1.
         22    1    1    2    0    0  0.21618710875E+00  0.34597931080E-01  0.24189356442E+01  0.24288234875E+01  0.00000000000E+00 0.  1.
</event>
<event>
 5    1  0.3005426E+001  0.1599677E+01  0.7818608E-02  0.3353714E+00
         11   -1    0    0    0    0  0.00000000000E+00  0.00000000000E+00  0.39999999674E+01  0.40000000000E+01  0.51100000000E-03 0. -1.
    9000002   -1    0    0    0    0 -0.00000000000E+00 -0.00000000000E+00  0.00000000000E+00  0.93800000000E+00  0.93800000000E+00 0.  1.
         11    1    1    2    0    0  0.80211070226E-01  0.30441015354E-01  0.67042034108E+00  0.67588768746E+00  0.51100000000E-03 0. -1.
    9000002    1    1    2    0    0 -0.45774647943E+00 -0.17528306526E+00  0.16420075987E+00  0.10710097488E+01  0.93800000000E+00 0.  1.
         22    1    1    2    0    0  0.37753540921E+00  0.14484204991E+00  0.31653788664E+01  0.31911025638E+01  0.00000000000E+00 0. -1.
</event>
<event>
 5    1  0.3005426E+001  0.1596954E+01  0.7818608E-02  0.3356676E+00
         11   -1    0    0    0    0  0.00000000000E+00  0.00000000000E+00  0.39999999674E+01  0.40000000000E+01  0.51100000000E-03 0. -1.
    9000002   -1    0    0    0    0 -0.00000000000E+00 -0.00000000000E+00  0.00000000000E+00  0.93800000000E+00  0.93800000000E+00 0. -1.
         11    1    1    2    0    0  0.17296735362E-01  0.83508980027E-01  0.32278466327E+00  0.33386093926E+00  0.51100000000E-03 0. -1.
    9000002    1    1    2    0    0 -0.51089848526E-01 -0.58282067178E+00  0.24073507277E+00  0.11314095118E+01  0.93800000000E+00 0. -1.
         22    1    1    2    0    0  0.33793113164E-01  0.49931169175E+00  0.34364802313E+01  0.34727295490E+01  0.00000000000E+00 0. -1.
</event>
<event>
 5    1  0.3005426E+001  0.1598932E+01  0.7818608E-02  0.3354523E+00
         11   -1    0    0    0    0  0.00000000000E+00  0.00000000000E+00  0.39999999674E+01  0.40000000000E+01  0.51100000000E-03 0.  1.
    9000002   -1    0    0    0    0 -0.00000000000E+00 -0.00000000000E+00  0.00000000000E+00  0.93800000000E+00  0.93800000000E+00 0. -1.
         11    1    1    2    0    0 -0.24489671698E-01 -0.73691190795E-01  0.78773065426E+00  0.79154910170E+00  0.51100000000E-03 0.  1.
    9000002    1    1    2    0    0 -0.90864114701E-02  0.37182196298E+00  0.93595504136E-01  0.10133796196E+01  0.93800000000E+00 0. -1.
         22    1    1    2    0    0  0.33576083168E-01 -0.29813077219E+00  0.31186738090E+01  0.31330712787E+01  0.00000000000E+00 0.  1.
</event>
<event>
 5    1  0.3005426E+001  0.1599659E+01  0.7818608E-02  0.3353733E+00
         11   -1    0    0    0    0  0.00000000000E+00  0.00000000000E+00  0.39999999674E+01  0.40000000000E+01  0.51100000000E-03 0. -1.
    9000002   -1    0    0    0    0 -0.00000000000E+00 -0.00000000000E+00  0.00000000000E+00  0.93800000000E+00  0.93800000000E+00 0.  1.
         11    1    1    2    0    0  0.15091832238E+00 -0.22752627227E-01  0.13219086614E+01  0.13306903443E+01  0.51100000000E-03 0. -1.
    9000002    1    1    2    0    0 -0.45366118787E+00  0.70833687592E-01  0.14340086402E+00  0.10541506972E+01  0.93800000000E+00 0.  1.
         22    1    1    2    0    0  0.30274286549E+00 -0.48081060365E-01  0.25346904419E+01  0.25531589585E+01  0.00000000000E+00 0. -1.
</event>
<event>
 5    1  0.3005426E+001  0.1596644E+01  0.7818608E-02  0.3357014E+00
         11   -1    0    0    0    0  0.00000000000E+00  0.00000000000E+00  0.39999999674E+01  0.40000000000E+01  0.51100000000E-03 0. -1.
    9000002   -1    0    0    0    0 -0.00000000000E+00 -0.00000000000E+00  0.00000000000E+00  0.93800000000E+00  0.93800000000E+00 0. -1.
         11    1    1    2    0    0 -0.15712932949E-01 -0.84275651809E-01  0.14383825194E+01  0.14409350488E+01  0.51100000000E-03 0. -1.
    9000002    1    1    2    0    0  0.75925796539E-01  0.39815172326E+00  0.11343052982E+00  0.10281050561E+01  0.93800000000E+00 0. -1.
         22    1    1    2    0    0 -0.60212863590E-01 -0.31387607145E+00  0.24481869181E+01  0.24689598950E+01  0.00000000000E+00 0.  1.
</event>
<event>
 5    1  0.3005426E+001  0.1570207E+01  0.7818608E-02  0.3386348E+00
         11   -1    0    0    0    0  0.00000000000E+00  0.00000000000E+00  0.39999999674E+01  0.40000000000E+01  0.51100000000E-03 0. -1.
    9000002   -1    0    0    0    0 -0.00000000000E+00 -0.00000000000E+00  0.00000000000E+00  0.93800000000E+00  0.93800000000E+00 0. -1.
         11    1    1    2    0    0 -0.12400945099E+00  0.81313483375E-01  0.13558619235E+01  0.13639472289E+01  0.51100000000E-03 0. -1.
    9000002    1    1    2    0    0 -0.60368522609E-01  0.14880811016E+00  0.39174753379E-01  0.95245308203E+00  0.93800000000E+00 0. -1.
         22    1    1    2    0    0  0.18437797360E+00 -0.23012159353E+00  0.26049632905E+01  0.26215996891E+01  0.00000000000E+00 0. -1.
</event>
<event>
 5    1  0.3005426E+001  0.1597468E+01  0.7818608E-02  0.3356116E+00
         11   -1    0    0    0    0  0.00000000000E+00  0.00000000000E+00  0.39999999674E+01  0.40000000000E+01  0.51100000000E-03 0.  1.
    9000002   -1    0    0    0    0 -0.00000000000E+00 -0.00000000000E+00  0.00000000000E+00  0.93800000000E+00  0.93800000000E+00 0. -1.
         11    1    1    2    0    0 -0.29043361800E-01  0.54659282263E-01  0.94001291847E+00  0.94204867284E+00  0.51100000000E-03 0.  1.
    9000002    1    1    2    0    0  0.23095497828E+00 -0.39052766671E+00  0.14180413794E+00  0.10515723817E+01  0.93800000000E+00 0. -1.
         22    1    1    2    0    0 -0.20191161648E+00  0.33586838445E+00  0.29181829110E+01  0.29443789454E+01  0.00000000000E+00 0.  1.
</event>
<event>
 5    1  0.3005426E+001  0.1598825E+01  0.7818608E-02  0.3354640E+00
         11   -1    0    0    0    0  0.00000000000E+00  0.00000000000E+00  0.39999999674E+01  0.40000000000E+01  0.51100000000E-03 0.  1.
    9000002   -1    0    0    0    0 -0.00000000000E+00 -0.00000000000E+00  0.00000000000E+00  0.93800000000E+00  0.93800000000E+00 0. -1.
         11    1    1    2    0    0  0.71702665411E-01 -0.92340521188E-01  0.13950975042E+01  0.13999876255E+01  0.51100000000E-03 0.  1.
    9000002    1    1    2    0    0 -0.13355212046E+00  0.32509880669E+00  0.83525633250E-01  0.10051596562E+01  0.93800000000E+00 0. -1.
         22    1    1    2    0    0  0.61849455049E-01 -0.23275828550E+00  0.25213768299E+01  0.25328527183E+01  0.00000000000E+00 0.  1.
</event>
<event>
 5    1  0.3005426E+001  0.1531109E+01  0.7818608E-02  0.3431706E+00
         11   -1    0    0    0    0  0.00000000000E+00  0.00000000000E+00  0.39999999674E+01  0.40000000000E+01  0.51100000000E-03 0. -1.
    9000002   -1    0    0    0    0 -0.00000000000E+00 -0.00000000000E+00  0.00000000000E+00  0.93800000000E+00  0.93800000000E+00 0.  1.
         11    1    1    2    0    0  0.99219634076E-01 -0.13519766137E+00  0.33398639195E+00  0.37372465071E+00  0.51100000000E-03 0. -1.
    9000002    1    1    2    0    0  0.23018022154E+00  0.78659515179E-02  0.89091507472E-01  0.96996190868E+00  0.93800000000E+00 0.  1.
         22    1    1    2    0    0 -0.32939985561E+00  0.12733170985E+00  0.35769220679E+01  0.35943134406E+01  0.00000000000E+00 0. -1.
</event>
<event>
 5    1  0.3005426E+001  0.1554457E+01  0.7818608E-02  0.3404328E+00
         11   -1    0    0    0    0  0.00000000000E+00  0.00000000000E+00  0.39999999674E+01  0.40000000000E+01  0.51100000000E-03 0. -1.
    9000002   -1    0    0    0    0 -0.00000000000E+00 -0.00000000000E+00  0.00000000000E+00  0.93800000000E+00  0.93800000000E+00 0. -1.
         11    1    1    2    0    0 -0.27779297505E+00  0.17924277674E+00  0.10376909721E+01  0.10890820560E+01  0.51100000000E-03 0. -1.
    9000002    1    1    2    0    0  0.56066584095E+00  0.61576602628E-01  0.26500115355E+00  0.11261471816E+01  0.93800000000E+00 0. -1.
         22    1    1    2    0    0 -0.28287286591E+00 -0.24081937937E+00  0.26973078417E+01  0.27227707624E+01  0.00000000000E+00 0. -1.
</event>
<event>
 5    1  0.3005426E+001  0.1596829E+01  0.7818608E-02  0.3356812E+00
         11   -1    0    0    0    0  0.00000000000E+00  0.00000000000E+00  0.39999999674E+01  0.40000000000E+01  0.51100000000E-03 0.  1.
    9000002   -1    0    0    0    0 -0.00000000000E+00 -0.00000000000E+00  0.00000000000E+00  0.93800000000E+00  0.93800000000E+00 0.  1.
         11    1    1    2    0    0  0.85657790448E-01  0.27154749529E-01  0.54369173653E+00  0.55106769364E+00  0.51100000000E-03 0.  1.
    9000002    1    1    2    0    0 -0.38485319660E+00  0.29411139878E-01  0.10266117197E+00  0.10194902228E+01  0.93800000000E+00 0.  1.
         22    1    1    2    0    0  0.29919540616E+00 -0.56565889408E-01  0.33536470589E+01  0.33674420836E+01  0.00000000000E+00 0.  1.
</event>
<event>
 5    1  0.4325914E+001  0.1537281E+01  0.7818608E-02  0.3424383E+00
         11   -1    0    0    0    0  0.00000000000E+00  0.00000000000E+00  0.39999999674E+01  0.40000000000E+01  0.51100000000E-03 0. -1.
    9000002   -1    0    0    0    0 -0.00000000000E+00 -0.00000000000E+00  0.00000000000E+00  0.93800000000E+00  0.93800000000E+00 0.  1.
         11    1    1    2    0    0 -0.17540458996E+00 -0.18723924549E+00  0.98487301830E+00  0.10177428106E+01  0.51100000000E-03 0. -1.
    9000002    1    1    2    0    0  0.67290078716E-01 -0.80340959192E-01  0.54298174703E-01  0.94539669779E+00  0.93800000000E+00 0.  1.
         22    1    1    2    0    0  0.10811451124E+00  0.26758020468E+00  0.29608287744E+01  0.29748604916E+01  0.00000000000E+00 0. -1.
</event>
<event>
 5    1  0.3005426E+001  0.1599618E+01  0.7818608E-02  0.3353778E+00
         11   -1    0    0    0    0  0.00000000000E+00  0.00000000000E+00  0.39999999674E+01  0.40000000000E+01  0.51100000000E-03 0.  1.
    9000002   -1    0    0    0    0 -0.00000000000E+00 -0.00000000000E+00  0.00000000000E+00  0.93800000000E+00  0.93800000000E+00 0. -1.
         11    1    1    2    0    0  0.92780662452E-01 -0.64409608736E-01  0.76790846658E+00  0.77617042149E+00  0.51100000000E-03 0.  1.
    9000002    1    1    2    0    0 -0.42509875061E+00  0.30811033114E+00  0.18956558419E+00  0.10915218892E+01  0.93800000000E+00 0. -1.
         22    1    1    2    0    0  0.33231808816E+00 -0.24370072241E+00  0.30425259166E+01  0.30703076893E+01  0.00000000000E+00 0.  1.
</event>
<event>
 5    1  0.3005426E+001  0.1599666E+01  0.7818608E-02  0.3353726E+00
         11   -1    0    0    0    0  0.00000000000E+00  0.00000000000E+00  0.39999999674E+01  0.40000000000E+01  0.51100000000E-03 0. -1.
    9000002   -1    0    0    0    0 -0.00000000000E+00 -0.00000000000E+00  0.00000000000E+00  0.93800000000E+00  0.93800000000E+00 0. -1.
         11    1    1    2    0    0 -0.30499341618E-01 -0.30870379956E-01  0.34426870911E+00  0.34699336505E+00  0.51100000000E-03 0. -1.
    9000002    1    1    2    0    0  0.32381805547E+00  0.36384658546E+00  0.16206964573E+00  0.10692768776E+01  0.93800000000E+00 0. -1.
         22    1    1    2    0    0 -0.29331871385E+00 -0.33297620550E+00  0.34936616125E+01  0.35217297574E+01  0.00000000000E+00 0. -1.
</event>
<event>
 5    1  0.3005426E+001  0.1599676E+01  0.7818608E-02  0.3353715E+00
         11   -1    0    0    0    0  0.00000000000E+00  0.00000000000E+00  0.39999999674E+01  0.40000000000E+01  0.51100000000E-03 0. -1.
    9000002   -1    0    0    0    0 -0.00000000000E+00 -0.00000000000E+00  0.00000000000E+00  0.93800000000E+00  0.93800000000E+00 0. -1.
         11    1    1    2    0    0 -0.37311443284E-02  0.11139398078E+00  0.11876096116E+01  0.11928283159E+01  0.51100000000E-03 0. -1.
    9000002    1    1    2    0    0  0.14298249961E-01 -0.36986783928E+00  0.92076268001E-01  0.10125851557E+01  0.93800000000E+00 0. -1.
         22    1    1    2    0    0 -0.10567105632E-01  0.25847385850E+00  0.27203140877E+01  0.27325865284E+01  0.00000000000E+00 0. -1.
</event>
<event>
 5    1  0.3005426E+001  0.1599674E+01  0.7818608E-02  0.3353717E+00
         11   -1    0    0    0    0  0.00000000000E+00  0.00000000000E+00  0.39999999674E+01  0.40000000000E+01  0.51100000000E-03 0. -1.
    9000002   -1    0    0    0    0 -0.00000000000E+00 -0.00000000000E+00  0.00000000000E+00  0.93800000000E+00  0.93800000000E+00 0.  1.
         11    1    1    2    0    0  0.12334333081E+00 -0.60963232836E-01  0.54889528594E+00  0.56587665534E+00  0.51100000000E-03 0. -1.
    9000002    1    1    2    0    0 -0.77195100325E+00  0.39024343098E+00  0.56443648833E+00  0.13952171287E+01  0.93800000000E+00 0.  1.
         22    1    1    2    0    0  0.64860767244E+00 -0.32928019814E+00  0.28866681931E+01  0.29769062160E+01  0.00000000000E+00 0. -1.
</event>
<event>
 5    1  0.3005426E+001  0.1599676E+01  0.7818608E-02  0.3353715E+00
         11   -1    0    0    0    0  0.00000000000E+00  0.00000000000E+00  0.39999999674E+01  0.40000000000E+01  0.51100000000E-03 0. -1.
    9000002   -1    0    0    0    0 -0.00000000000E+00 -0.00000000000E+00  0.00000000000E+00  0.93800000000E+00  0.93800000000E+00 0. -1.
         11    1    1    2    0    0 -0.58557581619E-01 -0.31211740230E-01  0.68471297843E+00  0.68792098896E+00  0.51100000000E-03 0. -1.
    9000002    1    1    2    0    0  0.33000823209E+00  0.17628009107E+00  0.94118738391E-01  0.10142398339E+01  0.93800000000E+00 0. -1.
         22    1    1    2    0    0 -0.27145065047E+00 -0.14506835084E+00  0.32211682505E+01  0.32358391771E+01  0.00000000000E+00 0. -1.
</event>
<event>
 5    1  0.3005426E+001  0.1597348E+01  0.7818608E-02  0.3356247E+00
         11   -1    0    0    0    0  0.00000000000E+00  0.00000000000E+00  0.39999999674E+01  0.40000000000E+01  0.51100000000E-03 0.  1.
    9000002   -1    0    0    0    0 -0.00000000000E+00 -0.00000000000E+00  0.00000000000E+00  0.93800000000E+00  0.93800000000E+00 0.  1.
         11    1    1    2    0    0  0.27679229162E-01  0.16270430238E-01  0.51308854150E+00  0.51409238389E+00  0.51100000000E-03 0.  1.
    9000002    1    1    2    0    0 -0.13771392609E+00 -0.41172609279E+00  0.12971153900E+00  0.10417065730E+01  0.93800000000E+00 0.  1.
         22    1    1    2    0    0  0.11003469693E+00  0.39545566255E+00  0.33571998869E+01  0.33822010431E+01  0.00000000000E+00 0.  1.
</event>
<event>
 5    1  0.3005426E+001  0.1596371E+01  0.7818608E-02  0.3357312E+00
         11   -1    0    0    0    0  0.00000000000E+00  0.00000000000E+00  0.39999999674E+01  0.40000000000E+01  0.51100000000E-03 0. -1.
    9000002   -1    0    0    0    0 -0.00000000000E+00 -0.00000000000E+00  0.00000000000E+00  0.93800000000E+00  0.93800000000E+00 0. -1.
         11    1    1    2    0    0 -0.17437169183E-01 -0.47481092095E-01  0.45018184176E+00  0.45301485709E+00  0.51100000000E-03 0. -1.
    9000002    1    1    2    0    0  0.34118386979E+00  0.79065609985E-01  0.84912462534E-01  0.10048442317E+01  0.93800000000E+00 0. -1.
         22    1    1    2    0    0 -0.32374670060E+00 -0.31584517890E-01  0.34649056631E+01  0.34801409112E+01  0.00000000000E+00 0. -1.
</event>
<event>
 5    1  0.3005426E+001  0.1598548E+01  0.7818608E-02  0.3354941E+00
         11   -1    0    0    0    0  0.00000000000E+00  0.00000000000E+00  0.39999999674E+01  0.40000000000E+01  0.51100000000E-03 0.  1.
    9000002   -1    0    0    0    0 -0.00000000000E+00 -0.00000000000E+00  0.00000000000E+00  0.93800000000E+00  0.93800000000E+00 0.  1.
         11    1    1    2    0    0 -0.64920714815E-01 -0.96778614510E-01  0.10268595242E+01  0.10334512775E+01  0.51100000000E-03 0.  1.
    9000002    1    1    2    0    0  0.20497386854E+00  0.48756129983E+00  0.19350146853E+00  0.10940827785E+01  0.93800000000E+00 0.  1.
         22    1    1    2    0    0 -0.14005315372E+00 -0.39078268532E+00  0.27796389747E+01  0.28104659440E+01  0.00000000000E+00 0.  1.
</event>
<event>
 5    1  0.3005426E+001  0.1599249E+01  0.7818608E-02  0.3354179E+00
         11   -1    0    0    0    0  0.00000000000E+00  0.00000000000E+00  0.39999999674E+01  0.40000000000E+01  0.51100000000E-03 0. -1.
    9000002   -1    0    0    0    0 -0.00000000000E+00 -0.00000000000E+00  0.00000000000E+00  0.93800000000E+00  0.93800000000E+00 0.  1.
         11    1    1    2    0    0  0.21163952206E-01  0.20133610099E+00  0.14420135061E+01  0.14561549887E+01  0.51100000000E-03 0. -1.
    9000002    1    1    2    0    0  0.61942540783E-02 -0.51793723479E+00  0.18462443206E+00  0.10873028690E+01  0.93800000000E+00 0.  1.
         22    1    1    2    0    0 -0.27358206285E-01  0.31660113380E+00  0.23733620292E+01  0.23945421423E+01  0.00000000000E+00 0.  1.
</event>
<event>
 5    1  0.3005426E+001  0.1599661E+01  0.7818608E-02  0.3353731E+00
         11   -1    0    0    0    0  0.00000000000E+00  0.00000000000E+00  0.39999999674E+01  0.40000000000E+01  0.51100000000E-03 0. -1.
    9000002   -1    0    0    0    0 -0.00000000000E+00 -0.00000000000E+00  0.00000000000E+00  0.93800000000E+00  0.93800000000E+00 0.  1.
         11    1    1    2    0    0 -0.59252673559E-01 -0.42392780341E-01  0.50888270012E+00  0.51407187314E+00  0.51100000000E-03 0. -1.
    9000002    1    1    2    0    0  0.42107811012E+00  0.30848910988E+00  0.18724650921E+00  0.10896685555E+01  0.93800000000E+00 0.  1.
         22    1    1    2    0    0 -0.36182543656E+00 -0.26609632954E+00  0.33038707580E+01  0.33342595713E+01  0.00000000000E+00 0. -1.
</event>
<event>
 5    1  0.3005426E+001  0.1463946E+01  0.7818608E-02  0.3515704E+00
         11   -1    0    0    0    0  0.00000000000E+00  0.00000000000E+00  0.39999999674E+01  0.40000000000E+01  0.51100000000E-03 0. -1.
    9000002   -1    0    0    0    0 -0.00000000000E+00 -0.00000000000E+00  0.00000000000E+00  0.93800000000E+00  0.93800000000E+00 0. -1.
         11    1    1    2    0    0 -0.37494526328E+00 -0.31002826535E+00  0.86340596056E+00  0.99104570511E+00  0.51100000000E-03 0. -1.
    9000002    1    1    2    0    0  0.39718670583E+00 -0.37181575212E-01  0.26342248345E+00  0.10527939749E+01  0.93800000000E+00 0. -1.
         22    1    1    2    0    0 -0.22241442551E-01  0.34720984056E+00  0.28731715233E+01  0.28941603200E+01  0.00000000000E+00 0.  1.
</event>
<event>
 5    1  0.3005426E+001  0.1595474E+01  0.7818608E-02  0.3358290E+00
         11   -1    0    0    0    0  0.00000000000E+00  0.00000000000E+00  0.39999999674E+01  0.40000000000E+01  0.51100000000E-03 0. -1.
    9000002   -1    0    0    0    0 -0.00000000000E+00 -0.00000000000E+00  0.00000000000E+00  0.93800000000E+00  0.93800000000E+00 0.  1.
         11    1    1    2    0    0 -0.70379123773E-01 -0.29747983592E-01  0.10376915762E+01  0.10405009525E+01  0.51100000000E-03 0. -1.
    9000002    1    1    2    0    0  0.10910441308E+00  0.31992381113E+00  0.79877066785E-01  0.10002396531E+01  0.93800000000E+00 0.  1.
         22    1    1    2    0    0 -0.38725289310E-01 -0.29017582754E+00  0.28824313243E+01  0.28972593944E+01  0.00000000000E+00 0. -1.
</event>
<event>
 5    1  0.3005426E+001  0.1599669E+01  0.7818608E-02  0.3353722E+00
         11   -1    0    0    0    0  0.00000000000E+00  0.00000000000E+00  0.39999999674E+01  0.40000000000E+01  0.51100000000E-03 0.  1.
    9000002   -1    0    0    0    0 -0.00000000000E+00 -0.00000000000E+00  0.00000000000E+00  0.93800000000E+00  0.93800000000E+00 0.  1.
         11    1    1    2    0    0  0.21081703932E-01 -0.57582606474E-01  0.67204665710E+00  0.67483862164E+00  0.51100000000E-03 0.  1.
    9000002    1    1    2    0    0 -0.12804493787E+00  0.34835594527E+00  0.92590320633E-01  0.10129976990E+01  0.93800000000E+00 0.  1.
         22    1    1    2    0    0  0.10696323394E+00 -0.29077333880E+00  0.32353629896E+01  0.32501636794E+01  0.00000000000E+00 0.  1.
</event>
<event>
 5    1  0.3005426E+001  0.1598890E+01  0.7818608E-02  0.3354569E+00
         11   -1    0    0    0    0  0.00000000000E+00  0.00000000000E+00  0.39999999674E+01  0.40000000000E+01  0.51100000000E-03 0.  1.
    9000002   -1    0    0    0    0 -0.00000000000E+00 -0.00000000000E+00  0.00000000000E+00  0.93800000000E+00  0.93800000000E+00 0.  1.
         11    1    1    2    0    0 -0.94183284436E-01  0.94049408671E-02  0.89545547162E+00  0.90044417193E+00  0.51100000000E-03 0.  1.
    9000002    1    1    2    0    0  0.51905616789E+00 -0.57593587634E-02  0.18578365037E+00  0.10880312681E+01  0.93800000000E+00 0.  1.
         22    1    1    2    0    0 -0.42487288346E+00 -0.36455821037E-02  0.29187608454E+01  0.29495245600E+01  0.00000000000E+00 0.  1.
</event>
<event>
 5    1  0.3005426E+001  0.1598032E+01  0.7818608E-02  0.3355502E+00
         11   -1    0    0    0    0  0.00000000000E+00  0.00000000000E+00  0.39999999674E+01  0.40000000000E+01  0.51100000000E-03 0. -1.
    9000002   -1    0    0    0    0 -0.00000000000E+00 -0.00000000000E+00  0.00000000000E+00  0.93800000000E+00  0.93800000000E+00 0. -1.
         11    1    1    2    0    0  0.35556231991E-01 -0.19146101100E+00  0.13711982518E+01  0.13849572092E+01  0.51100000000E-03 0. -1.
    9000002    1    1    2    0    0  0.12919092120E-01  0.46963452443E+00  0.15180724950E+00  0.10600060993E+01  0.93800000000E+00 0. -1.
         22    1    1    2    0    0 -0.48475324111E-01 -0.27817351343E+00  0.24769944661E+01  0.24930366916E+01  0.00000000000E+00 0. -1.
</event>
<event>
 5    1  0.3005426E+001  0.1599640E+01  0.7818608E-02  0.3353754E+00
         11   -1    0    0    0    0  0.00000000000E+00  0.00000000000E+00  0.39999999674E+01  0.40000000000E+01  0.51100000000E-03 0.  1.
    9000002   -1    0    0    0    0 -0.00000000000E+00 -0.00000000000E+00  0.00000000000E+00  0.93800000000E+00  0.93800000000E+00 0.  1.
         11    1    1    2    0    0 -0.98778948583E-01 -0.76590851348E-01  0.14182765095E+01  0.14237738436E+01  0.51100000000E-03 0.  1.
    9000002    1    1    2    0    0  0.29166667360E+00  0.21371134457E+00  0.87807621341E-01  0.10091066176E+01  0.93800000000E+00 0.  1.
         22    1    1    2    0    0 -0.19288772502E+00 -0.13712049323E+00  0.24939158365E+01  0.25051195388E+01  0.00000000000E+00 0.  1.
</event>
<event>
 5    1  0.3005426E+001  0.1599670E+01  0.7818608E-02  0.3353722E+00
         11   -1    0    0    0    0  0.00000000000E+00  0.00000000000E+00  0.39999999674E+01  0.40000000000E+01  0.51100000000E-03 0.  1.
    9000002   -1    0    0    0    0 -0.00000000000E+00 -0.00000000000E+00  0.00000000000E+00  0.93800000000E+00  0.93800000000E+00 0.  1.
         11    1    1    2    0    0  0.35190263480E-02  0.22452928412E-01  0.24926532397E+00  0.25029978105E+00  0.51100000000E-03 0.  1.
    9000002    1    1    2    0    0 -0.57005472502E-01 -0.37518485837E+00  0.96897829177E-01  0.10164873296E+01  0.93800000000E+00 0.  1.
         22    1    1    2    0    0  0.53486446154E-01  0.35273192996E+00  0.36538368142E+01  0.36712128894E+01  0.00000000000E+00 0.  1.
</event>
<event>
 5    1  0.3005426E+001  0.1599676E+01  0.7818608E-02  0.3353715E+00
         11   -1    0    0    0    0  0.00000000000E+00  0.00000000000E+00  0.39999999674E+01  0.40000000000E+01  0.51100000000E-03 0. -1.
    9000002   -1    0    0    0    0 -0.00000000000E+00 -0.00000000000E+00  0.00000000000E+00  0.93800000000E+00  0.93800000000E+00 0.  1.
         11    1    1    2    0    0  0.73376988873E-01  0.84830955432E-01  0.12109142964E+01  0.12160979269E+01  0.51100000000E-03 0. -1.
    9000002    1    1    2    0    0 -0.23950710478E+00 -0.27388584758E+00  0.88899202359E-01  0.10100119697E+01  0.93800000000E+00 0.  1.
         22    1    1    2    0    0  0.16613011591E+00  0.18905489215E+00  0.27001864686E+01  0.27118901034E+01  0.00000000000E+00 0. -1.
</event>
<event>
 5    1  0.3005426E+001  0.1599306E+01  0.7818608E-02  0.3354117E+00
         11   -1    0    0    0    0  0.00000000000E+00  0.00000000000E+00  0.39999999674E+01  0.40000000000E+01  0.51100000000E-03 0.  1.
    9000002   -1    0    0    0    0 -0.00000000000E+00 -0.00000000000E+00  0.00000000000E+00  0.93800000000E+00  0.93800000000E+00 0. -1.
         11    1    1    2    0    0 -0.95701165378E-01 -0.76296346701E-01  0.95772617752E+00  0.96551516705E+00  0.51100000000E-03 0.  1.
    9000002    1    1    2    0    0  0.32784729167E+00  0.25433185415E+00  0.11667104598E+00  0.10322909821E+01  0.93800000000E+00 0. -1.
         22    1    1    2    0    0 -0.23214612629E+00 -0.17803550745E+00  0.29256027439E+01  0.29401938509E+01  0.00000000000E+00 0.  1.
</event>
<event>
 5    1  0.3005426E+001  0.1599674E+01  0.7818608E-02  0.3353717E+00
         11   -1    0    0    0    0  0.00000000000E+00  0.00000000000E+00  0.39999999674E+01  0.40000000000E+01  0.51100000000E-03 0.  1.
    9000002   -1    0    0    0    0 -0.00000000000E+00 -0.00000000000E+00  0.00000000000E+00  0.93800000000E+00  0.93800000000E+00 0.  1.
         11    1    1    2    0    0  0.90984725749E-01  0.56372696968E-01  0.67948715818E+00  0.68786565588E+00  0.51100000000E-03 0.  1.
    9000002    1    1    2    0    0 -0.50694874151E+00 -0.31760229804E+00  0.24959201081E+00  0.11401791167E+01  0.93800000000E+00 0.  1.
         22    1    1    2    0    0  0.41596401576E+00  0.26122960107E+00  0.30709207984E+01  0.31099552274E+01  0.00000000000E+00 0.  1.
</event>
<event>
 5    1  0.3005426E+001  0.1599676E+01  0.7818608E-02  0.3353715E+00
         11   -1    0    0    0    0  0.00000000000E+00  0.00000000000E+00  0.39999999674E+01  0.40000000000E+01  0.51100000000E-03 0.  1.
    9000002   -1    0    0    0    0 -0.00000000000E+00 -0.00000000000E+00  0.00000000000E+00  0.93800000000E+00  0.93800000000E+00 0.  1.
         11    1    1    2    0    0 -0.69534460554E-02  0.64429566070E-01  0.62902079550E+00  0.63235033146E+00  0.51100000000E-03 0.  1.
    9000002    1    1    2    0    0  0.43142271065E-01 -0.39496606183E+00  0.10644334522E+00  0.10242234284E+01  0.93800000000E+00 0.  1.
         22    1    1    2    0    0 -0.36188825010E-01  0.33053649576E+00  0.32645358266E+01  0.32814262401E+01  0.00000000000E+00 0.  1.
</event>
<event>
 5    1  0.3005426E+001  0.1569771E+01  0.7818608E-02  0.3386841E+00
         11   -1    0    0    0    0  0.00000000000E+00  0.00000000000E+00  0.39999999674E+01  0.40000000000E+01  0.51100000000E-03 0.  1.
    9000002   -1    0    0    0    0 -0.00000000000E+00 -0.00000000000E+00  0.00000000000E+00  0.93800000000E+00  0.93800000000E+00 0. -1.
         11    1    1    2    0    0 -0.52222078195E-01  0.65312943234E-01  0.96571679838E-01  0.12774692353E+00  0.51100000000E-03 0.  1.
    9000002    1    1    2    0    0  0.33931434027E+00 -0.32760875373E+00  0.17836934983E+00  0.10649513332E+01  0.93800000000E+00 0. -1.
         22    1    1    2    0    0 -0.28709226207E+00  0.26229581049E+00  0.37250589377E+01  0.37453017433E+01  0.00000000000E+00 0.  1.
</event>
<event>
 5    1  0.3005426E+001  0.1599609E+01  0.7818608E-02  0.3353787E+00
         11   -1    0    0    0    0  0.00000000000E+00  0.00000000000E+00  0.39999999674E+01  0.40000000000E+01  0.51100000000E-03 0.  1.
    9000002   -1    0    0    0    0 -0.00000000000E+00 -0.00000000000E+00  0.00000000000E+00  0.93800000000E+00  0.93800000000E+00 0.  1.
         11    1    1    2    0    0 -0.73499275169E-01  0.41672884998E-02  0.81960472653E+00  0.82290441645E+00  0.51100000000E-03 0.  1.
    9000002    1    1    2    0    0  0.37887793910E+00  0.55687760780E-02  0.96648871250E-01  0.10162502193E+01  0.93800000000E+00 0.  1.
         22    1    1    2    0    0 -0.30537866394E+00 -0.97360645778E-02  0.30837463696E+01  0.30988453642E+01  0.00000000000E+00 0.  1.
</event>
<event>
 5    1  0.3005426E+001  0.1599671E+01  0.7818608E-02  0.3353721E+00
         11   -1    0    0    0    0  0.00000000000E+00  0.00000000000E+00  0.39999999674E+01  0.40000000000E+01  0.51100000000E-03 0.  1.
    9000002   -1    0    0    0    0 -0.00000000000E+00 -0.00000000000E+00  0.00000000000E+00  0.93800000000E+00  0.93800000000E+00 0.  1.
         11    1    1    2    0    0 -0.92477818789E-01 -0.60165592368E-01  0.55132084809E+00  0.56225170888E+00  0.51100000000E-03 0.  1.
    9000002    1    1    2    0    0  0.60827416046E+00  0.38180601878E+00  0.37046213898E+00  0.12380870271E+01  0.93800000000E+00 0.  1.
         22    1    1    2    0    0 -0.51579634167E+00 -0.32164042642E+00  0.30782169803E+01  0.31376612640E+01  0.00000000000E+00 0.  1.
</event>
<event>
 5    1  0.3005426E+001  0.1599660E+01  0.7818608E-02  0.3353732E+00
         11   -1    0    0    0    0  0.00000000000E+00  0.00000000000E+00  0.39999999674E+01  0.40000000000E+01  0.51100000000E-03 0.  1.
    9000002   -1    0    0    0    0 -0.00000000000E+00 -0.00000000000E+00  0.00000000000E+00  0.93800000000E+00  0.93800000000E+00 0. -1.
         11    1    1    2    0    0  0.89562717784E-01 -0.10600087999E+00  0.82443163626E+00  0.83602957541E+00  0.51100000000E-03 0.  1.
    9000002    1    1    2    0    0 -0.38746698215E+00  0.47676654251E+00  0.26417751051E+00  0.11519855708E+01  0.93800000000E+00 0. -1.
         22    1    1    2    0    0  0.29790426437E+00 -0.37076566252E+00  0.29113908206E+01  0.29499848538E+01  0.00000000000E+00 0.  1.
</event>
<event>
 5    1  0.3005426E+001  0.1591990E+01  0.7818608E-02  0.3362103E+00
         11   -1    0    0    0    0  0.00000000000E+00  0.00000000000E+00  0.39999999674E+01  0.40000000000E+01  0.51100000000E-03 0.  1.
    9000002   -1    0    0    0    0 -0.00000000000E+00 -0.00000000000E+00  0.00000000000E+00  0.93800000000E+00  0.93800000000E+00 0. -1.
         11    1    1    2    0    0  0.15202855447E+00 -0.77030888191E-01  0.14899697052E+01  0.14996854413E+01  0.51100000000E-03 0.  1.
    9000002    1    1    2    0    0 -0.33384717651E+00 -0.58656518679E-01  0.83119844593E-01  0.10008233775E+01  0.93800000000E+00 0. -1.
         22    1    1    2    0    0  0.18181862204E+00  0.13568740687E+00  0.24269104175E+01  0.24374911812E+01  0.00000000000E+00 0.  1.
</event>
<event>
 5    1  0.3005426E+001  0.1599677E+01  0.7818608E-02  0.3353714E+00
         11   -1    0    0    0    0  0.00000000000E+00  0.00000000000E+00  0.39999999674E+01  0.40000000000E+01  0.51100000000E-03 0.  1.
    9000002   -1    0    0    0    0 -0.00000000000E+00 -0.00000000000E+00  0.00000000000E+00  0.93800000000E+00  0.93800000000E+00 0. -1.
         11    1    1    2    0    0 -0.47531469374E-01 -0.58099157977E-01  0.76995356933E+00  0.77360423524E+00  0.51100000000E-03 0. -1.
    9000002    1    1    2    0    0  0.24013896424E+00  0.29396140109E+00  0.96938019358E-01  0.10165239825E+01  0.93800000000E+00 0. -1.
         22    1    1    2    0    0 -0.19260749487E+00 -0.23586224311E+00  0.31331083787E+01  0.31478717822E+01  0.00000000000E+00 0.  1.
</event>
<event>
 5    1  0.3005426E+001  0.1599323E+01  0.7818608E-02  0.3354099E+00
         11   -1    0    0    0    0  0.00000000000E+00  0.00000000000E+00  0.39999999674E+01  0.40000000000E+01  0.51100000000E-03 0. -1.
    9000002   -1    0    0    0    0 -0.00000000000E+00 -0.00000000000E+00  0.00000000000E+00  0.93800000000E+00  0.93800000000E+00 0.  1.
         11    1    1    2    0    0 -0.10505475280E+00 -0.22905355386E-01  0.92449790617E+00  0.93072971159E+00  0.51100000000E-03 0. -1.
    9000002    1    1    2    0    0  0.51071108699E+00  0.11648036940E+00  0.18893972729E+00  0.10908417444E+01  0.93800000000E+00 0.  1.
         22    1    1    2    0    0 -0.40565633419E+00 -0.93575014015E-01  0.28865623339E+01  0.29164285440E+01  0.00000000000E+00 0. -1.
</event>
<event>
 5    1  0.3005426E+001  0.1599035E+01  0.7818608E-02  0.3354411E+00
         11   -1    0    0    0    0  0.00000000000E+00  0.00000000000E+00  0.39999999674E+01  0.40000000000E+01  0.51100000000E-03 0.  1.
    9000002   -1    0    0    0    0 -0.00000000000E+00 -0.00000000000E+00  0.00000000000E+00  0.93800000000E+00  0.93800000000E+00 0.  1.
         11    1    1    2    0    0  0.81423000042E-02 -0.37962390392E-01  0.73678595798E+00  0.73780840950E+00  0.51100000000E-03 0.  1.
    9000002    1    1    2    0    0 -0.36141800020E-01  0.32924457582E+00  0.73924181018E-01  0.99750539094E+00  0.93800000000E+00 0.  1.
         22    1    1    2    0    0  0.27999500016E-01 -0.29128218543E+00  0.31892898284E+01  0.32026861996E+01  0.00000000000E+00 0.  1.
</event>
<event>
 5    1  0.3005426E+001  0.1599660E+01  0.7818608E-02  0.3353733E+00
         11   -1    0    0    0    0  0.00000000000E+00  0.00000000000E+00  0.39999999674E+01  0.40000000000E+01  0.51100000000E-03 0. -1.
    9000002   -1    0    0    0    0 -0.00000000000E+00 -0.00000000000E+00  0.00000000000E+00  0.93800000000E+00  0.93800000000E+00 0.  1.
         11    1    1    2    0    0 -0.97471783384E-01 -0.43263284790E-01  0.10295063226E+01  0.10350149708E+01  0.51100000000E-03 0. -1.
    9000002    1    1    2    0    0  0.37478285250E+00  0.14816962808E+00  0.10960998646E+00  0.10267788342E+01  0.93800000000E+00 0.  1.
         22    1    1    2    0    0 -0.27731106911E+00 -0.10490634329E+00  0.28608836583E+01  0.28762061950E+01  0.00000000000E+00 0. -1.
</event>
<event>
 5    1  0.3005426E+001  0.1599205E+01  0.7818608E-02  0.3354226E+00
         11   -1    0    0    0    0  0.00000000000E+00  0.00000000000E+00  0.39999999674E+01  0.40000000000E+01  0.51100000000E-03 0.  1.
    9000002   -1    0    0    0    0 -0.00000000000E+00 -0.00000000000E+00  0.00000000000E+00  0.93800000000E+00  0.93800000000E+00 0.  1.
         11    1    1    2    0    0  0.83690443484E-01  0.18359757322E-01  0.75280505890E+00  0.75766542012E+00  0.51100000000E-03 0.  1.
    9000002    1    1    2    0    0 -0.39566021758E+00  0.51864529484E-02  0.10594563435E+00  0.10235440315E+01  0.93800000000E+00 0.  1.
         22    1    1    2    0    0  0.31196977410E+00 -0.23546210270E-01  0.31412492741E+01  0.31567905483E+01  0.00000000000E+00 0.  1.
</event>
<event>
 5    1  0.3005426E+001  0.1599669E+01  0.7818608E-02  0.3353722E+00
         11   -1    0    0    0    0  0.00000000000E+00  0.00000000000E+00  0.39999999674E+01  0.40000000000E+01  0.51100000000E-03 0. -1.
    9000002   -1    0    0    0    0 -0.00000000000E+00 -0.00000000000E+00  0.00000000000E+00  0.93800000000E+00  0.93800000000E+00 0. -1.
         11    1    1    2    0    0 -0.16507081893E-01 -0.19223449208E+00  0.68086171236E+00  0.70767189868E+00  0.51100000000E-03 0. -1.
    9000002    1    1    2    0    0  0.85125666942E-01  0.94354179843E+00  0.70217472800E+00  0.15067882576E+01  0.93800000000E+00 0. -1.
         22    1    1    2    0    0 -0.68618585049E-01 -0.75130730635E+00  0.26169635270E+01  0.27235398437E+01  0.00000000000E+00 0. -1.
</event>
<event>
 5    1  0.3005426E+001  0.1598562E+01  0.7818608E-02  0.3354925E+00
         11   -1    0    0    0    0  0.00000000000E+00  0.00000000000E+00  0.39999999674E+01  0.40000000000E+01  0.51100000000E-03 0.  1.
    9000002   -1    0    0    0    0 -0.00000000000E+00 -0.00000000000E+00  0.00000000000E+00  0.93800000000E+00  0.93800000000E+00 0.  1.
         11    1    1    2    0    0  0.32449327795E-01 -0.43827713976E-01  0.41292078552E+00  0.41650649890E+00  0.51100000000E-03 0.  1.
    9000002    1    1    2    0    0 -0.77338720286E-01  0.36820451566E+00  0.96114365017E-01  0.10152033364E+01  0.93800000000E+00 0.  1.
         22    1    1    2    0    0  0.44889392491E-01 -0.32437680169E+00  0.34909648168E+01  0.35062901647E+01  0.00000000000E+00 0.  1.
</event>
<event>
 5    1  0.3005426E+001  0.1452090E+01  0.7818608E-02  0.3531407E+00
         11   -1    0    0    0    0  0.00000000000E+00  0.00000000000E+00  0.39999999674E+01  0.40000000000E+01  0.51100000000E-03 0. -1.
    9000002   -1    0    0    0    0 -0.00000000000E+00 -0.00000000000E+00  0.00000000000E+00  0.93800000000E+00  0.93800000000E+00 0. -1.
         11    1    1    2    0    0 -0.23501193491E+00  0.13864355428E+00  0.31677481457E+00  0.41808992928E+00  0.51100000000E-03 0. -1.
    9000002    1    1    2    0    0  0.17751137099E+00  0.22771667892E+00  0.18084936666E+00  0.99795574356E+00  0.93800000000E+00 0. -1.
         22    1    1    2    0    0  0.57500563930E-01 -0.36636023321E+00  0.35023757861E+01  0.35219543272E+01  0.00000000000E+00 0. -1.
</event>
<event>
 5    1  0.3005426E+001  0.1599643E+01  0.7818608E-02  0.3353751E+00
         11   -1    0    0    0    0  0.00000000000E+00  0.00000000000E+00  0.39999999674E+01  0.40000000000E+01  0.51100000000E-03 0.  1.
    9000002   -1    0    0    0    0 -0.00000000000E+00 -0.00000000000E+00  0.00000000000E+00  0.93800000000E+00  0.93800000000E+00 0.  1.
         11    1    1    2    0    0  0.22136413279E-01  0.34833021330E-01  0.35557243328E+00  0.35796002095E+00  0.51100000000E-03 0.  1.
    9000002    1    1    2    0    0 -0.20733704180E+00 -0.40687151960E+00  0.14180213528E+00  0.10528461084E+01  0.93800000000E+00 0.  1.
         22    1    1    2    0    0  0.18520062852E+00  0.37203849827E+00  0.35026253988E+01  0.35271938707E+01  0.00000000000E+00 0.  1.
</event>
<event>
 5    1  0.3005426E+001  0.1599672E+01  0.7818608E-02  0.3353719E+00
         11   -1    0    0    0    0  0.00000000000E+00  0.00000000000E+00  0.39999999674E+01  0.40000000000E+01  0.51100000000E-03 0.  1.
    9000002   -1    0    0    0    0 -0.00000000000E+00 -0.00000000000E+00  0.00000000000E+00  0.93800000000E+00  0.93800000000E+00 0.  1.
         11    1    1    2    0    0  0.81962504018E-01 -0.28031404791E-01  0.85308251002E+00  0.85746932408E+00  0.51100000000E-03 0.  1.
    9000002    1    1    2    0    0 -0.38366160904E+00  0.12824709412E+00  0.11044950785E+00  0.10274661265E+01  0.93800000000E+00 0.  1.
         22    1    1    2    0    0  0.30169910503E+00 -0.10021568933E+00  0.30364679495E+01  0.30530645494E+01  0.00000000000E+00 0.  1.
</event>
<event>
 5    1  0.3005426E+001  0.1599351E+01  0.7818608E-02  0.3354068E+00
         11   -1    0    0    0    0  0.00000000000E+00  0.00000000000E+00  0.39999999674E+01  0.40000000000E+01  0.51100000000E-03 0. -1.
    9000002   -1    0    0    0    0 -0.00000000000E+00 -0.00000000000E+00  0.00000000000E+00  0.93800000000E+00  0.93800000000E+00 0.  1.
         11    1    1    2    0    0  0.11056769531E+00 -0.37913618986E-02  0.76794189089E+00  0.77587022018E+00  0.51100000000E-03 0. -1.
    9000002    1    1    2    0    0 -0.47293967737E+00  0.53024885337E-01  0.15472133841E+00  0.10631398165E+01  0.93800000000E+00 0.  1.
         22    1    1    2    0    0  0.36237198206E+00 -0.49233523439E-01  0.30773367381E+01  0.30989899633E+01  0.00000000000E+00 0. -1.
</event>
<event>
 5    1  0.3005426E+001  0.1599675E+01  0.7818608E-02  0.3353716E+00
         11   -1    0    0    0    0  0.00000000000E+00  0.00000000000E+00  0.39999999674E+01  0.40000000000E+01  0.51100000000E-03 0.  1.
    9000002   -1    0    0    0    0 -0.00000000000E+00 -0.00000000000E+00  0.00000000000E+00  0.93800000000E+00  0.93800000000E+00 0. -1.
         11    1    1    2    0    0 -0.92410656394E-01 -0.14962437380E-01  0.10062134222E+01  0.10105589127E+01  0.51100000000E-03 0.  1.
    9000002    1    1    2    0    0  0.35400104999E+00  0.55615950426E-01  0.86182259597E-01  0.10078101305E+01  0.93800000000E+00 0. -1.
         22    1    1    2    0    0 -0.26159039360E+00 -0.40653513046E-01  0.29076042855E+01  0.29196309567E+01  0.00000000000E+00 0.  1.
</event>
<event>
 5    1  0.3005426E+001  0.1584651E+01  0.7818608E-02  0.3370193E+00
         11   -1    0    0    0    0  0.00000000000E+00  0.00000000000E+00  0.39999999674E+01  0.40000000000E+01  0.51100000000E-03 0. -1.
    9000002   -1    0    0    0    0 -0.00000000000E+00 -0.00000000000E+00  0.00000000000E+00  0.93800000000E+00  0.93800000000E+00 0.  1.
         11    1    1    2    0    0  0.26675959943E+00  0.15219770400E-01  0.88751924159E+00  0.92686729935E+00  0.51100000000E-03 0. -1.
    9000002    1    1    2    0    0 -0.64602312074E+00  0.20962706369E+00  0.34445847963E+00  0.12082156358E+01  0.93800000000E+00 0.  1.
         22    1    1    2    0    0  0.37926352131E+00 -0.22484683409E+00  0.27680222461E+01  0.28029170649E+01  0.00000000000E+00 0. -1.
</event>
<event>
 5    1  0.3005426E+001  0.1598592E+01  0.7818608E-02  0.3354893E+00
         11   -1    0    0    0    0  0.00000000000E+00  0.00000000000E+00  0.39999999674E+01  0.40000000000E+01  0.51100000000E-03 0.  1.
    9000002   -1    0    0    0    0 -0.00000000000E+00 -0.00000000000E+00  0.00000000000E+00  0.93800000000E+00  0.93800000000E+00 0.  1.
         11    1    1    2    0    0 -0.31365930477E-01 -0.25828070235E-01  0.41812039995E+00  0.42009027694E+00  0.51100000000E-03 0.  1.
    9000002    1    1    2    0    0  0.49355971179E+00  0.31207751801E+00  0.23817174802E+00  0.11302934787E+01  0.93800000000E+00 0.  1.
         22    1    1    2    0    0 -0.46219378131E+00 -0.28624944777E+00  0.33437078194E+01  0.33876162444E+01  0.00000000000E+00 0.  1.
</event>
<event>
 5    1  0.3005426E+001  0.1599559E+01  0.7818608E-02  0.3353842E+00
         11   -1    0    0    0    0  0.00000000000E+00  0.00000000000E+00  0.39999999674E+01  0.40000000000E+01  0.51100000000E-03 0. -1.
    9000002   -1    0    0    0    0 -0.00000000000E+00 -0.00000000000E+00  0.00000000000E+00  0.93800000000E+00  0.93800000000E+00 0.  1.
         11    1    1    2    0    0 -0.14128507310E+00 -0.20274546622E-01  0.13870019469E+01  0.13943267877E+01  0.51100000000E-03 0. -1.
    9000002    1    1    2    0    0  0.41542757363E+00  0.27851346712E-01  0.11728288068E+00  0.10329351580E+01  0.93800000000E+00 0.  1.
         22    1    1    2    0    0 -0.27414250053E+00 -0.75768000904E-02  0.24957151398E+01  0.25107380543E+01  0.00000000000E+00 0. -1.
</event>
<event>
 5    1  0.3005426E+001  0.1598490E+01  0.7818608E-02  0.3355004E+00
         11   -1    0    0    0    0  0.00000000000E+00  0.00000000000E+00  0.39999999674E+01  0.40000000000E+01  0.51100000000E-03 0. -1.
    9000002   -1    0    0    0    0 -0.00000000000E+00 -0.00000000000E+00  0.00000000000E+00  0.93800000000E+00  0.93800000000E+00 0. -1.
         11    1    1    2    0    0 -0.77551065376E-01 -0.16928733982E+00  0.14347139215E+01  0.14467469264E+01  0.51100000000E-03 0. -1.
    9000002    1    1    2    0    0  0.12722284843E+00  0.38793568255E+00  0.11354373462E+00  0.10292793239E+01  0.93800000000E+00 0. -1.
         22    1    1    2    0    0 -0.49671783054E-01 -0.21864834273E+00  0.24517423112E+01  0.24619737497E+01  0.00000000000E+00 0. -1.
</event>
<event>
 5    1  0.3005426E+001  0.1599675E+01  0.7818608E-02  0.3353716E+00
         11   -1    0    0    0    0  0.00000000000E+00  0.00000000000E+00  0.39999999674E+01  0.40000000000E+01  0.51100000000E-03 0. -1.
    9000002   -1    0    0    0    0 -0.00000000000E+00 -0.00000000000E+00  0.00000000000E+00  0.93800000000E+00  0.93800000000E+00 0.  1.
         11    1    1    2    0    0  0.16120466361E-01  0.19870849900E-01  0.23661070805E+00  0.23799077376E+00  0.51100000000E-03 0. -1.
    9000002    1    1    2    0    0 -0.27347352752E+00 -0.32671328490E+00  0.12287247878E+00  0.10375311980E+01  0.93800000000E+00 0.  1.
         22    1    1    2    0    0  0.25735306115E+00  0.30684243500E+00  0.36405167805E+01  0.36624780282E+01  0.00000000000E+00 0. -1.
</event>
<event>
 5    1  0.3259541E+001  0.1560444E+01  0.7818608E-02  0.3397448E+00
         11   -1    0    0    0    0  0.00000000000E+00  0.00000000000E+00  0.39999999674E+01  0.40000000000E+01  0.51100000000E-03 0.  1.
    9000002   -1    0    0    0    0 -0.00000000000E+00 -0.00000000000E+00  0.00000000000E+00  0.93800000000E+00  0.93800000000E+00 0. -1.
         11    1    1    2    0    0 -0.13501980054E+00 -0.88810939070E-01  0.74973568277E+00  0.76695605127E+00  0.51100000000E-03 0.  1.
    9000002    1    1    2    0    0 -0.75905230332E-01 -0.12606960942E+00  0.43810176613E-01  0.95048328864E+00  0.93800000000E+00 0. -1.
         22    1    1    2    0    0  0.21092503087E+00  0.21488054849E+00  0.32064541080E+01  0.32205606601E+01  0.00000000000E+00 0. -1.
</event>
<event>
 5    1  0.3005426E+001  0.1555428E+01  0.7818608E-02  0.3403208E+00
         11   -1    0    0    0    0  0.00000000000E+00  0.00000000000E+00  0.39999999674E+01  0.40000000000E+01  0.51100000000E-03 0.  1.
    9000002   -1    0    0    0    0 -0.00000000000E+00 -0.00000000000E+00  0.00000000000E+00  0.93800000000E+00  0.93800000000E+00 0. -1.
         11    1    1    2    0    0  0.13312078514E+00 -0.15009597783E+00  0.11936402575E+01  0.12103831094E+01  0.51100000000E-03 0.  1.
    9000002    1    1    2    0    0  0.69925298403E-01 -0.78821643873E-01  0.40379703378E-01  0.94476289054E+00  0.93800000000E+00 0. -1.
         22    1    1    2    0    0 -0.20304608354E+00  0.22891762170E+00  0.27659800065E+01  0.27828540001E+01  0.00000000000E+00 0.  1.
</event>
<event>
 5    1  0.3005426E+001  0.1599457E+01  0.7818608E-02  0.3353953E+00
         11   -1    0    0    0    0  0.00000000000E+00  0.00000000000E+00  0.39999999674E+01  0.40000000000E+01  0.51100000000E-03 0.  1.
    9000002   -1    0    0    0    0 -0.00000000000E+00 -0.00000000000E+00  0.00000000000E+00  0.93800000000E+00  0.93800000000E+00 0. -1.
         11    1    1    2    0    0 -0.72203831044E-01 -0.30196701195E+00  0.88383580048E+00  0.93678356778E+00  0.51100000000E-03 0.  1.
    9000002    1    1    2    0    0  0.29225255891E+00  0.10497690965E+01  0.10145897966E+01  0.17597338349E+01  0.93800000000E+00 0. -1.
         22    1    1    2    0    0 -0.22004872786E+00 -0.74780208459E+00  0.21015743703E+01  0.22414825974E+01  0.00000000000E+00 0.  1.
</event>
<event>
 5    1  0.3005426E+001  0.1599583E+01  0.7818608E-02  0.3353816E+00
         11   -1    0    0    0    0  0.00000000000E+00  0.00000000000E+00  0.39999999674E+01  0.40000000000E+01  0.51100000000E-03 0.  1.
    9000002   -1    0    0    0    0 -0.00000000000E+00 -0.00000000000E+00  0.00000000000E+00  0.93800000000E+00  0.93800000000E+00 0. -1.
         11    1    1    2    0    0 -0.11886418127E-01 -0.78047581802E-01  0.80954130052E+00  0.81338188468E+00  0.51100000000E-03 0.  1.
    9000002    1    1    2    0    0  0.26725824173E-01  0.40867111939E+00  0.11335401072E+00  0.10297667140E+01  0.93800000000E+00 0. -1.
         22    1    1    2    0    0 -0.14839406046E-01 -0.33062353759E+00  0.30771046561E+01  0.30948514013E+01  0.00000000000E+00 0.  1.
</event>
<event>
 5    1  0.3005426E+001  0.1591059E+01  0.7818608E-02  0.3363126E+00
         11   -1    0    0    0    0  0.00000000000E+00  0.00000000000E+00  0.39999999674E+01  0.40000000000E+01  0.51100000000E-03 0. -1.
    9000002   -1    0    0    0    0 -0.00000000000E+00 -0.00000000000E+00  0.00000000000E+00  0.93800000000E+00  0.93800000000E+00 0.  1.
         11    1    1    2    0    0  0.25926683705E-02  0.15661103251E-03  0.12842800838E+01  0.12842828120E+01  0.51100000000E-03 0. -1.
    9000002    1    1    2    0    0  0.12088993860E-01  0.31980973739E+00  0.75311227444E-01  0.99395180612E+00  0.93800000000E+00 0.  1.
         22    1    1    2    0    0 -0.14681662230E-01 -0.31996634842E+00  0.26404086561E+01  0.26597653819E+01  0.00000000000E+00 0. -1.
</event>
<event>
 5    1  0.3005426E+001  0.1599386E+01  0.7818608E-02  0.3354030E+00
         11   -1    0    0    0    0  0.00000000000E+00  0.00000000000E+00  0.39999999674E+01  0.40000000000E+01  0.51100000000E-03 0.  1.
    9000002   -1    0    0    0    0 -0.00000000000E+00 -0.00000000000E+00  0.00000000000E+00  0.93800000000E+00  0.93800000000E+00 0.  1.
         11    1    1    2    0    0 -0.15312082942E+00  0.96307310420E-01  0.14374106149E+01  0.14487479503E+01  0.51100000000E-03 0.  1.
    9000002    1    1    2    0    0  0.37131843698E+00 -0.22487200320E+00  0.12794331193E+00  0.10414692941E+01  0.93800000000E+00 0.  1.
         22    1    1    2    0    0 -0.21819760756E+00  0.12856469278E+00  0.24346460405E+01  0.24477827556E+01  0.00000000000E+00 0.  1.
</event>
<event>
 5    1  0.3005426E+001  0.1599677E+01  0.7818608E-02  0.3353714E+00
         11   -1    0    0    0    0  0.00000000000E+00  0.00000000000E+00  0.39999999674E+01  0.40000000000E+01  0.51100000000E-03 0. -1.
    9000002   -1    0    0    0    0 -0.00000000000E+00 -0.00000000000E+00  0.00000000000E+00  0.93800000000E+00  0.93800000000E+00 0.  1.
         11    1    1    2    0    0  0.66763003489E-01  0.13755553801E+00  0.12757898113E+01  0.12849197362E+01  0.51100000000E-03 0. -1.
    9000002    1    1    2    0    0 -0.20278661078E+00 -0.41553073517E+00  0.14547127290E+00  0.10558380996E+01  0.93800000000E+00 0.  1.
         22    1    1    2    0    0  0.13602360729E+00  0.27797519716E+00  0.25787388832E+01  0.25972421642E+01  0.00000000000E+00 0. -1.
</event>
<event>
 5    1  0.3005426E+001  0.1599675E+01  0.7818608E-02  0.3353716E+00
         11   -1    0    0    0    0  0.00000000000E+00  0.00000000000E+00  0.39999999674E+01  0.40000000000E+01  0.51100000000E-03 0. -1.
    9000002   -1    0    0    0    0 -0.00000000000E+00 -0.00000000000E+00  0.00000000000E+00  0.93800000000E+00  0.93800000000E+00 0. -1.
         11    1    1    2    0    0  0.13075473989E-01 -0.66269084894E-02  0.77259225279E-01  0.78639258312E-01  0.51100000000E-03 0.  1.
    9000002    1    1    2    0    0 -0.61910939457E+00  0.31567362840E+00  0.34468527776E+00  0.12172091944E+01  0.93800000000E+00 0. -1.
         22    1    1    2    0    0  0.60603392058E+00 -0.30904671991E+00  0.35780554643E+01  0.36421515473E+01  0.00000000000E+00 0. -1.
</event>
<event>
 5    1  0.3005426E+001  0.1599666E+01  0.7818608E-02  0.3353726E+00
         11   -1    0    0    0    0  0.00000000000E+00  0.00000000000E+00  0.39999999674E+01  0.40000000000E+01  0.51100000000E-03 0.  1.
    9000002   -1    0    0    0    0 -0.00000000000E+00 -0.00000000000E+00  0.00000000000E+00  0.93800000000E+00  0.93800000000E+00 0. -1.
         11    1    1    2    0    0  0.12316283282E+00 -0.61485221915E-02  0.13339473285E+01  0.13396352578E+01  0.51100000000E-03 0.  1.
    9000002    1    1    2    0    0 -0.35538945216E+00  0.27371814831E-01  0.85259015336E-01  0.10070570881E+01  0.93800000000E+00 0. -1.
         22    1    1    2    0    0  0.23222661934E+00 -0.21223292639E-01  0.25807936236E+01  0.25913076541E+01  0.00000000000E+00 0.  1.
</event>
<event>
 5    1  0.3005426E+001  0.1599653E+01  0.7818608E-02  0.3353740E+00
         11   -1    0    0    0    0  0.00000000000E+00  0.00000000000E+00  0.39999999674E+01  0.40000000000E+01  0.51100000000E-03 0.  1.
    9000002   -1    0    0    0    0 -0.00000000000E+00 -0.00000000000E+00  0.00000000000E+00  0.93800000000E+00  0.93800000000E+00 0.  1.
         11    1    1    2    0    0  0.17419937905E+00 -0.31618754828E-01  0.10123908082E+01  0.10277551162E+01  0.51100000000E-03 0.  1.
    9000002    1    1    2    0    0 -0.62044372150E+00  0.11582255909E+00  0.27989037711E+00  0.11647093629E+01  0.93800000000E+00 0.  1.
         22    1    1    2    0    0  0.44624434245E+00 -0.84203804265E-01  0.27077187821E+01  0.27455355209E+01  0.00000000000E+00 0.  1.
</event>
<event>
 5    1  0.3005426E+001  0.1599533E+01  0.7818608E-02  0.3353870E+00
         11   -1    0    0    0    0  0.00000000000E+00  0.00000000000E+00  0.39999999674E+01  0.40000000000E+01  0.51100000000E-03 0. -1.
    9000002   -1    0    0    0    0 -0.00000000000E+00 -0.00000000000E+00  0.00000000000E+00  0.93800000000E+00  0.93800000000E+00 0. -1.
         11    1    1    2    0    0  0.11772152426E-01  0.12212005103E-01  0.17673119789E+00  0.17754406234E+00  0.51100000000E-03 0. -1.
    9000002    1    1    2    0    0 -0.38340748814E+00 -0.22900277732E+00  0.13551489818E+00  0.10476888191E+01  0.93800000000E+00 0. -1.
         22    1    1    2    0    0  0.37163533571E+00  0.21679077222E+00  0.36877538713E+01  0.37127671186E+01  0.00000000000E+00 0. -1.
</event>
<event>
 5    1  0.3005426E+001  0.1597932E+01  0.7818608E-02  0.3355611E+00
         11   -1    0    0    0    0  0.00000000000E+00  0.00000000000E+00  0.39999999674E+01  0.40000000000E+01  0.51100000000E-03 0. -1.
    9000002   -1    0    0    0    0 -0.00000000000E+00 -0.00000000000E+00  0.00000000000E+00  0.93800000000E+00  0.93800000000E+00 0.  1.
         11    1    1    2    0    0  0.25099563512E-02  0.16030728346E-02  0.63115316308E-02  0.69975907229E-02  0.51100000000E-03 0. -1.
    9000002    1    1    2    0    0 -0.23511311117E+00  0.12023455820E+01  0.14989017656E+01  0.21511540104E+01  0.93800000000E+00 0.  1.
         22    1    1    2    0    0  0.23260315482E+00 -0.12039486548E+01  0.24947866702E+01  0.27798483989E+01  0.00000000000E+00 0. -1.
</event>
<event>
 5    1  0.3005426E+001  0.1597414E+01  0.7818608E-02  0.3356175E+00
         11   -1    0    0    0    0  0.00000000000E+00  0.00000000000E+00  0.39999999674E+01  0.40000000000E+01  0.51100000000E-03 0. -1.
    9000002   -1    0    0    0    0 -0.00000000000E+00 -0.00000000000E+00  0.00000000000E+00  0.93800000000E+00  0.93800000000E+00 0.  1.
         11    1    1    2    0    0 -0.12368634392E+00  0.17629992543E+00  0.53378751063E+00  0.57559477326E+00  0.51100000000E-03 0. -1.
    9000002    1    1    2    0    0  0.44011811875E+00 -0.10151672960E+01  0.10657700399E+01  0.17999939931E+01  0.93800000000E+00 0.  1.
         22    1    1    2    0    0 -0.31643177484E+00  0.83886737060E+00  0.24004424168E+01  0.25624112336E+01  0.00000000000E+00 0. -1.
</event>
<event>
 5    1  0.3005426E+001  0.1599667E+01  0.7818608E-02  0.3353725E+00
         11   -1    0    0    0    0  0.00000000000E+00  0.00000000000E+00  0.39999999674E+01  0.40000000000E+01  0.51100000000E-03 0.  1.
    9000002   -1    0    0    0    0 -0.00000000000E+00 -0.00000000000E+00  0.00000000000E+00  0.93800000000E+00  0.93800000000E+00 0.  1.
         11    1    1    2    0    0  0.79598636311E-01 -0.64645973001E-01  0.11823938028E+01  0.11868320904E+01  0.51100000000E-03 0.  1.
    9000002    1    1    2    0    0 -0.27092076120E+00  0.22301678365E+00  0.82579019391E-01  0.10048869783E+01  0.93800000000E+00 0.  1.
         22    1    1    2    0    0  0.19132212489E+00 -0.15837081065E+00  0.27350271451E+01  0.27462809313E+01  0.00000000000E+00 0. -1.
</event>
<event>
 5    1  0.3005426E+001  0.1599595E+01  0.7818608E-02  0.3353803E+00
         11   -1    0    0    0    0  0.00000000000E+00  0.00000000000E+00  0.39999999674E+01  0.40000000000E+01  0.51100000000E-03 0. -1.
    9000002   -1    0    0    0    0 -0.00000000000E+00 -0.00000000000E+00  0.00000000000E+00  0.93800000000E+00  0.93800000000E+00 0.  1.
         11    1    1    2    0    0  0.64437927598E-01  0.10926027059E+00  0.13843244873E+01  0.13901239515E+01  0.51100000000E-03 0. -1.
    9000002    1    1    2    0    0 -0.20928866883E+00 -0.31840972525E+00  0.97767216525E-01  0.10171474469E+01  0.93800000000E+00 0.  1.
         22    1    1    2    0    0  0.14485074123E+00  0.20914945466E+00  0.25179082635E+01  0.25307286017E+01  0.00000000000E+00 0. -1.
</event>
<event>
 5    1  0.3005426E+001  0.1599462E+01  0.7818608E-02  0.3353948E+00
         11   -1    0    0    0    0  0.00000000000E+00  0.00000000000E+00  0.39999999674E+01  0.40000000000E+01  0.51100000000E-03 0.  1.
    9000002   -1    0    0    0    0 -0.00000000000E+00 -0.00000000000E+00  0.00000000000E+00  0.93800000000E+00  0.93800000000E+00 0.  1.
         11    1    1    2    0    0 -0.19143714233E-01  0.19295971348E-01  0.14133042106E+00  0.14392138598E+00  0.51100000000E-03 0.  1.
    9000002    1    1    2    0    0  0.63716582090E+00 -0.53336111732E+00  0.51446133001E+00  0.13546102114E+01  0.93800000000E+00 0.  1.
         22    1    1    2    0    0 -0.61802210667E+00  0.51406514597E+00  0.33442082163E+01  0.34394684026E+01  0.00000000000E+00 0.  1.
</event>
<event>
 5    1  0.3005426E+001  0.1599593E+01  0.7818608E-02  0.3353806E+00
         11   -1    0    0    0    0  0.00000000000E+00  0.00000000000E+00  0.39999999674E+01  0.40000000000E+01  0.51100000000E-03 0. -1.
    9000002   -1    0    0    0    0 -0.00000000000E+00 -0.00000000000E+00  0.00000000000E+00  0.93800000000E+00  0.93800000000E+00 0.  1.
         11    1    1    2    0    0  0.27292156559E-01  0.15208516850E+00  0.13386053588E+01  0.13474937210E+01  0.51100000000E-03 0. -1.
    9000002    1    1    2    0    0 -0.95243881328E-01 -0.41464426798E+00  0.12257468928E+00  0.10372414475E+01  0.93800000000E+00 0.  1.
         22    1    1    2    0    0  0.67951724768E-01  0.26255909948E+00  0.25388199193E+01  0.25532648316E+01  0.00000000000E+00 0.  1.
</event>
<event>
 5    1  0.3005426E+001  0.1598055E+01  0.7818608E-02  0.3355477E+00
         11   -1    0    0    0    0  0.00000000000E+00  0.00000000000E+00  0.39999999674E+01  0.40000000000E+01  0.51100000000E-03 0.  1.
    9000002   -1    0    0    0    0 -0.00000000000E+00 -0.00000000000E+00  0.00000000000E+00  0.93800000000E+00  0.93800000000E+00 0. -1.
         11    1    1    2    0    0  0.19379099203E-01  0.26038458267E-02  0.40569019300E+00  0.40616144981E+00  0.51100000000E-03 0.  1.
    9000002    1    1    2    0    0 -0.46468165122E+00 -0.62840723253E-01  0.15118885208E+00  0.10595187882E+01  0.93800000000E+00 0. -1.
         22    1    1    2    0    0  0.44530255202E+00  0.60236877426E-01  0.34431209223E+01  0.34723197620E+01  0.00000000000E+00 0.  1.
</event>
<event>
 5    1  0.3005426E+001  0.1599676E+01  0.7818608E-02  0.3353715E+00
         11   -1    0    0    0    0  0.00000000000E+00  0.00000000000E+00  0.39999999674E+01  0.40000000000E+01  0.51100000000E-03 0. -1.
    9000002   -1    0    0    0    0 -0.00000000000E+00 -0.00000000000E+00  0.00000000000E+00  0.93800000000E+00  0.93800000000E+00 0. -1.
         11    1    1    2    0    0  0.42158235674E-01 -0.57756839216E-02  0.40783397799E+00  0.41004815581E+00  0.51100000000E-03 0. -1.
    9000002    1    1    2    0    0 -0.40844861465E+00  0.53609959088E-01  0.11464881326E+00  0.10308698506E+01  0.93800000000E+00 0. -1.
         22    1    1    2    0    0  0.36629037898E+00 -0.47834275166E-01  0.34775171761E+01  0.34970819936E+01  0.00000000000E+00 0. -1.
</event>
<event>
 5    1  0.3005426E+001  0.1599664E+01  0.7818608E-02  0.3353728E+00
         11   -1    0    0    0    0  0.00000000000E+00  0.00000000000E+00  0.39999999674E+01  0.40000000000E+01  0.51100000000E-03 0. -1.
    9000002   -1    0    0    0    0 -0.00000000000E+00 -0.00000000000E+00  0.00000000000E+00  0.93800000000E+00  0.93800000000E+00 0. -1.
         11    1    1    2    0    0  0.10191020318E+00  0.31699362187E-01  0.11856669731E+01  0.11904608231E+01  0.51100000000E-03 0. -1.
    9000002    1    1    2    0    0 -0.34535149743E+00 -0.95176670333E-01  0.86133518133E-01  0.10077644756E+01  0.93800000000E+00 0. -1.
         22    1    1    2    0    0  0.24344129425E+00  0.63477308146E-01  0.27281994761E+01  0.27397747013E+01  0.00000000000E+00 0.  1.
</event>
<event>
 5    1  0.3005426E+001  0.1599676E+01  0.7818608E-02  0.3353716E+00
         11   -1    0    0    0    0  0.00000000000E+00  0.00000000000E+00  0.39999999674E+01  0.40000000000E+01  0.51100000000E-03 0.  1.
    9000002   -1    0    0    0    0 -0.00000000000E+00 -0.00000000000E+00  0.00000000000E+00  0.93800000000E+00  0.93800000000E+00 0.  1.
         11    1    1    2    0    0  0.22800904357E-01 -0.31944029524E-01  0.41586144387E+00  0.41770959276E+00  0.51100000000E-03 0.  1.
    9000002    1    1    2    0    0 -0.21959370490E+00  0.30473070453E+00  0.94876808917E-01  0.10148535886E+01  0.93800000000E+00 0.  1.
         22    1    1    2    0    0  0.19679280054E+00 -0.27278667501E+00  0.34892617146E+01  0.35054368186E+01  0.00000000000E+00 0.  1.
</event>
<event>
 5    1  0.3005426E+001  0.1599677E+01  0.7818608E-02  0.3353714E+00
         11   -1    0    0    0    0  0.00000000000E+00  0.00000000000E+00  0.39999999674E+01  0.40000000000E+01  0.51100000000E-03 0.  1.
    9000002   -1    0    0    0    0 -0.00000000000E+00 -0.00000000000E+00  0.00000000000E+00  0.93800000000E+00  0.93800000000E+00 0.  1.
         11    1    1    2    0    0 -0.10786174600E+00  0.10530876246E+00  0.14338585419E+01  0.14417609618E+01  0.51100000000E-03 0.  1.
    9000002    1    1    2    0    0  0.29271290490E+00 -0.28615528555E+00  0.11316400088E+00  0.10296678024E+01  0.93800000000E+00 0.  1.
         22    1    1    2    0    0 -0.18485115889E+00  0.18084652309E+00  0.24529774246E+01  0.24665712359E+01  0.00000000000E+00 0. -1.
</event>
<event>
 5    1  0.3005426E+001  0.1597698E+01  0.7818608E-02  0.3355865E+00
         11   -1    0    0    0    0  0.00000000000E+00  0.00000000000E+00  0.39999999674E+01  0.40000000000E+01  0.51100000000E-03 0. -1.
    9000002   -1    0    0    0    0 -0.00000000000E+00 -0.00000000000E+00  0.00000000000E+00  0.93800000000E+00  0.93800000000E+00 0. -1.
         11    1    1    2    0    0 -0.12545508224E+00 -0.76109969415E-01  0.10255575101E+01  0.10360020139E+01  0.51100000000E-03 0. -1.
    9000002    1    1    2    0    0  0.39130254329E+00  0.12953380460E+00  0.11644366956E+00  0.10311643007E+01  0.93800000000E+00 0. -1.
         22    1    1    2    0    0 -0.26584746105E+00 -0.53423835182E-01  0.28579987877E+01  0.28708336854E+01  0.00000000000E+00 0. -1.
</event>
<event>
 5    1  0.3005426E+001  0.1331942E+01  0.7818608E-02  0.3722591E+00
         11   -1    0    0    0    0  0.00000000000E+00  0.00000000000E+00  0.39999999674E+01  0.40000000000E+01  0.51100000000E-03 0.  1.
    9000002   -1    0    0    0    0 -0.00000000000E+00 -0.00000000000E+00  0.00000000000E+00  0.93800000000E+00  0.93800000000E+00 0.  1.
         11    1    1    2    0    0  0.45469201384E+00 -0.43471640797E+00  0.12274706380E+01  0.13792779310E+01  0.51100000000E-03 0.  1.
    9000002    1    1    2    0    0 -0.16758414010E+00  0.46988350254E-03  0.25285373843E+00  0.98583146523E+00  0.93800000000E+00 0.  1.
         22    1    1    2    0    0 -0.28710787373E+00  0.43424652446E+00  0.25196755909E+01  0.25728906037E+01  0.00000000000E+00 0.  1.
</event>
<event>
 5    1  0.3005426E+001  0.1599586E+01  0.7818608E-02  0.3353812E+00
         11   -1    0    0    0    0  0.00000000000E+00  0.00000000000E+00  0.39999999674E+01  0.40000000000E+01  0.51100000000E-03 0.  1.
    9000002   -1    0    0    0    0 -0.00000000000E+00 -0.00000000000E+00  0.00000000000E+00  0.93800000000E+00  0.93800000000E+00 0. -1.
         11    1    1    2    0    0  0.20877789829E-01 -0.21750144171E+00  0.83290895699E+00  0.86109253336E+00  0.51100000000E-03 0.  1.
    9000002    1    1    2    0    0 -0.12479093111E+00  0.88799995527E+00  0.61475637516E+00  0.14359269124E+01  0.93800000000E+00 0. -1.
         22    1    1    2    0    0  0.10391314128E+00 -0.67049851356E+00  0.25523346352E+01  0.26409805542E+01  0.00000000000E+00 0.  1.
</event>
<event>
 5    1  0.3005426E+001  0.1599676E+01  0.7818608E-02  0.3353716E+00
         11   -1    0    0    0    0  0.00000000000E+00  0.00000000000E+00  0.39999999674E+01  0.40000000000E+01  0.51100000000E-03 0.  1.
    9000002   -1    0    0    0    0 -0.00000000000E+00 -0.00000000000E+00  0.00000000000E+00  0.93800000000E+00  0.93800000000E+00 0.  1.
         11    1    1    2    0    0 -0.44721327611E-01 -0.55872536531E-01  0.63081251420E+00  0.63485937551E+00  0.51100000000E-03 0.  1.
    9000002    1    1    2    0    0  0.27969342343E+00  0.34007813527E+00  0.13149702522E+00  0.10445176001E+01  0.93800000000E+00 0.  1.
         22    1    1    2    0    0 -0.23497209582E+00 -0.28420559874E+00  0.32376904279E+01  0.32586230244E+01  0.00000000000E+00 0.  1.
</event>
<event>
 5    1  0.3005426E+001  0.1599606E+01  0.7818608E-02  0.3353791E+00
         11   -1    0    0    0    0  0.00000000000E+00  0.00000000000E+00  0.39999999674E+01  0.40000000000E+01  0.51100000000E-03 0.  1.
    9000002   -1    0    0    0    0 -0.00000000000E+00 -0.00000000000E+00  0.00000000000E+00  0.93800000000E+00  0.93800000000E+00 0. -1.
         11    1    1    2    0    0  0.50315596123E-01  0.44508856615E-01  0.74115870019E+00  0.74419700182E+00  0.51100000000E-03 0.  1.
    9000002    1    1    2    0    0 -0.29729977823E+00 -0.25978555870E+00  0.10513026663E+00  0.10231187945E+01  0.93800000000E+00 0. -1.
         22    1    1    2    0    0  0.24698418211E+00  0.21527670209E+00  0.31537110005E+01  0.31706842037E+01  0.00000000000E+00 0.  1.
</event>
<event>
 5    1  0.3005426E+001  0.1598697E+01  0.7818608E-02  0.3354779E+00
         11   -1    0    0    0    0  0.00000000000E+00  0.00000000000E+00  0.39999999674E+01  0.40000000000E+01  0.51100000000E-03 0.  1.
    9000002   -1    0    0    0    0 -0.00000000000E+00 -0.00000000000E+00  0.00000000000E+00  0.93800000000E+00  0.93800000000E+00 0. -1.
         11    1    1    2    0    0  0.11475121066E+00  0.93906682523E-01  0.11811032486E+01  0.11903745001E+01  0.51100000000E-03 0.  1.
    9000002    1    1    2    0    0 -0.36063623886E+00 -0.19587583430E+00  0.11458261330E+00  0.10302422116E+01  0.93800000000E+00 0. -1.
         22    1    1    2    0    0  0.24588502821E+00  0.10196915178E+00  0.27043141054E+01  0.27173832883E+01  0.00000000000E+00 0.  1.
</event>
<event>
 5    1  0.3005426E+001  0.1559989E+01  0.7818608E-02  0.3397969E+00
         11   -1    0    0    0    0  0.00000000000E+00  0.00000000000E+00  0.39999999674E+01  0.40000000000E+01  0.51100000000E-03 0. -1.
    9000002   -1    0    0    0    0 -0.00000000000E+00 -0.00000000000E+00  0.00000000000E+00  0.93800000000E+00  0.93800000000E+00 0.  1.
         11    1    1    2    0    0 -0.63514915600E-02 -0.15167872602E+00  0.32184862612E+00  0.35585611787E+00  0.51100000000E-03 0. -1.
    9000002    1    1    2    0    0  0.35266511252E+00  0.21189465514E+00  0.14842941498E+00  0.10349624716E+01  0.93800000000E+00 0.  1.
         22    1    1    2    0    0 -0.34631362096E+00 -0.60215929123E-01  0.35297219263E+01  0.35471814105E+01  0.00000000000E+00 0. -1.
</event>
<event>
 5    1  0.3005426E+001  0.1599672E+01  0.7818608E-02  0.3353720E+00
         11   -1    0    0    0    0  0.00000000000E+00  0.00000000000E+00  0.39999999674E+01  0.40000000000E+01  0.51100000000E-03 0.  1.
    9000002   -1    0    0    0    0 -0.00000000000E+00 -0.00000000000E+00  0.00000000000E+00  0.93800000000E+00  0.93800000000E+00 0.  1.
         11    1    1    2    0    0 -0.92196663266E-02 -0.11435656300E+00  0.11850151587E+01  0.11905560101E+01  0.51100000000E-03 0.  1.
    9000002    1    1    2    0    0  0.26336918581E-01  0.36966454910E+00  0.92312406724E-01  0.10127739593E+01  0.93800000000E+00 0.  1.
         22    1    1    2    0    0 -0.17117252254E-01 -0.25530798609E+00  0.27226724020E+01  0.27346700306E+01  0.00000000000E+00 0.  1.
</event>
<event>
 5    1  0.3005426E+001  0.1595659E+01  0.7818608E-02  0.3358088E+00
         11   -1    0    0    0    0  0.00000000000E+00  0.00000000000E+00  0.39999999674E+01  0.40000000000E+01  0.51100000000E-03 0.  1.
    9000002   -1    0    0    0    0 -0.00000000000E+00 -0.00000000000E+00  0.00000000000E+00  0.93800000000E+00  0.93800000000E+00 0.  1.
         11    1    1    2    0    0 -0.12356320763E-01 -0.92671103358E-01  0.61514891884E+00  0.62221303870E+00  0.51100000000E-03 0.  1.
    9000002    1    1    2    0    0 -0.21966580977E+00  0.39524999914E+00  0.14240570375E+00  0.10509990553E+01  0.93800000000E+00 0.  1.
         22    1    1    2    0    0  0.23202213054E+00 -0.30257889579E+00  0.32424453448E+01  0.32647879060E+01  0.00000000000E+00 0.  1.
</event>
<event>
 5    1  0.3005426E+001  0.1599677E+01  0.7818608E-02  0.3353714E+00
         11   -1    0    0    0    0  0.00000000000E+00  0.00000000000E+00  0.39999999674E+01  0.40000000000E+01  0.51100000000E-03 0.  1.
    9000002   -1    0    0    0    0 -0.00000000000E+00 -0.00000000000E+00  0.00000000000E+00  0.93800000000E+00  0.93800000000E+00 0.  1.
         11    1    1    2    0    0  0.99117443880E-01  0.80397469578E-01  0.12336829276E+01  0.12402668453E+01  0.51100000000E-03 0.  1.
    9000002    1    1    2    0    0 -0.31458162232E+00 -0.25317168838E+00  0.11003986007E+00  0.10271369294E+01  0.93800000000E+00 0.  1.
         22    1    1    2    0    0  0.21546417844E+00  0.17277421881E+00  0.26562771797E+01  0.26705962253E+01  0.00000000000E+00 0.  1.
</event>
<event>
 5    1  0.3005426E+001  0.1599667E+01  0.7818608E-02  0.3353725E+00
         11   -1    0    0    0    0  0.00000000000E+00  0.00000000000E+00  0.39999999674E+01  0.40000000000E+01  0.51100000000E-03 0. -1.
    9000002   -1    0    0    0    0 -0.00000000000E+00 -0.00000000000E+00  0.00000000000E+00  0.93800000000E+00  0.93800000000E+00 0.  1.
         11    1    1    2    0    0 -0.13370431837E-02  0.80739188922E-01  0.66799356606E+00  0.67285679734E+00  0.51100000000E-03 0. -1.
    9000002    1    1    2    0    0  0.10924776617E-01 -0.45064772512E+00  0.13803643641E+00  0.10498098783E+01  0.93800000000E+00 0.  1.
         22    1    1    2    0    0 -0.95877334331E-02  0.36990853620E+00  0.31939699649E+01  0.32153333243E+01  0.00000000000E+00 0. -1.
</event>
<event>
 5    1  0.3005426E+001  0.1598398E+01  0.7818608E-02  0.3355104E+00
         11   -1    0    0    0    0  0.00000000000E+00  0.00000000000E+00  0.39999999674E+01  0.40000000000E+01  0.51100000000E-03 0. -1.
    9000002   -1    0    0    0    0 -0.00000000000E+00 -0.00000000000E+00  0.00000000000E+00  0.93800000000E+00  0.93800000000E+00 0. -1.
         11    1    1    2    0    0  0.65961511321E-01  0.12583672237E+00  0.12071564878E+01  0.12154887284E+01  0.51100000000E-03 0. -1.
    9000002    1    1    2    0    0 -0.90871894736E-01 -0.44560539685E+00  0.14167977302E+00  0.10520166487E+01  0.93800000000E+00 0. -1.
         22    1    1    2    0    0  0.24910383415E-01  0.31976867448E+00  0.26511637066E+01  0.26704946230E+01  0.00000000000E+00 0.  1.
</event>
<event>
 5    1  0.3005426E+001  0.1565205E+01  0.7818608E-02  0.3392016E+00
         11   -1    0    0    0    0  0.00000000000E+00  0.00000000000E+00  0.39999999674E+01  0.40000000000E+01  0.51100000000E-03 0.  1.
    9000002   -1    0    0    0    0 -0.00000000000E+00 -0.00000000000E+00  0.00000000000E+00  0.93800000000E+00  0.93800000000E+00 0. -1.
         11    1    1    2    0    0 -0.14345779484E+00 -0.15356652459E+00  0.14791654271E+01  0.14940192229E+01  0.51100000000E-03 0.  1.
    9000002    1    1    2    0    0 -0.70315748819E-01  0.52965547226E-01  0.30657185045E-01  0.94262055819E+00  0.93800000000E+00 0. -1.
         22    1    1    2    0    0  0.21377354366E+00  0.10060097736E+00  0.24901773552E+01  0.25013602189E+01  0.00000000000E+00 0.  1.
</event>
<event>
 5    1  0.3093365E+001  0.1595839E+01  0.7818608E-02  0.3357892E+00
         11   -1    0    0    0    0  0.00000000000E+00  0.00000000000E+00  0.39999999674E+01  0.40000000000E+01  0.51100000000E-03 0. -1.
    9000002   -1    0    0    0    0 -0.00000000000E+00 -0.00000000000E+00  0.00000000000E+00  0.93800000000E+00  0.93800000000E+00 0.  1.
         11    1    1    2    0    0  0.10882216136E+00 -0.19530808300E-02  0.13722867132E+01  0.13765962232E+01  0.51100000000E-03 0. -1.
    9000002    1    1    2    0    0 -0.25275596604E+00 -0.18926534165E+00  0.69651852528E-01  0.99217051381E+00  0.93800000000E+00 0.  1.
         22    1    1    2    0    0  0.14393380467E+00  0.19121842248E+00  0.25580614016E+01  0.25692332630E+01  0.00000000000E+00 0. -1.
</event>
<event>
 5    1  0.3005426E+001  0.1599645E+01  0.7818608E-02  0.3353749E+00
         11   -1    0    0    0    0  0.00000000000E+00  0.00000000000E+00  0.39999999674E+01  0.40000000000E+01  0.51100000000E-03 0.  1.
    9000002   -1    0    0    0    0 -0.00000000000E+00 -0.00000000000E+00  0.00000000000E+00  0.93800000000E+00  0.93800000000E+00 0.  1.
         11    1    1    2    0    0  0.50029084618E-01 -0.17815333775E-01  0.48323197345E+00  0.48614164264E+00  0.51100000000E-03 0.  1.
    9000002    1    1    2    0    0 -0.36835120927E+00  0.13392621280E+00  0.10353978800E+00  0.10218528913E+01  0.93800000000E+00 0.  1.
         22    1    1    2    0    0  0.31832212465E+00 -0.11611087903E+00  0.34132282059E+01  0.34300054660E+01  0.00000000000E+00 0.  1.
</event>
<event>
 5    1  0.3005426E+001  0.1581676E+01  0.7818608E-02  0.3373495E+00
         11   -1    0    0    0    0  0.00000000000E+00  0.00000000000E+00  0.39999999674E+01  0.40000000000E+01  0.51100000000E-03 0. -1.
    9000002   -1    0    0    0    0 -0.00000000000E+00 -0.00000000000E+00  0.00000000000E+00  0.93800000000E+00  0.93800000000E+00 0.  1.
         11    1    1    2    0    0  0.80131980087E-01  0.46652015114E-02  0.13360567465E+01  0.13384658342E+01  0.51100000000E-03 0. -1.
    9000002    1    1    2    0    0  0.21379127227E+00  0.19382858358E-01  0.44222053540E-01  0.96326631485E+00  0.93800000000E+00 0.  1.
         22    1    1    2    0    0 -0.29392325236E+00 -0.24048059869E-01  0.26197211673E+01  0.26362678509E+01  0.00000000000E+00 0.  1.
</event>
<event>
 5    1  0.3005426E+001  0.1599676E+01  0.7818608E-02  0.3353715E+00
         11   -1    0    0    0    0  0.00000000000E+00  0.00000000000E+00  0.39999999674E+01  0.40000000000E+01  0.51100000000E-03 0. -1.
    9000002   -1    0    0    0    0 -0.00000000000E+00 -0.00000000000E+00  0.00000000000E+00  0.93800000000E+00  0.93800000000E+00 0.  1.
         11    1    1    2    0    0  0.13503726181E+00  0.18480409657E-01  0.91786066452E+00  0.92792513072E+00  0.51100000000E-03 0.  1.
    9000002    1    1    2    0    0 -0.55935283419E+00 -0.76813514600E-01  0.22080156601E+00  0.11168586485E+01  0.93800000000E+00 0.  1.
         22    1    1    2    0    0  0.42431557239E+00  0.58333104943E-01  0.28613377368E+01  0.28932162208E+01  0.00000000000E+00 0. -1.
</event>
<event>
 5    1  0.3005426E+001  0.1599090E+01  0.7818608E-02  0.3354352E+00
         11   -1    0    0    0    0  0.00000000000E+00  0.00000000000E+00  0.39999999674E+01  0.40000000000E+01  0.51100000000E-03 0. -1.
    9000002   -1    0    0    0    0 -0.00000000000E+00 -0.00000000000E+00  0.00000000000E+00  0.93800000000E+00  0.93800000000E+00 0. -1.
         11    1    1    2    0    0  0.69579260142E-01 -0.35313541044E-01  0.90295110062E+00  0.90631631942E+00  0.51100000000E-03 0. -1.
    9000002    1    1    2    0    0 -0.37434268419E+00  0.75892941211E-01  0.98668307971E-01  0.10175812590E+01  0.93800000000E+00 0. -1.
         22    1    1    2    0    0  0.30476342405E+00 -0.40579400167E-01  0.29983805588E+01  0.30141024215E+01  0.00000000000E+00 0. -1.
</event>
<event>
 5    1  0.3005426E+001  0.1543829E+01  0.7818608E-02  0.3416680E+00
         11   -1    0    0    0    0  0.00000000000E+00  0.00000000000E+00  0.39999999674E+01  0.40000000000E+01  0.51100000000E-03 0. -1.
    9000002   -1    0    0    0    0 -0.00000000000E+00 -0.00000000000E+00  0.00000000000E+00  0.93800000000E+00  0.93800000000E+00 0. -1.
         11    1    1    2    0    0  0.21825619260E+00 -0.19691396343E-01  0.91609136512E+00  0.94193798473E+00  0.51100000000E-03 0. -1.
    9000002    1    1    2    0    0  0.92096395851E-01  0.18862566389E+00  0.72431128070E-01  0.96392512962E+00  0.93800000000E+00 0. -1.
         22    1    1    2    0    0 -0.31035258845E+00 -0.16893426754E+00  0.30114774742E+01  0.30321368857E+01  0.00000000000E+00 0. -1.
</event>
<event>
 5    1  0.3005426E+001  0.1599616E+01  0.7818608E-02  0.3353781E+00
         11   -1    0    0    0    0  0.00000000000E+00  0.00000000000E+00  0.39999999674E+01  0.40000000000E+01  0.51100000000E-03 0. -1.
    9000002   -1    0    0    0    0 -0.00000000000E+00 -0.00000000000E+00  0.00000000000E+00  0.93800000000E+00  0.93800000000E+00 0.  1.
         11    1    1    2    0    0  0.12010863965E+00  0.51258481387E-01  0.11661805800E+01  0.11734696091E+01  0.51100000000E-03 0. -1.
    9000002    1    1    2    0    0 -0.37422246888E+00 -0.15865567932E+00  0.11158494770E+00  0.10283527028E+01  0.93800000000E+00 0.  1.
         22    1    1    2    0    0  0.25411382923E+00  0.10739719793E+00  0.27222344397E+01  0.27361776881E+01  0.00000000000E+00 0. -1.
</event>
<event>
 5    1  0.3005426E+001  0.1598761E+01  0.7818608E-02  0.3354710E+00
         11   -1    0    0    0    0  0.00000000000E+00  0.00000000000E+00  0.39999999674E+01  0.40000000000E+01  0.51100000000E-03 0.  1.
    9000002   -1    0    0    0    0 -0.00000000000E+00 -0.00000000000E+00  0.00000000000E+00  0.93800000000E+00  0.93800000000E+00 0. -1.
         11    1    1    2    0    0 -0.13709690482E+00  0.95242157982E-01  0.13392728827E+01  0.13496365234E+01  0.51100000000E-03 0.  1.
    9000002    1    1    2    0    0  0.29724075061E+00 -0.28335149495E+00  0.11467779265E+00  0.10303567972E+01  0.93800000000E+00 0. -1.
         22    1    1    2    0    0 -0.16014384578E+00  0.18810933696E+00  0.25460492920E+01  0.25580066793E+01  0.00000000000E+00 0.  1.
</event>
<event>
 5    1  0.3005426E+001  0.1596918E+01  0.7818608E-02  0.3356716E+00
         11   -1    0    0    0    0  0.00000000000E+00  0.00000000000E+00  0.39999999674E+01  0.40000000000E+01  0.51100000000E-03 0.  1.
    9000002   -1    0    0    0    0 -0.00000000000E+00 -0.00000000000E+00  0.00000000000E+00  0.93800000000E+00  0.93800000000E+00 0. -1.
         11    1    1    2    0    0  0.42299087402E-01  0.89776174100E-01  0.11955177710E+01  0.11996299330E+01  0.51100000000E-03 0.  1.
    9000002    1    1    2    0    0  0.50079546475E-01 -0.32284463540E+00  0.73585758338E-01  0.99598970046E+00  0.93800000000E+00 0. -1.
         22    1    1    2    0    0 -0.92378633877E-01  0.23306846130E+00  0.27308964380E+01  0.27423803665E+01  0.00000000000E+00 0.  1.
</event>
<event>
 5    1  0.3005426E+001  0.1599677E+01  0.7818608E-02  0.3353714E+00
         11   -1    0    0    0    0  0.00000000000E+00  0.00000000000E+00  0.39999999674E+01  0.40000000000E+01  0.51100000000E-03 0.  1.
    9000002   -1    0    0    0    0 -0.00000000000E+00 -0.00000000000E+00  0.00000000000E+00  0.93800000000E+00  0.93800000000E+00 0. -1.
         11    1    1    2    0    0 -0.13599929188E+00 -0.56747411983E-01  0.85859058764E+00  0.87114530043E+00  0.51100000000E-03 0.  1.
    9000002    1    1    2    0    0  0.58648991989E+00  0.24619293747E+00  0.28455500468E+00  0.11685020065E+01  0.93800000000E+00 0. -1.
         22    1    1    2    0    0 -0.45049062801E+00 -0.18944552548E+00  0.28568543750E+01  0.28983526930E+01  0.00000000000E+00 0.  1.
</event>
<event>
 5    1  0.3005426E+001  0.1599677E+01  0.7818608E-02  0.3353714E+00
         11   -1    0    0    0    0  0.00000000000E+00  0.00000000000E+00  0.39999999674E+01  0.40000000000E+01  0.51100000000E-03 0.  1.
    9000002   -1    0    0    0    0 -0.00000000000E+00 -0.00000000000E+00  0.00000000000E+00  0.93800000000E+00  0.93800000000E+00 0. -1.
         11    1    1    2    0    0 -0.90964169473E-01  0.12254550103E+00  0.12313633481E+01  0.12407851692E+01  0.51100000000E-03 0.  1.
    9000002    1    1    2    0    0  0.28485627827E+00 -0.38348851762E+00  0.15565296341E+00  0.10640857049E+01  0.93800000000E+00 0. -1.
         22    1    1    2    0    0 -0.19389210880E+00  0.26094301659E+00  0.26129836558E+01  0.26331291259E+01  0.00000000000E+00 0.  1.
</event>
<event>
 5    1  0.3005426E+001  0.1599646E+01  0.7818608E-02  0.3353747E+00
         11   -1    0    0    0    0  0.00000000000E+00  0.00000000000E+00  0.39999999674E+01  0.40000000000E+01  0.51100000000E-03 0. -1.
    9000002   -1    0    0    0    0 -0.00000000000E+00 -0.00000000000E+00  0.00000000000E+00  0.93800000000E+00  0.93800000000E+00 0.  1.
         11    1    1    2    0    0  0.37337626728E-01 -0.11293189689E-01  0.43178398909E+00  0.43354274168E+00  0.51100000000E-03 0. -1.
    9000002    1    1    2    0    0 -0.36813847425E+00  0.12327382912E+00  0.10153955138E+00  0.10202336270E+01  0.93800000000E+00 0.  1.
         22    1    1    2    0    0  0.33080084752E+00 -0.11198063943E+00  0.34666764269E+01  0.34842236313E+01  0.00000000000E+00 0. -1.
</event>
<event>
 5    1  0.3005426E+001  0.1573209E+01  0.7818608E-02  0.3382965E+00
         11   -1    0    0    0    0  0.00000000000E+00  0.00000000000E+00  0.39999999674E+01  0.40000000000E+01  0.51100000000E-03 0. -1.
    9000002   -1    0    0    0    0 -0.00000000000E+00 -0.00000000000E+00  0.00000000000E+00  0.93800000000E+00  0.93800000000E+00 0. -1.
         11    1    1    2    0    0 -0.55403404825E-01 -0.24802353828E+00  0.12352477303E+01  0.12611195142E+01  0.51100000000E-03 0. -1.
    9000002    1    1    2    0    0  0.60401208043E+00  0.41086095332E+00  0.41624978783E+00  0.12596607488E+01  0.93800000000E+00 0. -1.
         22    1    1    2    0    0 -0.54860867560E+00 -0.16283741504E+00  0.23485024492E+01  0.24172197370E+01  0.00000000000E+00 0. -1.
</event>
<event>
 5    1  0.3005426E+001  0.1598914E+01  0.7818608E-02  0.3354543E+00
         11   -1    0    0    0    0  0.00000000000E+00  0.00000000000E+00  0.39999999674E+01  0.40000000000E+01  0.51100000000E-03 0.  1.
    9000002   -1    0    0    0    0 -0.00000000000E+00 -0.00000000000E+00  0.00000000000E+00  0.93800000000E+00  0.93800000000E+00 0.  1.
         11    1    1    2    0    0  0.10541267132E+00 -0.12784604949E+00  0.12281054906E+01  0.12392335538E+01  0.51100000000E-03 0.  1.
    9000002    1    1    2    0    0 -0.29785103807E+00  0.31142380154E+00  0.12642870442E+00  0.10399655006E+01  0.93800000000E+00 0.  1.
         22    1    1    2    0    0  0.19243836676E+00 -0.18357775205E+00  0.26454657723E+01  0.26588009457E+01  0.00000000000E+00 0.  1.
</event>
<event>
 5    1  0.3005426E+001  0.1599653E+01  0.7818608E-02  0.3353740E+00
         11   -1    0    0    0    0  0.00000000000E+00  0.00000000000E+00  0.39999999674E+01  0.40000000000E+01  0.51100000000E-03 0. -1.
    9000002   -1    0    0    0    0 -0.00000000000E+00 -0.00000000000E+00  0.00000000000E+00  0.93800000000E+00  0.93800000000E+00 0. -1.
         11    1    1    2    0    0  0.76217328932E-01  0.10561466721E+00  0.11612961308E+01  0.11685771278E+01  0.51100000000E-03 0. -1.
    9000002    1    1    2    0    0 -0.24313520538E+00 -0.33913956345E+00  0.11774222208E+00  0.10333622804E+01  0.93800000000E+00 0. -1.
         22    1    1    2    0    0  0.16691787644E+00  0.23352489624E+00  0.27209616145E+01  0.27360605919E+01  0.00000000000E+00 0. -1.
</event>
<event>
 5    1  0.3005426E+001  0.1599240E+01  0.7818608E-02  0.3354188E+00
         11   -1    0    0    0    0  0.00000000000E+00  0.00000000000E+00  0.39999999674E+01  0.40000000000E+01  0.51100000000E-03 0. -1.
    9000002   -1    0    0    0    0 -0.00000000000E+00 -0.00000000000E+00  0.00000000000E+00  0.93800000000E+00  0.93800000000E+00 0. -1.
         11    1    1    2    0    0 -0.85461948667E-01 -0.25101612252E-01  0.65551662201E+00  0.66154073076E+00  0.51100000000E-03 0. -1.
    9000002    1    1    2    0    0  0.46697176427E+00  0.41855390145E-01  0.15010371612E+00  0.10593345212E+01  0.93800000000E+00 0. -1.
         22    1    1    2    0    0 -0.38150981561E+00 -0.16753777893E-01  0.31943796292E+01  0.32171247480E+01  0.00000000000E+00 0. -1.
</event>
<event>
 5    1  0.3005426E+001  0.1596539E+01  0.7818608E-02  0.3357128E+00
         11   -1    0    0    0    0  0.00000000000E+00  0.00000000000E+00  0.39999999674E+01  0.40000000000E+01  0.51100000000E-03 0.  1.
    9000002   -1    0    0    0    0 -0.00000000000E+00 -0.00000000000E+00  0.00000000000E+00  0.93800000000E+00  0.93800000000E+00 0. -1.
         11    1    1    2    0    0 -0.94390211125E-01  0.75801064081E-02  0.10566257091E+01  0.10608605565E+01  0.51100000000E-03 0.  1.
    9000002    1    1    2    0    0  0.34496758587E+00  0.19298858106E+00  0.10793525505E+00  0.10235923246E+01  0.93800000000E+00 0. -1.
         22    1    1    2    0    0 -0.25057737474E+00 -0.20056868747E+00  0.28354390032E+01  0.28535471189E+01  0.00000000000E+00 0.  1.
</event>
<event>
 5    1  0.3005426E+001  0.1599062E+01  0.7818608E-02  0.3354382E+00
         11   -1    0    0    0    0  0.00000000000E+00  0.00000000000E+00  0.39999999674E+01  0.40000000000E+01  0.51100000000E-03 0. -1.
    9000002   -1    0    0    0    0 -0.00000000000E+00 -0.00000000000E+00  0.00000000000E+00  0.93800000000E+00  0.93800000000E+00 0. -1.
         11    1    1    2    0    0  0.78886180692E-01 -0.33286324423E-01  0.70320282533E+00  0.70839641697E+00  0.51100000000E-03 0. -1.
    9000002    1    1    2    0    0 -0.35138485937E+00  0.27917841609E+00  0.13730193032E+00  0.10488602040E+01  0.93800000000E+00 0. -1.
         22    1    1    2    0    0  0.27249867868E+00 -0.24589209167E+00  0.31594952117E+01  0.31807433791E+01  0.00000000000E+00 0. -1.
</event>
<event>
 5    1  0.3005426E+001  0.1599642E+01  0.7818608E-02  0.3353752E+00
         11   -1    0    0    0    0  0.00000000000E+00  0.00000000000E+00  0.39999999674E+01  0.40000000000E+01  0.51100000000E-03 0.  1.
    9000002   -1    0    0    0    0 -0.00000000000E+00 -0.00000000000E+00  0.00000000000E+00  0.93800000000E+00  0.93800000000E+00 0.  1.
         11    1    1    2    0    0 -0.77110703951E-01  0.34724195237E-01  0.97918123933E+00  0.98282653148E+00  0.51100000000E-03 0.  1.
    9000002    1    1    2    0    0  0.32771957106E+00 -0.12370312096E+00  0.82303797363E-01  0.10046494386E+01  0.93800000000E+00 0.  1.
         22    1    1    2    0    0 -0.25060886710E+00  0.88978925720E-01  0.29385149307E+01  0.29505240299E+01  0.00000000000E+00 0.  1.
</event>
<event>
 5    1  0.3005426E+001  0.1599344E+01  0.7818608E-02  0.3354076E+00
         11   -1    0    0    0    0  0.00000000000E+00  0.00000000000E+00  0.39999999674E+01  0.40000000000E+01  0.51100000000E-03 0.  1.
    9000002   -1    0    0    0    0 -0.00000000000E+00 -0.00000000000E+00  0.00000000000E+00  0.93800000000E+00  0.93800000000E+00 0. -1.
         11    1    1    2    0    0  0.92364695594E-01  0.10720434101E+00  0.14046099417E+01  0.14117199996E+01  0.51100000000E-03 0.  1.
    9000002    1    1    2    0    0 -0.24728278395E+00 -0.35357090370E+00  0.12638454110E+00  0.10401818165E+01  0.93800000000E+00 0. -1.
         22    1    1    2    0    0  0.15491808835E+00  0.24636656269E+00  0.24690054845E+01  0.24860981839E+01  0.00000000000E+00 0.  1.
</event>
<event>
 5    1  0.3005426E+001  0.1599601E+01  0.7818608E-02  0.3353796E+00
         11   -1    0    0    0    0  0.00000000000E+00  0.00000000000E+00  0.39999999674E+01  0.40000000000E+01  0.51100000000E-03 0.  1.
    9000002   -1    0    0    0    0 -0.00000000000E+00 -0.00000000000E+00  0.00000000000E+00  0.93800000000E+00  0.93800000000E+00 0. -1.
         11    1    1    2    0    0 -0.16269172151E-01 -0.14565042059E+00  0.13066709262E+01  0.13148642141E+01  0.51100000000E-03 0.  1.
    9000002    1    1    2    0    0  0.77439916007E-01  0.42930485933E+00  0.12905579002E+00  0.10424965227E+01  0.93800000000E+00 0. -1.
         22    1    1    2    0    0 -0.61170743856E-01 -0.28365443874E+00  0.25642732512E+01  0.25806392633E+01  0.00000000000E+00 0.  1.
</event>
<event>
 5    1  0.3005426E+001  0.1599676E+01  0.7818608E-02  0.3353716E+00
         11   -1    0    0    0    0  0.00000000000E+00  0.00000000000E+00  0.39999999674E+01  0.40000000000E+01  0.51100000000E-03 0.  1.
    9000002   -1    0    0    0    0 -0.00000000000E+00 -0.00000000000E+00  0.00000000000E+00  0.93800000000E+00  0.93800000000E+00 0. -1.
         11    1    1    2    0    0  0.45188066335E-01 -0.38791678130E-01  0.51326499934E+00  0.51670879255E+00  0.51100000000E-03 0.  1.
    9000002    1    1    2    0    0 -0.34681072785E+00  0.29207283321E+00  0.13970148776E+00  0.10511635108E+01  0.93800000000E+00 0. -1.
         22    1    1    2    0    0  0.30162266151E+00 -0.25328115508E+00  0.33470334803E+01  0.33701276966E+01  0.00000000000E+00 0.  1.
</event>
<event>
 5    1  0.3005426E+001  0.1597892E+01  0.7818608E-02  0.3355655E+00
         11   -1    0    0    0    0  0.00000000000E+00  0.00000000000E+00  0.39999999674E+01  0.40000000000E+01  0.51100000000E-03 0.  1.
    9000002   -1    0    0    0    0 -0.00000000000E+00 -0.00000000000E+00  0.00000000000E+00  0.93800000000E+00  0.93800000000E+00 0. -1.
         11    1    1    2    0    0 -0.23201660968E-01 -0.93716791491E-01  0.72211822850E+00  0.72854385670E+00  0.51100000000E-03 0.  1.
    9000002    1    1    2    0    0  0.21467804120E+00  0.31206387513E+00  0.97983699228E-01  0.10163244211E+01  0.93800000000E+00 0. -1.
         22    1    1    2    0    0 -0.19147638023E+00 -0.21834708364E+00  0.31798980396E+01  0.31931317222E+01  0.00000000000E+00 0.  1.
</event>
<event>
 5    1  0.3005426E+001  0.1599344E+01  0.7818608E-02  0.3354076E+00
         11   -1    0    0    0    0  0.00000000000E+00  0.00000000000E+00  0.39999999674E+01  0.40000000000E+01  0.51100000000E-03 0.  1.
    9000002   -1    0    0    0    0 -0.00000000000E+00 -0.00000000000E+00  0.00000000000E+00  0.93800000000E+00  0.93800000000E+00 0. -1.
         11    1    1    2    0    0 -0.14298616350E-02 -0.15738236333E-03  0.12488225883E-01  0.12581183578E-01  0.51100000000E-03 0.  1.
    9000002    1    1    2    0    0 -0.18320745918E+00 -0.37398602104E+00  0.11751602475E+00  0.10329978379E+01  0.93800000000E+00 0. -1.
         22    1    1    2    0    0  0.18463732081E+00  0.37414340340E+00  0.38699957167E+01  0.38924209785E+01  0.00000000000E+00 0.  1.
</event>
<event>
 5    1  0.3005426E+001  0.1599677E+01  0.7818608E-02  0.3353714E+00
         11   -1    0    0    0    0  0.00000000000E+00  0.00000000000E+00  0.39999999674E+01  0.40000000000E+01  0.51100000000E-03 0.  1.
    9000002   -1    0    0    0    0 -0.00000000000E+00 -0.00000000000E+00  0.00000000000E+00  0.93800000000E+00  0.93800000000E+00 0. -1.
         11    1    1    2    0    0 -0.73001967514E-02 -0.12908539865E+00  0.12632398132E+01  0.12698391315E+01  0.51100000000E-03 0.  1.
    9000002    1    1    2    0    0  0.20849398126E-01  0.39833551604E+00  0.10730493078E+00  0.10249215721E+01  0.93800000000E+00 0. -1.
         22    1    1    2    0    0 -0.13549201374E-01 -0.26925011739E+00  0.26294552234E+01  0.26432392965E+01  0.00000000000E+00 0. -1.
</event>
<event>
 5    1  0.3005426E+001  0.1598954E+01  0.7818608E-02  0.3354500E+00
         11   -1    0    0    0    0  0.00000000000E+00  0.00000000000E+00  0.39999999674E+01  0.40000000000E+01  0.51100000000E-03 0.  1.
    9000002   -1    0    0    0    0 -0.00000000000E+00 -0.00000000000E+00  0.00000000000E+00  0.93800000000E+00  0.93800000000E+00 0.  1.
         11    1    1    2    0    0  0.54219538841E-01 -0.10596719098E+00  0.61399527268E+00  0.62542726192E+00  0.51100000000E-03 0.  1.
    9000002    1    1    2    0    0 -0.18144176691E+00  0.62788667503E+00  0.30245152065E+00  0.11825750352E+01  0.93800000000E+00 0.  1.
         22    1    1    2    0    0  0.12722222807E+00 -0.52191948405E+00  0.30835531740E+01  0.31299977029E+01  0.00000000000E+00 0.  1.
</event>
<event>
 5    1  0.3005426E+001  0.1590189E+01  0.7818608E-02  0.3364081E+00
         11   -1    0    0    0    0  0.00000000000E+00  0.00000000000E+00  0.39999999674E+01  0.40000000000E+01  0.51100000000E-03 0.  1.
    9000002   -1    0    0    0    0 -0.00000000000E+00 -0.00000000000E+00  0.00000000000E+00  0.93800000000E+00  0.93800000000E+00 0.  1.
         11    1    1    2    0    0 -0.28630864648E-01 -0.24399735868E-01  0.38717350375E+00  0.38899698796E+00  0.51100000000E-03 0.  1.
    9000002    1    1    2    0    0  0.11684115673E+00 -0.43819352883E+00  0.14802080068E+00  0.10523400506E+01  0.93800000000E+00 0.  1.
         22    1    1    2    0    0 -0.88210292079E-01  0.46259326469E+00  0.34648056629E+01  0.34966629615E+01  0.00000000000E+00 0.  1.
</event>
<event>
 5    1  0.3005426E+001  0.1572880E+01  0.7818608E-02  0.3383335E+00
         11   -1    0    0    0    0  0.00000000000E+00  0.00000000000E+00  0.39999999674E+01  0.40000000000E+01  0.51100000000E-03 0. -1.
    9000002   -1    0    0    0    0 -0.00000000000E+00 -0.00000000000E+00  0.00000000000E+00  0.93800000000E+00  0.93800000000E+00 0.  1.
         11    1    1    2    0    0  0.13266201487E+00 -0.13712317513E+00  0.12062262703E+01  0.12212223596E+01  0.51100000000E-03 0. -1.
    9000002    1    1    2    0    0  0.10918221518E+00  0.20756374386E+00  0.57125543491E-01  0.96856119662E+00  0.93800000000E+00 0.  1.
         22    1    1    2    0    0 -0.24184423006E+00 -0.70440568730E-01  0.27366481536E+01  0.27482164438E+01  0.00000000000E+00 0. -1.
</event>
<event>
 5    1  0.3005426E+001  0.1599621E+01  0.7818608E-02  0.3353775E+00
         11   -1    0    0    0    0  0.00000000000E+00  0.00000000000E+00  0.39999999674E+01  0.40000000000E+01  0.51100000000E-03 0. -1.
    9000002   -1    0    0    0    0 -0.00000000000E+00 -0.00000000000E+00  0.00000000000E+00  0.93800000000E+00  0.93800000000E+00 0.  1.
         11    1    1    2    0    0 -0.10616404882E+00 -0.32543778084E-01  0.10250452593E+01  0.10310421657E+01  0.51100000000E-03 0. -1.
    9000002    1    1    2    0    0  0.37502542908E+00  0.13457334788E+00  0.10710800296E+00  0.10247293217E+01  0.93800000000E+00 0.  1.
         22    1    1    2    0    0 -0.26886138026E+00 -0.10202956979E+00  0.28678467051E+01  0.28822285126E+01  0.00000000000E+00 0. -1.
</event>
<event>
 5    1  0.3005426E+001  0.1599671E+01  0.7818608E-02  0.3353721E+00
         11   -1    0    0    0    0  0.00000000000E+00  0.00000000000E+00  0.39999999674E+01  0.40000000000E+01  0.51100000000E-03 0. -1.
    9000002   -1    0    0    0    0 -0.00000000000E+00 -0.00000000000E+00  0.00000000000E+00  0.93800000000E+00  0.93800000000E+00 0. -1.
         11    1    1    2    0    0  0.69585637628E-01  0.76780090871E-01  0.10808350268E+01  0.10857909373E+01  0.51100000000E-03 0. -1.
    9000002    1    1    2    0    0 -0.25097644516E+00 -0.26800692522E+00  0.90577329941E-01  0.10113679551E+01  0.93800000000E+00 0. -1.
         22    1    1    2    0    0  0.18139080753E+00  0.19122683435E+00  0.28285876106E+01  0.28408411075E+01  0.00000000000E+00 0.  1.
</event>
<event>
 5    1  0.3005426E+001  0.1594306E+01  0.7818608E-02  0.3359566E+00
         11   -1    0    0    0    0  0.00000000000E+00  0.00000000000E+00  0.39999999674E+01  0.40000000000E+01  0.51100000000E-03 0. -1.
    9000002   -1    0    0    0    0 -0.00000000000E+00 -0.00000000000E+00  0.00000000000E+00  0.93800000000E+00  0.93800000000E+00 0. -1.
         11    1    1    2    0    0 -0.10626985726E-01 -0.48130334842E-01  0.94119250390E+00  0.94248238842E+00  0.51100000000E-03 0. -1.
    9000002    1    1    2    0    0 -0.25869480156E+00  0.11610908858E+00  0.57739285522E-01  0.98162220120E+00  0.93800000000E+00 0. -1.
         22    1    1    2    0    0  0.26932178729E+00 -0.67978753739E-01  0.30010681779E+01  0.30138954104E+01  0.00000000000E+00 0. -1.
</event>
<event>
 5    1  0.3005426E+001  0.1599333E+01  0.7818608E-02  0.3354088E+00
         11   -1    0    0    0    0  0.00000000000E+00  0.00000000000E+00  0.39999999674E+01  0.40000000000E+01  0.51100000000E-03 0. -1.
    9000002   -1    0    0    0    0 -0.00000000000E+00 -0.00000000000E+00  0.00000000000E+00  0.93800000000E+00  0.93800000000E+00 0.  1.
         11    1    1    2    0    0 -0.21014625800E-01  0.10089544980E+00  0.53669238204E+00  0.54649838092E+00  0.51100000000E-03 0. -1.
    9000002    1    1    2    0    0  0.12011752583E+00 -0.59584835614E+00  0.25855527392E+00  0.11472394315E+01  0.93800000000E+00 0.  1.
         22    1    1    2    0    0 -0.99102900030E-01  0.49495290634E+00  0.32047523114E+01  0.32442621876E+01  0.00000000000E+00 0. -1.
</event>
<event>
 5    1  0.3005426E+001  0.1599671E+01  0.7818608E-02  0.3353720E+00
         11   -1    0    0    0    0  0.00000000000E+00  0.00000000000E+00  0.39999999674E+01  0.40000000000E+01  0.51100000000E-03 0.  1.
    9000002   -1    0    0    0    0 -0.00000000000E+00 -0.00000000000E+00  0.00000000000E+00  0.93800000000E+00  0.93800000000E+00 0.  1.
         11    1    1    2    0    0  0.27854136988E+00 -0.14208568813E+00  0.94121059144E+00  0.99179195201E+00  0.51100000000E-03 0.  1.
    9000002    1    1    2    0    0 -0.92631646900E+00  0.46260048673E+00  0.88114528019E+00  0.16517634261E+01  0.93800000000E+00 0.  1.
         22    1    1    2    0    0  0.64777509912E+00 -0.32051479860E+00  0.21776440957E+01  0.22944446219E+01  0.00000000000E+00 0.  1.
</event>
<event>
 5    1  0.3005426E+001  0.1599489E+01  0.7818608E-02  0.3353918E+00
         11   -1    0    0    0    0  0.00000000000E+00  0.00000000000E+00  0.39999999674E+01  0.40000000000E+01  0.51100000000E-03 0.  1.
    9000002   -1    0    0    0    0 -0.00000000000E+00 -0.00000000000E+00  0.00000000000E+00  0.93800000000E+00  0.93800000000E+00 0.  1.
         11    1    1    2    0    0  0.69046628267E-01 -0.93697349916E-01  0.10670362520E+01  0.10733653872E+01  0.51100000000E-03 0.  1.
    9000002    1    1    2    0    0 -0.28322441998E+00  0.29798377927E+00  0.11432395489E+00  0.10304971477E+01  0.93800000000E+00 0.  1.
         22    1    1    2    0    0  0.21417779171E+00 -0.20428642935E+00  0.28186397605E+01  0.28341374651E+01  0.00000000000E+00 0.  1.
</event>
<event>
 5    1  0.3005426E+001  0.1577084E+01  0.7818608E-02  0.3378617E+00
         11   -1    0    0    0    0  0.00000000000E+00  0.00000000000E+00  0.39999999674E+01  0.40000000000E+01  0.51100000000E-03 0.  1.
    9000002   -1    0    0    0    0 -0.00000000000E+00 -0.00000000000E+00  0.00000000000E+00  0.93800000000E+00  0.93800000000E+00 0. -1.
         11    1    1    2    0    0 -0.76904507790E-01 -0.42591862046E-01  0.59231240471E+00  0.59880098190E+00  0.51100000000E-03 0.  1.
    9000002    1    1    2    0    0 -0.30359973035E+00  0.80702295324E-02  0.79488000820E-01  0.98914117655E+00  0.93800000000E+00 0. -1.
         22    1    1    2    0    0  0.38050423814E+00  0.34521632514E-01  0.33281995618E+01  0.33500578415E+01  0.00000000000E+00 0.  1.
</event>
<event>
 5    1  0.3005426E+001  0.1599513E+01  0.7818608E-02  0.3353892E+00
         11   -1    0    0    0    0  0.00000000000E+00  0.00000000000E+00  0.39999999674E+01  0.40000000000E+01  0.51100000000E-03 0. -1.
    9000002   -1    0    0    0    0 -0.00000000000E+00 -0.00000000000E+00  0.00000000000E+00  0.93800000000E+00  0.93800000000E+00 0. -1.
         11    1    1    2    0    0  0.72347653047E-02 -0.82410415475E-02  0.76076484981E-01  0.76864486487E-01  0.51100000000E-03 0. -1.
    9000002    1    1    2    0    0 -0.27730993876E+00  0.22717363953E+00  0.86380528716E-01  0.10078761136E+01  0.93800000000E+00 0. -1.
         22    1    1    2    0    0  0.27007517345E+00 -0.21893259799E+00  0.38375429537E+01  0.38532593999E+01  0.00000000000E+00 0. -1.
</event>
<event>
 5    1  0.3005426E+001  0.1593319E+01  0.7818608E-02  0.3360647E+00
         11   -1    0    0    0    0  0.00000000000E+00  0.00000000000E+00  0.39999999674E+01  0.40000000000E+01  0.51100000000E-03 0. -1.
    9000002   -1    0    0    0    0 -0.00000000000E+00 -0.00000000000E+00  0.00000000000E+00  0.93800000000E+00  0.93800000000E+00 0.  1.
         11    1    1    2    0    0  0.32955577759E-02 -0.32539184609E-02  0.27447694152E-03  0.46674559447E-02  0.51100000000E-03 0. -1.
    9000002    1    1    2    0    0 -0.62570427196E-01 -0.55126501909E+00  0.21885272713E+00  0.11115523810E+01  0.93800000000E+00 0.  1.
         22    1    1    2    0    0  0.59274869421E-01  0.55451893755E+00  0.37808727633E+01  0.38217801630E+01  0.00000000000E+00 0. -1.
</event>
<event>
 5    1  0.3005426E+001  0.1549925E+01  0.7818608E-02  0.3409574E+00
         11   -1    0    0    0    0  0.00000000000E+00  0.00000000000E+00  0.39999999674E+01  0.40000000000E+01  0.51100000000E-03 0.  1.
    9000002   -1    0    0    0    0 -0.00000000000E+00 -0.00000000000E+00  0.00000000000E+00  0.93800000000E+00  0.93800000000E+00 0.  1.
         11    1    1    2    0    0  0.19089762022E+00  0.16612153888E+00  0.98485931659E+00  0.10168512191E+01  0.51100000000E-03 0.  1.
    9000002    1    1    2    0    0 -0.22632323166E+00  0.10095441950E+00  0.79789824532E-01  0.97346002286E+00  0.93800000000E+00 0.  1.
         22    1    1    2    0    0  0.35425611443E-01 -0.26707595839E+00  0.29353508262E+01  0.29476887581E+01  0.00000000000E+00 0.  1.
</event>
<event>
 5    1  0.3005426E+001  0.1598397E+01  0.7818608E-02  0.3355105E+00
         11   -1    0    0    0    0  0.00000000000E+00  0.00000000000E+00  0.39999999674E+01  0.40000000000E+01  0.51100000000E-03 0.  1.
    9000002   -1    0    0    0    0 -0.00000000000E+00 -0.00000000000E+00  0.00000000000E+00  0.93800000000E+00  0.93800000000E+00 0.  1.
         11    1    1    2    0    0 -0.11476520758E-01 -0.11839606066E+00  0.96295674684E+00  0.97027588608E+00  0.51100000000E-03 0.  1.
    9000002    1    1    2    0    0 -0.45576963789E-02  0.60011592706E+00  0.25256388452E+00  0.11418372976E+01  0.93800000000E+00 0.  1.
         22    1    1    2    0    0  0.16034217136E-01 -0.48171986640E+00  0.27844793360E+01  0.28258868163E+01  0.00000000000E+00 0.  1.
</event>
<event>
 5    1  0.3005426E+001  0.1599658E+01  0.7818608E-02  0.3353734E+00
         11   -1    0    0    0    0  0.00000000000E+00  0.00000000000E+00  0.39999999674E+01  0.40000000000E+01  0.51100000000E-03 0. -1.
    9000002   -1    0    0    0    0 -0.00000000000E+00 -0.00000000000E+00  0.00000000000E+00  0.93800000000E+00  0.93800000000E+00 0. -1.
         11    1    1    2    0    0 -0.38873358021E-01 -0.11756111279E+00  0.11952476528E+01  0.12016442759E+01  0.51100000000E-03 0. -1.
    9000002    1    1    2    0    0  0.12502046181E+00  0.39745023539E+00  0.11736674190E+00  0.10330613523E+01  0.93800000000E+00 0. -1.
         22    1    1    2    0    0 -0.86147103791E-01 -0.27988912260E+00  0.26873855726E+01  0.27032943718E+01  0.00000000000E+00 0. -1.
</event>
<event>
 5    1  0.3005426E+001  0.1586675E+01  0.7818608E-02  0.3367955E+00
         11   -1    0    0    0    0  0.00000000000E+00  0.00000000000E+00  0.39999999674E+01  0.40000000000E+01  0.51100000000E-03 0. -1.
    9000002   -1    0    0    0    0 -0.00000000000E+00 -0.00000000000E+00  0.00000000000E+00  0.93800000000E+00  0.93800000000E+00 0.  1.
         11    1    1    2    0    0 -0.53636609522E-01 -0.30496964532E-01  0.43181664645E+00  0.43620273727E+00  0.51100000000E-03 0. -1.
    9000002    1    1    2    0    0 -0.46387941137E-01 -0.29214192943E+00  0.68573666285E-01  0.98592347356E+00  0.93800000000E+00 0.  1.
         22    1    1    2    0    0  0.10002455066E+00  0.32263889396E+00  0.34996096546E+01  0.35158737892E+01  0.00000000000E+00 0. -1.
</event>
<event>
 5    1  0.3005426E+001  0.1599671E+01  0.7818608E-02  0.3353721E+00
         11   -1    0    0    0    0  0.00000000000E+00  0.00000000000E+00  0.39999999674E+01  0.40000000000E+01  0.51100000000E-03 0.  1.
    9000002   -1    0    0    0    0 -0.00000000000E+00 -0.00000000000E+00  0.00000000000E+00  0.93800000000E+00  0.93800000000E+00 0. -1.
         11    1    1    2    0    0 -0.39265566055E-01 -0.10321689927E+00  0.80725160839E+00  0.81477047893E+00  0.51100000000E-03 0.  1.
    9000002    1    1    2    0    0  0.19240886330E+00  0.47889269491E+00  0.18284710190E+00  0.10861106972E+01  0.93800000000E+00 0. -1.
         22    1    1    2    0    0 -0.15314329724E+00 -0.37567579564E+00  0.30099012571E+01  0.30371188239E+01  0.00000000000E+00 0.  1.
</event>
<event>
 5    1  0.3005426E+001  0.1599668E+01  0.7818608E-02  0.3353724E+00
         11   -1    0    0    0    0  0.00000000000E+00  0.00000000000E+00  0.39999999674E+01  0.40000000000E+01  0.51100000000E-03 0. -1.
    9000002   -1    0    0    0    0 -0.00000000000E+00 -0.00000000000E+00  0.00000000000E+00  0.93800000000E+00  0.93800000000E+00 0. -1.
         11    1    1    2    0    0  0.99115871728E-01  0.53027595073E-01  0.11881648105E+01  0.11934704688E+01  0.51100000000E-03 0. -1.
    9000002    1    1    2    0    0 -0.33000825140E+00 -0.16427762332E+00  0.91317802419E-01  0.10119661677E+01  0.93800000000E+00 0. -1.
         22    1    1    2    0    0  0.23089237967E+00  0.11125002825E+00  0.27205173544E+01  0.27325633635E+01  0.00000000000E+00 0.  1.
</event>
<event>
 5    1  0.3005426E+001  0.1599588E+01  0.7818608E-02  0.3353811E+00
         11   -1    0    0    0    0  0.00000000000E+00  0.00000000000E+00  0.39999999674E+01  0.40000000000E+01  0.51100000000E-03 0. -1.
    9000002   -1    0    0    0    0 -0.00000000000E+00 -0.00000000000E+00  0.00000000000E+00  0.93800000000E+00  0.93800000000E+00 0. -1.
         11    1    1    2    0    0 -0.12348592655E-01 -0.79378331704E-01  0.76294504668E+00  0.76716283321E+00  0.51100000000E-03 0. -1.
    9000002    1    1    2    0    0  0.84063270533E-01  0.36512153911E+00  0.94465986775E-01  0.10144694152E+01  0.93800000000E+00 0. -1.
         22    1    1    2    0    0 -0.71714677879E-01 -0.28574320740E+00  0.31425889339E+01  0.31563677516E+01  0.00000000000E+00 0. -1.
</event>
<event>
 5    1  0.3005426E+001  0.1522633E+01  0.7818608E-02  0.3441867E+00
         11   -1    0    0    0    0  0.00000000000E+00  0.00000000000E+00  0.39999999674E+01  0.40000000000E+01  0.51100000000E-03 0. -1.
    9000002   -1    0    0    0    0 -0.00000000000E+00 -0.00000000000E+00  0.00000000000E+00  0.93800000000E+00  0.93800000000E+00 0.  1.
         11    1    1    2    0    0  0.13307093662E+00 -0.23974305811E+00  0.12577838269E+01  0.12873247548E+01  0.51100000000E-03 0. -1.
    9000002    1    1    2    0    0 -0.92316707849E-01 -0.17022175863E+00  0.84814596439E-01  0.96152760617E+00  0.93800000000E+00 0.  1.
         22    1    1    2    0    0 -0.40754228775E-01  0.40996481674E+00  0.26574015440E+01  0.26891476390E+01  0.00000000000E+00 0. -1.
</event>
<event>
 5    1  0.3005426E+001  0.1599672E+01  0.7818608E-02  0.3353719E+00
         11   -1    0    0    0    0  0.00000000000E+00  0.00000000000E+00  0.39999999674E+01  0.40000000000E+01  0.51100000000E-03 0.  1.
    9000002   -1    0    0    0    0 -0.00000000000E+00 -0.00000000000E+00  0.00000000000E+00  0.93800000000E+00  0.93800000000E+00 0. -1.
         11    1    1    2    0    0  0.13537059037E+00 -0.35915924595E-01  0.12713537052E+01  0.12790448214E+01  0.51100000000E-03 0.  1.
    9000002    1    1    2    0    0 -0.41031225025E+00  0.10275688272E+00  0.12105418683E+00  0.10360565794E+01  0.93800000000E+00 0. -1.
         22    1    1    2    0    0  0.27494165988E+00 -0.66840958121E-01  0.26075920753E+01  0.26228985991E+01  0.00000000000E+00 0.  1.
</event>
<event>
 5    1  0.3005426E+001  0.1598692E+01  0.7818608E-02  0.3354784E+00
         11   -1    0    0    0    0  0.00000000000E+00  0.00000000000E+00  0.39999999674E+01  0.40000000000E+01  0.51100000000E-03 0.  1.
    9000002   -1    0    0    0    0 -0.00000000000E+00 -0.00000000000E+00  0.00000000000E+00  0.93800000000E+00  0.93800000000E+00 0. -1.
         11    1    1    2    0    0 -0.25626253397E-02 -0.47845763630E-01  0.33749003234E+00  0.34087470894E+00  0.51100000000E-03 0.  1.
    9000002    1    1    2    0    0  0.15459081792E+00  0.34123592531E+00  0.95171752636E-01  0.10145156185E+01  0.93800000000E+00 0. -1.
         22    1    1    2    0    0 -0.15202819258E+00 -0.29339016168E+00  0.35673381824E+01  0.35826096725E+01  0.00000000000E+00 0.  1.
</event>
<event>
 5    1  0.3005426E+001  0.1598589E+01  0.7818608E-02  0.3354897E+00
         11   -1    0    0    0    0  0.00000000000E+00  0.00000000000E+00  0.39999999674E+01  0.40000000000E+01  0.51100000000E-03 0.  1.
    9000002   -1    0    0    0    0 -0.00000000000E+00 -0.00000000000E+00  0.00000000000E+00  0.93800000000E+00  0.93800000000E+00 0.  1.
         11    1    1    2    0    0  0.13081940984E+00 -0.46184069380E-01  0.11684210940E+01  0.11766285736E+01  0.51100000000E-03 0.  1.
    9000002    1    1    2    0    0 -0.46467684113E+00  0.36665720878E-01  0.14887746125E+00  0.10579590919E+01  0.93800000000E+00 0.  1.
         22    1    1    2    0    0  0.33385743129E+00  0.95183485022E-02  0.26827014121E+01  0.27034123344E+01  0.00000000000E+00 0.  1.
</event>
<event>
 5    1  0.3005426E+001  0.1587781E+01  0.7818608E-02  0.3366733E+00
         11   -1    0    0    0    0  0.00000000000E+00  0.00000000000E+00  0.39999999674E+01  0.40000000000E+01  0.51100000000E-03 0. -1.
    9000002   -1    0    0    0    0 -0.00000000000E+00 -0.00000000000E+00  0.00000000000E+00  0.93800000000E+00  0.93800000000E+00 0. -1.
         11    1    1    2    0    0 -0.11855891005E+00 -0.78753549862E-01  0.36781634233E+00  0.39439505521E+00  0.51100000000E-03 0. -1.
    9000002    1    1    2    0    0  0.47018961832E+00  0.41775634876E+00  0.29010083869E+00  0.11660193569E+01  0.93800000000E+00 0. -1.
         22    1    1    2    0    0 -0.35163070827E+00 -0.33900279890E+00  0.33420827863E+01  0.33775855879E+01  0.00000000000E+00 0. -1.
</event>
<event>
 5    1  0.3005426E+001  0.1595594E+01  0.7818608E-02  0.3358159E+00
         11   -1    0    0    0    0  0.00000000000E+00  0.00000000000E+00  0.39999999674E+01  0.40000000000E+01  0.51100000000E-03 0.  1.
    9000002   -1    0    0    0    0 -0.00000000000E+00 -0.00000000000E+00  0.00000000000E+00  0.93800000000E+00  0.93800000000E+00 0.  1.
         11    1    1    2    0    0 -0.14412378842E-01 -0.31551591013E-01  0.10809253003E+01  0.10814818471E+01  0.51100000000E-03 0.  1.
    9000002    1    1    2    0    0 -0.17602163774E+00  0.21757662796E+00  0.55326063035E-01  0.98042244937E+00  0.93800000000E+00 0.  1.
         22    1    1    2    0    0  0.19043401659E+00 -0.18602503694E+00  0.28637486040E+01  0.28760957036E+01  0.00000000000E+00 0. -1.
</event>
<event>
 5    1  0.3005426E+001  0.1599354E+01  0.7818608E-02  0.3354065E+00
         11   -1    0    0    0    0  0.00000000000E+00  0.00000000000E+00  0.39999999674E+01  0.40000000000E+01  0.51100000000E-03 0. -1.
    9000002   -1    0    0    0    0 -0.00000000000E+00 -0.00000000000E+00  0.00000000000E+00  0.93800000000E+00  0.93800000000E+00 0. -1.
         11    1    1    2    0    0 -0.33307789638E-01 -0.32339126120E-02  0.21513869468E+00  0.21772640197E+00  0.51100000000E-03 0. -1.
    9000002    1    1    2    0    0  0.47367491835E+00 -0.72882582140E-01  0.15698221130E+00  0.10649728699E+01  0.93800000000E+00 0. -1.
         22    1    1    2    0    0 -0.44036712871E+00  0.76116494752E-01  0.36278790614E+01  0.36553007281E+01  0.00000000000E+00 0. -1.
</event>
<event>
 5    1  0.3005426E+001  0.1599676E+01  0.7818608E-02  0.3353715E+00
         11   -1    0    0    0    0  0.00000000000E+00  0.00000000000E+00  0.39999999674E+01  0.40000000000E+01  0.51100000000E-03 0. -1.
    9000002   -1    0    0    0    0 -0.00000000000E+00 -0.00000000000E+00  0.00000000000E+00  0.93800000000E+00  0.93800000000E+00 0.  1.
         11    1    1    2    0    0  0.52203401410E-01  0.11469417154E-01  0.52637915086E+00  0.52908601780E+00  0.51100000000E-03 0. -1.
    9000002    1    1    2    0    0 -0.39060566360E+00 -0.88219218779E-01  0.10817001980E+00  0.10256218446E+01  0.93800000000E+00 0.  1.
         22    1    1    2    0    0  0.33840226219E+00  0.76749801625E-01  0.33654507967E+01  0.33832921376E+01  0.00000000000E+00 0. -1.
</event>
<event>
 5    1  0.3005426E+001  0.1599669E+01  0.7818608E-02  0.3353723E+00
         11   -1    0    0    0    0  0.00000000000E+00  0.00000000000E+00  0.39999999674E+01  0.40000000000E+01  0.51100000000E-03 0.  1.
    9000002   -1    0    0    0    0 -0.00000000000E+00 -0.00000000000E+00  0.00000000000E+00  0.93800000000E+00  0.93800000000E+00 0.  1.
         11    1    1    2    0    0  0.11489298649E+00  0.53861999973E-01  0.13710880492E+01  0.13769474257E+01  0.51100000000E-03 0.  1.
    9000002    1    1    2    0    0 -0.33699578717E+00 -0.15288092029E+00  0.92035573027E-01  0.10125479164E+01  0.93800000000E+00 0.  1.
         22    1    1    2    0    0  0.22210280068E+00  0.99018920321E-01  0.25368763452E+01  0.25485046579E+01  0.00000000000E+00 0.  1.
</event>
<event>
 5    1  0.3005426E+001  0.1598872E+01  0.7818608E-02  0.3354589E+00
         11   -1    0    0    0    0  0.00000000000E+00  0.00000000000E+00  0.39999999674E+01  0.40000000000E+01  0.51100000000E-03 0. -1.
    9000002   -1    0    0    0    0 -0.00000000000E+00 -0.00000000000E+00  0.00000000000E+00  0.93800000000E+00  0.93800000000E+00 0. -1.
         11    1    1    2    0    0  0.32052226037E-01  0.24408597865E-01  0.80313518276E+00  0.80414520315E+00  0.51100000000E-03 0. -1.
    9000002    1    1    2    0    0 -0.26338415062E+00 -0.20193125666E+00  0.74353287554E-01  0.99775741269E+00  0.93800000000E+00 0. -1.
         22    1    1    2    0    0  0.23133192458E+00  0.17752265880E+00  0.31225114970E+01  0.31360973842E+01  0.00000000000E+00 0. -1.
</event>
<event>
 5    1  0.3005426E+001  0.1599675E+01  0.7818608E-02  0.3353716E+00
         11   -1    0    0    0    0  0.00000000000E+00  0.00000000000E+00  0.39999999674E+01  0.40000000000E+01  0.51100000000E-03 0.  1.
    9000002   -1    0    0    0    0 -0.00000000000E+00 -0.00000000000E+00  0.00000000000E+00  0.93800000000E+00  0.93800000000E+00 0.  1.
         11    1    1    2    0    0  0.58108142598E-01  0.55480337261E-01  0.81596659345E+00  0.81991241411E+00  0.51100000000E-03 0.  1.
    9000002    1    1    2    0    0 -0.27981522274E+00 -0.25909834212E+00  0.97867845696E-01  0.10172760810E+01  0.93800000000E+00 0.  1.
         22    1    1    2    0    0  0.22170708014E+00  0.20361800486E+00  0.30861655282E+01  0.31008115049E+01  0.00000000000E+00 0.  1.
</event>
<event>
 5    1  0.3005426E+001  0.1599676E+01  0.7818608E-02  0.3353715E+00
         11   -1    0    0    0    0  0.00000000000E+00  0.00000000000E+00  0.39999999674E+01  0.40000000000E+01  0.51100000000E-03 0.  1.
    9000002   -1    0    0    0    0 -0.00000000000E+00 -0.00000000000E+00  0.00000000000E+00  0.93800000000E+00  0.93800000000E+00 0.  1.
         11    1    1    2    0    0  0.89615860496E-02 -0.39953734376E-01  0.37326860892E+00  0.37550809104E+00  0.51100000000E-03 0.  1.
    9000002    1    1    2    0    0 -0.97838373904E-01  0.41956582102E+00  0.12571593578E+00  0.10398347571E+01  0.93800000000E+00 0.  1.
         22    1    1    2    0    0  0.88876787854E-01 -0.37961208664E+00  0.35010154227E+01  0.35226571519E+01  0.00000000000E+00 0.  1.
</event>
<event>
 5    1  0.3005426E+001  0.1590995E+01  0.7818608E-02  0.3363196E+00
         11   -1    0    0    0    0  0.00000000000E+00  0.00000000000E+00  0.39999999674E+01  0.40000000000E+01  0.51100000000E-03 0. -1.
    9000002   -1    0    0    0    0 -0.00000000000E+00 -0.00000000000E+00  0.00000000000E+00  0.93800000000E+00  0.93800000000E+00 0. -1.
         11    1    1    2    0    0  0.93616663048E-02  0.41119318801E-01  0.22352960762E+00  0.22747348368E+00  0.51100000000E-03 0. -1.
    9000002    1    1    2    0    0  0.35245478658E+00  0.32356460073E-01  0.91073427315E-01  0.10066825151E+01  0.93800000000E+00 0. -1.
         22    1    1    2    0    0 -0.36181645289E+00 -0.73475778874E-01  0.36853969324E+01  0.37038440012E+01  0.00000000000E+00 0. -1.
</event>
<event>
 5    1  0.3005426E+001  0.1599677E+01  0.7818608E-02  0.3353714E+00
         11   -1    0    0    0    0  0.00000000000E+00  0.00000000000E+00  0.39999999674E+01  0.40000000000E+01  0.51100000000E-03 0. -1.
    9000002   -1    0    0    0    0 -0.00000000000E+00 -0.00000000000E+00  0.00000000000E+00  0.93800000000E+00  0.93800000000E+00 0. -1.
         11    1    1    2    0    0 -0.79648595684E-01 -0.14604539394E+00  0.67043127338E+00  0.69076154303E+00  0.51100000000E-03 0. -1.
    9000002    1    1    2    0    0  0.40872684494E+00  0.74958034563E+00  0.54749024702E+00  0.13814911867E+01  0.93800000000E+00 0. -1.
         22    1    1    2    0    0 -0.32907824926E+00 -0.60353495169E+00  0.27820784470E+01  0.28657472703E+01  0.00000000000E+00 0. -1.
</event>
<event>
 5    1  0.3005426E+001  0.1506351E+01  0.7818608E-02  0.3461731E+00
         11   -1    0    0    0    0  0.00000000000E+00  0.00000000000E+00  0.39999999674E+01  0.40000000000E+01  0.51100000000E-03 0.  1.
    9000002   -1    0    0    0    0 -0.00000000000E+00 -0.00000000000E+00  0.00000000000E+00  0.93800000000E+00  0.93800000000E+00 0.  1.
         11    1    1    2    0    0 -0.35223378742E-01  0.51261810601E+00  0.12355160290E+01  0.13381024355E+01  0.51100000000E-03 0.  1.
    9000002    1    1    2    0    0 -0.17695598669E+00 -0.42022762491E-02  0.19790095859E+00  0.97485376840E+00  0.93800000000E+00 0.  1.
         22    1    1    2    0    0  0.21217936543E+00 -0.50841582976E+00  0.25665829798E+01  0.26250437961E+01  0.00000000000E+00 0.  1.
</event>
<event>
 5    1  0.3005426E+001  0.1548670E+01  0.7818608E-02  0.3411032E+00
         11   -1    0    0    0    0  0.00000000000E+00  0.00000000000E+00  0.39999999674E+01  0.40000000000E+01  0.51100000000E-03 0.  1.
    9000002   -1    0    0    0    0 -0.00000000000E+00 -0.00000000000E+00  0.00000000000E+00  0.93800000000E+00  0.93800000000E+00 0. -1.
         11    1    1    2    0    0 -0.97605705376E-01 -0.69556722711E-01  0.23577897746E+00  0.26449385386E+00  0.51100000000E-03 0.  1.
    9000002    1    1    2    0    0 -0.24412793779E+00  0.89180629853E-02  0.79575165098E-01  0.97255035281E+00  0.93800000000E+00 0. -1.
         22    1    1    2    0    0  0.34173364317E+00  0.60638659726E-01  0.36846458248E+01  0.37009557933E+01  0.00000000000E+00 0.  1.
</event>
<event>
 5    1  0.3005426E+001  0.1599677E+01  0.7818608E-02  0.3353714E+00
         11   -1    0    0    0    0  0.00000000000E+00  0.00000000000E+00  0.39999999674E+01  0.40000000000E+01  0.51100000000E-03 0.  1.
    9000002   -1    0    0    0    0 -0.00000000000E+00 -0.00000000000E+00  0.00000000000E+00  0.93800000000E+00  0.93800000000E+00 0. -1.
         11    1    1    2    0    0 -0.99640064311E-01 -0.10725748286E+00  0.14290247476E+01  0.14365041943E+01  0.51100000000E-03 0. -1.
    9000002    1    1    2    0    0  0.27070337818E+00  0.29272041162E+00  0.10720772814E+00  0.10248429418E+01  0.93800000000E+00 0. -1.
         22    1    1    2    0    0 -0.17106331387E+00 -0.18546292875E+00  0.24637674917E+01  0.24766528639E+01  0.00000000000E+00 0.  1.
</event>
<event>
 5    1  0.3005426E+001  0.1594149E+01  0.7818608E-02  0.3359738E+00
         11   -1    0    0    0    0  0.00000000000E+00  0.00000000000E+00  0.39999999674E+01  0.40000000000E+01  0.51100000000E-03 0.  1.
    9000002   -1    0    0    0    0 -0.00000000000E+00 -0.00000000000E+00  0.00000000000E+00  0.93800000000E+00  0.93800000000E+00 0. -1.
         11    1    1    2    0    0  0.66016329771E-02  0.69183768376E-03  0.11971996826E+01  0.11972181928E+01  0.51100000000E-03 0.  1.
    9000002    1    1    2    0    0  0.11695961485E-02 -0.27276016728E+00  0.53793774175E-01  0.97833391383E+00  0.93800000000E+00 0. -1.
         22    1    1    2    0    0 -0.77712291256E-02  0.27206832959E+00  0.27490065106E+01  0.27624478933E+01  0.00000000000E+00 0.  1.
</event>
<event>
 5    1  0.3005426E+001  0.1599672E+01  0.7818608E-02  0.3353720E+00
         11   -1    0    0    0    0  0.00000000000E+00  0.00000000000E+00  0.39999999674E+01  0.40000000000E+01  0.51100000000E-03 0. -1.
    9000002   -1    0    0    0    0 -0.00000000000E+00 -0.00000000000E+00  0.00000000000E+00  0.93800000000E+00  0.93800000000E+00 0.  1.
         11    1    1    2    0    0 -0.21050778386E-01 -0.36450516251E-01  0.40915900844E+00  0.41131877019E+00  0.51100000000E-03 0.  1.
    9000002    1    1    2    0    0  0.18507172459E+00  0.34910833072E+00  0.10525050019E+00  0.10232545322E+01  0.93800000000E+00 0.  1.
         22    1    1    2    0    0 -0.16402094620E+00 -0.31265781447E+00  0.34855904587E+01  0.35034266976E+01  0.00000000000E+00 0. -1.
</event>
<event>
 5    1  0.3005426E+001  0.1599677E+01  0.7818608E-02  0.3353714E+00
         11   -1    0    0    0    0  0.00000000000E+00  0.00000000000E+00  0.39999999674E+01  0.40000000000E+01  0.51100000000E-03 0.  1.
    9000002   -1    0    0    0    0 -0.00000000000E+00 -0.00000000000E+00  0.00000000000E+00  0.93800000000E+00  0.93800000000E+00 0.  1.
         11    1    1    2    0    0  0.12313917829E+00 -0.10765434741E-01  0.11597796831E+01  0.11663482869E+01  0.51100000000E-03 0.  1.
    9000002    1    1    2    0    0 -0.41416354698E+00  0.34637811403E-01  0.11675000825E+00  0.10325724120E+01  0.93800000000E+00 0.  1.
         22    1    1    2    0    0  0.29102436869E+00 -0.23872376662E-01  0.27234702760E+01  0.27390793011E+01  0.00000000000E+00 0.  1.
</event>
<event>
 5    1  0.3005426E+001  0.1523903E+01  0.7818608E-02  0.3440338E+00
         11   -1    0    0    0    0  0.00000000000E+00  0.00000000000E+00  0.39999999674E+01  0.40000000000E+01  0.51100000000E-03 0.  1.
    9000002   -1    0    0    0    0 -0.00000000000E+00 -0.00000000000E+00  0.00000000000E+00  0.93800000000E+00  0.93800000000E+00 0. -1.
         11    1    1    2    0    0  0.34905857897E-02  0.24409184130E+00  0.86076835454E+00  0.89471528012E+00  0.51100000000E-03 0.  1.
    9000002    1    1    2    0    0  0.57083081964E-01  0.13824352502E+00  0.72930235331E-01  0.95264503866E+00  0.93800000000E+00 0. -1.
         22    1    1    2    0    0 -0.60573667754E-01 -0.38233536632E+00  0.30663013775E+01  0.30906396812E+01  0.00000000000E+00 0.  1.
</event>
<event>
 5    1  0.3005426E+001  0.1599677E+01  0.7818608E-02  0.3353714E+00
         11   -1    0    0    0    0  0.00000000000E+00  0.00000000000E+00  0.39999999674E+01  0.40000000000E+01  0.51100000000E-03 0. -1.
    9000002   -1    0    0    0    0 -0.00000000000E+00 -0.00000000000E+00  0.00000000000E+00  0.93800000000E+00  0.93800000000E+00 0. -1.
         11    1    1    2    0    0 -0.12198298735E+00 -0.18668072936E+00  0.14537587480E+01  0.14707631701E+01  0.51100000000E-03 0. -1.
    9000002    1    1    2    0    0  0.31706795429E+00  0.48405946582E+00  0.23258442887E+00  0.11264036446E+01  0.93800000000E+00 0. -1.
         22    1    1    2    0    0 -0.19508496694E+00 -0.29737873645E+00  0.23136567905E+01  0.23408331853E+01  0.00000000000E+00 0. -1.
</event>
<event>
 5    1  0.3005426E+001  0.1582969E+01  0.7818608E-02  0.3372058E+00
         11   -1    0    0    0    0  0.00000000000E+00  0.00000000000E+00  0.39999999674E+01  0.40000000000E+01  0.51100000000E-03 0. -1.
    9000002   -1    0    0    0    0 -0.00000000000E+00 -0.00000000000E+00  0.00000000000E+00  0.93800000000E+00  0.93800000000E+00 0. -1.
         11    1    1    2    0    0  0.17459951196E-01  0.65884297565E-01  0.70079088724E+00  0.70409780522E+00  0.51100000000E-03 0. -1.
    9000002    1    1    2    0    0  0.45023257949E+00  0.79534076967E-02  0.15230457370E+00  0.10515765857E+01  0.93800000000E+00 0. -1.
         22    1    1    2    0    0 -0.46769253068E+00 -0.73837705261E-01  0.31469045064E+01  0.31823256091E+01  0.00000000000E+00 0. -1.
</event>
<event>
 5    1  0.3005426E+001  0.1594311E+01  0.7818608E-02  0.3359561E+00
         11   -1    0    0    0    0  0.00000000000E+00  0.00000000000E+00  0.39999999674E+01  0.40000000000E+01  0.51100000000E-03 0. -1.
    9000002   -1    0    0    0    0 -0.00000000000E+00 -0.00000000000E+00  0.00000000000E+00  0.93800000000E+00  0.93800000000E+00 0.  1.
         11    1    1    2    0    0  0.57344876607E-01 -0.36036387667E-01  0.99936952635E+00  0.10016620026E+01  0.51100000000E-03 0. -1.
    9000002    1    1    2    0    0 -0.46222247623E+00 -0.36935165450E-01  0.15103553920E+00  0.10571989208E+01  0.93800000000E+00 0.  1.
         22    1    1    2    0    0  0.40487759962E+00  0.72971553117E-01  0.28495949018E+01  0.28791390766E+01  0.00000000000E+00 0. -1.
</event>
<event>
 5    1  0.3005426E+001  0.1539679E+01  0.7818608E-02  0.3421554E+00
         11   -1    0    0    0    0  0.00000000000E+00  0.00000000000E+00  0.39999999674E+01  0.40000000000E+01  0.51100000000E-03 0.  1.
    9000002   -1    0    0    0    0 -0.00000000000E+00 -0.00000000000E+00  0.00000000000E+00  0.93800000000E+00  0.93800000000E+00 0.  1.
         11    1    1    2    0    0  0.69128804117E-01 -0.29958368822E+00  0.10594673012E+01  0.11031774115E+01  0.51100000000E-03 0.  1.
    9000002    1    1    2    0    0  0.22796725796E+00  0.25727407553E+00  0.12897185079E+00  0.10072917943E+01  0.93800000000E+00 0.  1.
         22    1    1    2    0    0 -0.29709606208E+00  0.42309612690E-01  0.28115608154E+01  0.28275307942E+01  0.00000000000E+00 0.  1.
</event>
<event>
 5    1  0.3005426E+001  0.1568148E+01  0.7818608E-02  0.3388677E+00
         11   -1    0    0    0    0  0.00000000000E+00  0.00000000000E+00  0.39999999674E+01  0.40000000000E+01  0.51100000000E-03 0. -1.
    9000002   -1    0    0    0    0 -0.00000000000E+00 -0.00000000000E+00  0.00000000000E+00  0.93800000000E+00  0.93800000000E+00 0. -1.
         11    1    1    2    0    0  0.10985253471E+00 -0.41024233205E-01  0.11616397687E+01  0.11675434811E+01  0.51100000000E-03 0. -1.
    9000002    1    1    2    0    0  0.19650907524E+00 -0.19636537302E+00  0.76198716783E-01  0.98123667930E+00  0.93800000000E+00 0. -1.
         22    1    1    2    0    0 -0.30636160996E+00  0.23738960622E+00  0.27621614819E+01  0.27892198395E+01  0.00000000000E+00 0. -1.
</event>
<event>
 5    1  0.3005426E+001  0.1599651E+01  0.7818608E-02  0.3353742E+00
         11   -1    0    0    0    0  0.00000000000E+00  0.00000000000E+00  0.39999999674E+01  0.40000000000E+01  0.51100000000E-03 0.  1.
    9000002   -1    0    0    0    0 -0.00000000000E+00 -0.00000000000E+00  0.00000000000E+00  0.93800000000E+00  0.93800000000E+00 0. -1.
         11    1    1    2    0    0  0.26834023032E-01 -0.35738202187E-01  0.40885112617E+00  0.41128674714E+00  0.51100000000E-03 0.  1.
    9000002    1    1    2    0    0 -0.22033338636E+00  0.34633966691E+00  0.11383213665E+00  0.10301940212E+01  0.93800000000E+00 0. -1.
         22    1    1    2    0    0  0.19349936333E+00 -0.31060146472E+00  0.34773167045E+01  0.34965192316E+01  0.00000000000E+00 0.  1.
</event>
<event>
 5    1  0.3005426E+001  0.1599675E+01  0.7818608E-02  0.3353716E+00
         11   -1    0    0    0    0  0.00000000000E+00  0.00000000000E+00  0.39999999674E+01  0.40000000000E+01  0.51100000000E-03 0.  1.
    9000002   -1    0    0    0    0 -0.00000000000E+00 -0.00000000000E+00  0.00000000000E+00  0.93800000000E+00  0.93800000000E+00 0. -1.
         11    1    1    2    0    0  0.56446005438E-01  0.18427291972E-01  0.64265090334E+00  0.64538838021E+00  0.51100000000E-03 0.  1.
    9000002    1    1    2    0    0 -0.34885400584E+00 -0.10657022348E+00  0.89366303371E-01  0.10103893636E+01  0.93800000000E+00 0. -1.
         22    1    1    2    0    0  0.29240800040E+00  0.88142931507E-01  0.32679827606E+01  0.32822222562E+01  0.00000000000E+00 0.  1.
</event>
<event>
 5    1  0.3005426E+001  0.1599671E+01  0.7818608E-02  0.3353720E+00
         11   -1    0    0    0    0  0.00000000000E+00  0.00000000000E+00  0.39999999674E+01  0.40000000000E+01  0.51100000000E-03 0. -1.
    9000002   -1    0    0    0    0 -0.00000000000E+00 -0.00000000000E+00  0.00000000000E+00  0.93800000000E+00  0.93800000000E+00 0. -1.
         11    1    1    2    0    0 -0.30540867251E-01  0.12746169760E+00  0.12098980292E+01  0.12169768819E+01  0.51100000000E-03 0. -1.
    9000002    1    1    2    0    0  0.99728882581E-01 -0.41677790943E+00  0.12435406437E+00  0.10387288429E+01  0.93800000000E+00 0. -1.
         22    1    1    2    0    0 -0.69188015330E-01  0.28931621183E+00  0.26657478738E+01  0.26822942752E+01  0.00000000000E+00 0. -1.
</event>
<event>
 5    1  0.3005426E+001  0.1558350E+01  0.7818608E-02  0.3399847E+00
         11   -1    0    0    0    0  0.00000000000E+00  0.00000000000E+00  0.39999999674E+01  0.40000000000E+01  0.51100000000E-03 0. -1.
    9000002   -1    0    0    0    0 -0.00000000000E+00 -0.00000000000E+00  0.00000000000E+00  0.93800000000E+00  0.93800000000E+00 0. -1.
         11    1    1    2    0    0 -0.87805560351E-01 -0.12245050133E+00  0.12580722449E+01  0.12670635249E+01  0.51100000000E-03 0. -1.
    9000002    1    1    2    0    0 -0.76919445660E-01 -0.23793369402E+00  0.73815815652E-01  0.97356140973E+00  0.93800000000E+00 0. -1.
         22    1    1    2    0    0  0.16472500601E+00  0.36038419535E+00  0.26681119068E+01  0.26973750654E+01  0.00000000000E+00 0. -1.
</event>
<event>
 5    1  0.3005426E+001  0.1599675E+01  0.7818608E-02  0.3353717E+00
         11   -1    0    0    0    0  0.00000000000E+00  0.00000000000E+00  0.39999999674E+01  0.40000000000E+01  0.51100000000E-03 0.  1.
    9000002   -1    0    0    0    0 -0.00000000000E+00 -0.00000000000E+00  0.00000000000E+00  0.93800000000E+00  0.93800000000E+00 0.  1.
         11    1    1    2    0    0 -0.78146611957E-01 -0.83617053721E-01  0.87390916406E+00  0.88137176763E+00  0.51100000000E-03 0.  1.
    9000002    1    1    2    0    0  0.34320114336E+00  0.35977907353E+00  0.16916492349E+00  0.10750296637E+01  0.93800000000E+00 0.  1.
         22    1    1    2    0    0 -0.26505453140E+00 -0.27616201981E+00  0.29569258798E+01  0.29815985686E+01  0.00000000000E+00 0.  1.
</event>
<event>
 5    1  0.3218802E+001  0.1598247E+01  0.7818608E-02  0.3355269E+00
         11   -1    0    0    0    0  0.00000000000E+00  0.00000000000E+00  0.39999999674E+01  0.40000000000E+01  0.51100000000E-03 0.  1.
    9000002   -1    0    0    0    0 -0.00000000000E+00 -0.00000000000E+00  0.00000000000E+00  0.93800000000E+00  0.93800000000E+00 0.  1.
         11    1    1    2    0    0  0.68418100490E-01  0.31264741638E-01  0.11421673428E+01  0.11446418744E+01  0.51100000000E-03 0.  1.
    9000002    1    1    2    0    0 -0.32043363995E+00  0.65390296328E-02  0.69794657613E-01  0.99369802795E+00  0.93800000000E+00 0.  1.
         22    1    1    2    0    0  0.25201553946E+00 -0.37803771271E-01  0.27880379669E+01  0.27996600977E+01  0.00000000000E+00 0. -1.
</event>
<event>
 5    1  0.3005426E+001  0.1599646E+01  0.7818608E-02  0.3353747E+00
         11   -1    0    0    0    0  0.00000000000E+00  0.00000000000E+00  0.39999999674E+01  0.40000000000E+01  0.51100000000E-03 0.  1.
    9000002   -1    0    0    0    0 -0.00000000000E+00 -0.00000000000E+00  0.00000000000E+00  0.93800000000E+00  0.93800000000E+00 0.  1.
         11    1    1    2    0    0 -0.26174716070E-01 -0.12692102560E+00  0.82452157833E+00  0.83464373043E+00  0.51100000000E-03 0.  1.
    9000002    1    1    2    0    0  0.12327757318E+00  0.55588296388E+00  0.22480236463E+00  0.11200818420E+01  0.93800000000E+00 0.  1.
         22    1    1    2    0    0 -0.97102857114E-01 -0.42896193828E+00  0.29506760244E+01  0.29832744276E+01  0.00000000000E+00 0.  1.
</event>
<event>
 5    1  0.3005426E+001  0.1599676E+01  0.7818608E-02  0.3353715E+00
         11   -1    0    0    0    0  0.00000000000E+00  0.00000000000E+00  0.39999999674E+01  0.40000000000E+01  0.51100000000E-03 0. -1.
    9000002   -1    0    0    0    0 -0.00000000000E+00 -0.00000000000E+00  0.00000000000E+00  0.93800000000E+00  0.93800000000E+00 0.  1.
         11    1    1    2    0    0 -0.46688903992E-01  0.23542161969E-01  0.55085113567E+00  0.55332749971E+00  0.51100000000E-03 0. -1.
    9000002    1    1    2    0    0  0.32904974942E+00 -0.17293150449E+00  0.92881589611E-01  0.10132374019E+01  0.93800000000E+00 0.  1.
         22    1    1    2    0    0 -0.28236084542E+00  0.14938934252E+00  0.33562672421E+01  0.33714350984E+01  0.00000000000E+00 0. -1.
</event>
<event>
 5    1  0.3005426E+001  0.1599558E+01  0.7818608E-02  0.3353844E+00
         11   -1    0    0    0    0  0.00000000000E+00  0.00000000000E+00  0.39999999674E+01  0.40000000000E+01  0.51100000000E-03 0. -1.
    9000002   -1    0    0    0    0 -0.00000000000E+00 -0.00000000000E+00  0.00000000000E+00  0.93800000000E+00  0.93800000000E+00 0. -1.
         11    1    1    2    0    0 -0.11050808824E+00 -0.49030060931E-01  0.12664876203E+01  0.12722449206E+01  0.51100000000E-03 0. -1.
    9000002    1    1    2    0    0  0.31954921666E+00  0.18259906084E+00  0.91106671370E-01  0.10117304703E+01  0.93800000000E+00 0. -1.
         22    1    1    2    0    0 -0.20904112842E+00 -0.13356899991E+00  0.26424056756E+01  0.26540246091E+01  0.00000000000E+00 0. -1.
</event>
<event>
 5    1  0.3005426E+001  0.1599548E+01  0.7818608E-02  0.3353854E+00
         11   -1    0    0    0    0  0.00000000000E+00  0.00000000000E+00  0.39999999674E+01  0.40000000000E+01  0.51100000000E-03 0. -1.
    9000002   -1    0    0    0    0 -0.00000000000E+00 -0.00000000000E+00  0.00000000000E+00  0.93800000000E+00  0.93800000000E+00 0. -1.
         11    1    1    2    0    0  0.18889939586E+00 -0.95455284240E-02  0.13367846000E+01  0.13500990433E+01  0.51100000000E-03 0. -1.
    9000002    1    1    2    0    0 -0.53124252153E+00 -0.93781086587E-02  0.19443404431E+00  0.10954246497E+01  0.93800000000E+00 0. -1.
         22    1    1    2    0    0  0.34234312567E+00  0.18923637083E-01  0.24687813231E+01  0.24924763070E+01  0.00000000000E+00 0. -1.
</event>
<event>
 5    1  0.3005426E+001  0.1599676E+01  0.7818608E-02  0.3353715E+00
         11   -1    0    0    0    0  0.00000000000E+00  0.00000000000E+00  0.39999999674E+01  0.40000000000E+01  0.51100000000E-03 0.  1.
    9000002   -1    0    0    0    0 -0.00000000000E+00 -0.00000000000E+00  0.00000000000E+00  0.93800000000E+00  0.93800000000E+00 0.  1.
         11    1    1    2    0    0 -0.32678515279E-01  0.63592195432E-01  0.71111216152E+00  0.71469757245E+00  0.51100000000E-03 0.  1.
    9000002    1    1    2    0    0  0.18292167159E+00 -0.35062864593E+00  0.10543538351E+00  0.10234067644E+01  0.93800000000E+00 0.  1.
         22    1    1    2    0    0 -0.15024315631E+00  0.28703645050E+00  0.31834524223E+01  0.31998956632E+01  0.00000000000E+00 0.  1.
</event>
<event>
 5    1  0.3543692E+001  0.1597795E+01  0.7818608E-02  0.3355760E+00
         11   -1    0    0    0    0  0.00000000000E+00  0.00000000000E+00  0.39999999674E+01  0.40000000000E+01  0.51100000000E-03 0. -1.
    9000002   -1    0    0    0    0 -0.00000000000E+00 -0.00000000000E+00  0.00000000000E+00  0.93800000000E+00  0.93800000000E+00 0. -1.
         11    1    1    2    0    0  0.60688550269E-01  0.39488924636E-02  0.13547655013E+01  0.13561299785E+01  0.51100000000E-03 0. -1.
    9000002    1    1    2    0    0 -0.32006966786E+00 -0.22875136429E-02  0.69968530172E-01  0.99357406378E+00  0.93800000000E+00 0. -1.
         22    1    1    2    0    0  0.25938111759E+00 -0.16613788207E-02  0.25752659358E+01  0.25882959577E+01  0.00000000000E+00 0. -1.
</event>
<event>
 5    1  0.3005426E+001  0.1567718E+01  0.7818608E-02  0.3389164E+00
         11   -1    0    0    0    0  0.00000000000E+00  0.00000000000E+00  0.39999999674E+01  0.40000000000E+01  0.51100000000E-03 0. -1.
    9000002   -1    0    0    0    0 -0.00000000000E+00 -0.00000000000E+00  0.00000000000E+00  0.93800000000E+00  0.93800000000E+00 0. -1.
         11    1    1    2    0    0  0.64658102251E-01  0.14014347998E+00  0.10970231208E+01  0.11078270866E+01  0.51100000000E-03 0. -1.
    9000002    1    1    2    0    0 -0.19737598413E-01  0.15556255329E+00  0.40255054819E-01  0.95186855722E+00  0.93800000000E+00 0. -1.
         22    1    1    2    0    0 -0.44920503838E-01 -0.29570603327E+00  0.28627217918E+01  0.28783043562E+01  0.00000000000E+00 0. -1.
</event>
<event>
 5    1  0.3005426E+001  0.1598670E+01  0.7818608E-02  0.3354808E+00
         11   -1    0    0    0    0  0.00000000000E+00  0.00000000000E+00  0.39999999674E+01  0.40000000000E+01  0.51100000000E-03 0. -1.
    9000002   -1    0    0    0    0 -0.00000000000E+00 -0.00000000000E+00  0.00000000000E+00  0.93800000000E+00  0.93800000000E+00 0. -1.
         11    1    1    2    0    0  0.86641813752E-01  0.14688844887E+00  0.14548961567E+01  0.14648570266E+01  0.51100000000E-03 0. -1.
    9000002    1    1    2    0    0 -0.26922957808E+00 -0.30117588595E+00  0.11097305301E+00  0.10273025350E+01  0.93800000000E+00 0. -1.
         22    1    1    2    0    0  0.18258776433E+00  0.15428743708E+00  0.24341307576E+01  0.24458404384E+01  0.00000000000E+00 0.  1.
</event>
<event>
 5    1  0.3005426E+001  0.1581660E+01  0.7818608E-02  0.3373513E+00
         11   -1    0    0    0    0  0.00000000000E+00  0.00000000000E+00  0.39999999674E+01  0.40000000000E+01  0.51100000000E-03 0.  1.
    9000002   -1    0    0    0    0 -0.00000000000E+00 -0.00000000000E+00  0.00000000000E+00  0.93800000000E+00  0.93800000000E+00 0. -1.
         11    1    1    2    0    0 -0.26470604950E-01 -0.45631641020E-01  0.30924020289E+00  0.31370799128E+00  0.51100000000E-03 0.  1.
    9000002    1    1    2    0    0 -0.25526756067E+00 -0.35534151621E+00  0.14535629895E+00  0.10451801636E+01  0.93800000000E+00 0. -1.
         22    1    1    2    0    0  0.28173816562E+00  0.40097315723E+00  0.35454034655E+01  0.35791118452E+01  0.00000000000E+00 0.  1.
</event>
<event>
 5    1  0.3124294E+001  0.1599668E+01  0.7818608E-02  0.3353724E+00
         11   -1    0    0    0    0  0.00000000000E+00  0.00000000000E+00  0.39999999674E+01  0.40000000000E+01  0.51100000000E-03 0.  1.
    9000002   -1    0    0    0    0 -0.00000000000E+00 -0.00000000000E+00  0.00000000000E+00  0.93800000000E+00  0.93800000000E+00 0. -1.
         11    1    1    2    0    0 -0.99994300596E-01 -0.81346583334E-01  0.14577127404E+01  0.14634011143E+01  0.51100000000E-03 0.  1.
    9000002    1    1    2    0    0  0.27487255459E+00  0.22577992665E+00  0.84902282118E-01  0.10067690371E+01  0.93800000000E+00 0. -1.
         22    1    1    2    0    0 -0.17487825400E+00 -0.14443334332E+00  0.24573849449E+01  0.24678298486E+01  0.00000000000E+00 0.  1.
</event>
<event>
 5    1  0.3005426E+001  0.1599538E+01  0.7818608E-02  0.3353865E+00
         11   -1    0    0    0    0  0.00000000000E+00  0.00000000000E+00  0.39999999674E+01  0.40000000000E+01  0.51100000000E-03 0.  1.
    9000002   -1    0    0    0    0 -0.00000000000E+00 -0.00000000000E+00  0.00000000000E+00  0.93800000000E+00  0.93800000000E+00 0. -1.
         11    1    1    2    0    0  0.42508437474E-01 -0.57501091844E-02  0.15764485253E+00  0.16337745151E+00  0.51100000000E-03 0.  1.
    9000002    1    1    2    0    0 -0.85252058179E+00  0.21045837246E-01  0.54620527307E+00  0.13803689615E+01  0.93800000000E+00 0. -1.
         22    1    1    2    0    0  0.81001214431E+00 -0.15295728061E-01  0.32961498418E+01  0.33942535870E+01  0.00000000000E+00 0.  1.
</event>
<event>
 5    1  0.5864208E+001  0.1519620E+01  0.7818608E-02  0.3445509E+00
         11   -1    0    0    0    0  0.00000000000E+00  0.00000000000E+00  0.39999999674E+01  0.40000000000E+01  0.51100000000E-03 0.  1.
    9000002   -1    0    0    0    0 -0.00000000000E+00 -0.00000000000E+00  0.00000000000E+00  0.93800000000E+00  0.93800000000E+00 0. -1.
         11    1    1    2    0    0  0.20443599328E+00 -0.68669532261E-01  0.49857168670E+00  0.54321594961E+00  0.51100000000E-03 0.  1.
    9000002    1    1    2    0    0  0.11035487203E+00 -0.16229986648E-01  0.69238196191E-01  0.94714282875E+00  0.93800000000E+00 0. -1.
         22    1    1    2    0    0 -0.31479086531E+00  0.84899518909E-01  0.34321900845E+01  0.34476412216E+01  0.00000000000E+00 0.  1.
</event>
<event>
 5    1  0.3005426E+001  0.1599677E+01  0.7818608E-02  0.3353714E+00
         11   -1    0    0    0    0  0.00000000000E+00  0.00000000000E+00  0.39999999674E+01  0.40000000000E+01  0.51100000000E-03 0.  1.
    9000002   -1    0    0    0    0 -0.00000000000E+00 -0.00000000000E+00  0.00000000000E+00  0.93800000000E+00  0.93800000000E+00 0.  1.
         11    1    1    2    0    0  0.12134041926E+00 -0.23649496329E+00  0.13245579871E+01  0.13509653909E+01  0.51100000000E-03 0.  1.
    9000002    1    1    2    0    0 -0.33347304772E+00  0.64542025534E+00  0.37996542960E+00  0.12457886286E+01  0.93800000000E+00 0.  1.
         22    1    1    2    0    0  0.21213262846E+00 -0.40892529205E+00  0.22954765507E+01  0.23412459805E+01  0.00000000000E+00 0.  1.
</event>
<event>
 5    1  0.3005426E+001  0.1587930E+01  0.7818608E-02  0.3366569E+00
         11   -1    0    0    0    0  0.00000000000E+00  0.00000000000E+00  0.39999999674E+01  0.40000000000E+01  0.51100000000E-03 0. -1.
    9000002   -1    0    0    0    0 -0.00000000000E+00 -0.00000000000E+00  0.00000000000E+00  0.93800000000E+00  0.93800000000E+00 0. -1.
         11    1    1    2    0    0 -0.68562024620E-02  0.68334155808E-01  0.84225456756E+00  0.84505004707E+00  0.51100000000E-03 0. -1.
    9000002    1    1    2    0    0  0.17290400384E+00  0.16038003391E+00  0.45884586205E-01  0.96828040622E+00  0.93800000000E+00 0. -1.
         22    1    1    2    0    0 -0.16604780138E+00 -0.22871418972E+00  0.31118608136E+01  0.31246695467E+01  0.00000000000E+00 0. -1.
</event>
<event>
 5    1  0.3005426E+001  0.1599157E+01  0.7818608E-02  0.3354279E+00
         11   -1    0    0    0    0  0.00000000000E+00  0.00000000000E+00  0.39999999674E+01  0.40000000000E+01  0.51100000000E-03 0.  1.
    9000002   -1    0    0    0    0 -0.00000000000E+00 -0.00000000000E+00  0.00000000000E+00  0.93800000000E+00  0.93800000000E+00 0.  1.
         11    1    1    2    0    0 -0.17446987456E+00  0.27866949283E-01  0.14794316331E+01  0.14899444695E+01  0.51100000000E-03 0.  1.
    9000002    1    1    2    0    0  0.44349243116E+00 -0.42103598098E-02  0.13391814076E+00  0.10461746183E+01  0.93800000000E+00 0.  1.
         22    1    1    2    0    0 -0.26902255660E+00 -0.23656589473E-01  0.23866501935E+01  0.24018809122E+01  0.00000000000E+00 0.  1.
</event>
<event>
 5    1  0.3005426E+001  0.1591075E+01  0.7818608E-02  0.3363108E+00
         11   -1    0    0    0    0  0.00000000000E+00  0.00000000000E+00  0.39999999674E+01  0.40000000000E+01  0.51100000000E-03 0. -1.
    9000002   -1    0    0    0    0 -0.00000000000E+00 -0.00000000000E+00  0.00000000000E+00  0.93800000000E+00  0.93800000000E+00 0.  1.
         11    1    1    2    0    0 -0.30441716428E-01  0.26251745799E-01  0.10621726764E+01  0.10629331625E+01  0.51100000000E-03 0. -1.
    9000002    1    1    2    0    0  0.36770918242E+00  0.16318518355E+00  0.11639975144E+00  0.10272450288E+01  0.93800000000E+00 0.  1.
         22    1    1    2    0    0 -0.33726746599E+00 -0.18943692935E+00  0.28214275395E+01  0.28478218088E+01  0.00000000000E+00 0. -1.
</event>
<event>
 5    1  0.3005426E+001  0.1599643E+01  0.7818608E-02  0.3353751E+00
         11   -1    0    0    0    0  0.00000000000E+00  0.00000000000E+00  0.39999999674E+01  0.40000000000E+01  0.51100000000E-03 0.  1.
    9000002   -1    0    0    0    0 -0.00000000000E+00 -0.00000000000E+00  0.00000000000E+00  0.93800000000E+00  0.93800000000E+00 0.  1.
         11    1    1    2    0    0 -0.76083902290E-03 -0.59925541040E-01  0.59276920910E+00  0.59579127698E+00  0.51100000000E-03 0.  1.
    9000002    1    1    2    0    0 -0.19164777700E-01  0.41547443789E+00  0.11695588221E+00  0.10327192143E+01  0.93800000000E+00 0.  1.
         22    1    1    2    0    0  0.19925616723E-01 -0.35554889685E+00  0.32902748760E+01  0.33094895087E+01  0.00000000000E+00 0.  1.
</event>
<event>
 5    1  0.3005426E+001  0.1599677E+01  0.7818608E-02  0.3353714E+00
         11   -1    0    0    0    0  0.00000000000E+00  0.00000000000E+00  0.39999999674E+01  0.40000000000E+01  0.51100000000E-03 0. -1.
    9000002   -1    0    0    0    0 -0.00000000000E+00 -0.00000000000E+00  0.00000000000E+00  0.93800000000E+00  0.93800000000E+00 0.  1.
         11    1    1    2    0    0 -0.12126548323E+00  0.72090119087E-01  0.12547901898E+01  0.12626959191E+01  0.51100000000E-03 0. -1.
    9000002    1    1    2    0    0  0.37538844748E+00 -0.22259421465E+00  0.12910663038E+00  0.10425819838E+01  0.93800000000E+00 0.  1.
         22    1    1    2    0    0 -0.25412296425E+00  0.15050409556E+00  0.26161031472E+01  0.26327220971E+01  0.00000000000E+00 0. -1.
</event>
<event>
 5    1  0.3005426E+001  0.1590804E+01  0.7818608E-02  0.3363406E+00
         11   -1    0    0    0    0  0.00000000000E+00  0.00000000000E+00  0.39999999674E+01  0.40000000000E+01  0.51100000000E-03 0. -1.
    9000002   -1    0    0    0    0 -0.00000000000E+00 -0.00000000000E+00  0.00000000000E+00  0.93800000000E+00  0.93800000000E+00 0. -1.
         11    1    1    2    0    0  0.11145778999E+00 -0.31838821326E-01  0.90051838192E+00  0.90794832826E+00  0.51100000000E-03 0. -1.
    9000002    1    1    2    0    0 -0.32326248077E+00 -0.24410553088E+00  0.11819887699E+00  0.10285432009E+01  0.93800000000E+00 0. -1.
         22    1    1    2    0    0  0.21180469079E+00  0.27594435221E+00  0.29812827085E+01  0.30015084708E+01  0.00000000000E+00 0. -1.
</event>
<event>
 5    1  0.3005426E+001  0.1599653E+01  0.7818608E-02  0.3353740E+00
         11   -1    0    0    0    0  0.00000000000E+00  0.00000000000E+00  0.39999999674E+01  0.40000000000E+01  0.51100000000E-03 0. -1.
    9000002   -1    0    0    0    0 -0.00000000000E+00 -0.00000000000E+00  0.00000000000E+00  0.93800000000E+00  0.93800000000E+00 0. -1.
         11    1    1    2    0    0  0.10233882755E+00  0.19652357964E-01  0.94279355838E+00  0.94853540031E+00  0.51100000000E-03 0. -1.
    9000002    1    1    2    0    0 -0.40097354304E+00 -0.82902210494E-01  0.11324449171E+00  0.10297188323E+01  0.93800000000E+00 0. -1.
         22    1    1    2    0    0  0.29863471549E+00  0.63249852529E-01  0.29439619173E+01  0.29597457674E+01  0.00000000000E+00 0. -1.
</event>
<event>
 5    1  0.3005426E+001  0.1598234E+01  0.7818608E-02  0.3355283E+00
         11   -1    0    0    0    0  0.00000000000E+00  0.00000000000E+00  0.39999999674E+01  0.40000000000E+01  0.51100000000E-03 0.  1.
    9000002   -1    0    0    0    0 -0.00000000000E+00 -0.00000000000E+00  0.00000000000E+00  0.93800000000E+00  0.93800000000E+00 0.  1.
         11    1    1    2    0    0  0.21076977097E-01  0.14659747185E+00  0.11542557553E+01  0.11637188954E+01  0.51100000000E-03 0.  1.
    9000002    1    1    2    0    0 -0.15810876002E+00 -0.38256373177E+00  0.11700649765E+00  0.10319340625E+01  0.93800000000E+00 0.  1.
         22    1    1    2    0    0  0.13703178292E+00  0.23596625992E+00  0.27287377144E+01  0.27423470421E+01  0.00000000000E+00 0.  1.
</event>
<event>
 5    1  0.3005426E+001  0.1580058E+01  0.7818608E-02  0.3375297E+00
         11   -1    0    0    0    0  0.00000000000E+00  0.00000000000E+00  0.39999999674E+01  0.40000000000E+01  0.51100000000E-03 0.  1.
    9000002   -1    0    0    0    0 -0.00000000000E+00 -0.00000000000E+00  0.00000000000E+00  0.93800000000E+00  0.93800000000E+00 0. -1.
         11    1    1    2    0    0  0.19980574899E+00  0.10477436303E+00  0.66397185366E+00  0.70125522319E+00  0.51100000000E-03 0.  1.
    9000002    1    1    2    0    0 -0.53364135369E+00 -0.15281988057E+00  0.23188783504E+00  0.11143352181E+01  0.93800000000E+00 0. -1.
         22    1    1    2    0    0  0.33383560470E+00  0.48045517540E-01  0.31041402787E+01  0.31224095587E+01  0.00000000000E+00 0.  1.
</event>
<event>
 5    1  0.3005426E+001  0.1599575E+01  0.7818608E-02  0.3353825E+00
         11   -1    0    0    0    0  0.00000000000E+00  0.00000000000E+00  0.39999999674E+01  0.40000000000E+01  0.51100000000E-03 0. -1.
    9000002   -1    0    0    0    0 -0.00000000000E+00 -0.00000000000E+00  0.00000000000E+00  0.93800000000E+00  0.93800000000E+00 0.  1.
         11    1    1    2    0    0 -0.42726911625E-01  0.10163569540E+00  0.90848740121E+00  0.91515300515E+00  0.51100000000E-03 0. -1.
    9000002    1    1    2    0    0  0.18542623641E+00 -0.38941998779E+00  0.12609677883E+00  0.10400842339E+01  0.93800000000E+00 0.  1.
         22    1    1    2    0    0 -0.14269932478E+00  0.28778429239E+00  0.29654157873E+01  0.29827627609E+01  0.00000000000E+00 0. -1.
</event>
<event>
 5    1  0.3005426E+001  0.1599375E+01  0.7818608E-02  0.3354042E+00
         11   -1    0    0    0    0  0.00000000000E+00  0.00000000000E+00  0.39999999674E+01  0.40000000000E+01  0.51100000000E-03 0.  1.
    9000002   -1    0    0    0    0 -0.00000000000E+00 -0.00000000000E+00  0.00000000000E+00  0.93800000000E+00  0.93800000000E+00 0.  1.
         11    1    1    2    0    0 -0.25479180885E+00  0.44359330004E-01  0.96702312427E+00  0.10010097902E+01  0.51100000000E-03 0.  1.
    9000002    1    1    2    0    0  0.88798631382E+00 -0.89534464592E-01  0.60818178157E+00  0.14304772607E+01  0.93800000000E+00 0.  1.
         22    1    1    2    0    0 -0.63319450498E+00  0.45175134588E-01  0.24247950615E+01  0.25065129492E+01  0.00000000000E+00 0.  1.
</event>
<event>
 5    1  0.3058604E+001  0.1593598E+01  0.7818608E-02  0.3360341E+00
         11   -1    0    0    0    0  0.00000000000E+00  0.00000000000E+00  0.39999999674E+01  0.40000000000E+01  0.51100000000E-03 0. -1.
    9000002   -1    0    0    0    0 -0.00000000000E+00 -0.00000000000E+00  0.00000000000E+00  0.93800000000E+00  0.93800000000E+00 0. -1.
         11    1    1    2    0    0 -0.14924371832E-01  0.11847427803E-01  0.10162018252E+01  0.10163805927E+01  0.51100000000E-03 0. -1.
    9000002    1    1    2    0    0 -0.39802927415E-01  0.25761600380E+00  0.49858353256E-01  0.97482312951E+00  0.93800000000E+00 0. -1.
         22    1    1    2    0    0  0.54727299246E-01 -0.26946343161E+00  0.29339397889E+01  0.29467962778E+01  0.00000000000E+00 0. -1.
</event>
<event>
 5    1  0.3005426E+001  0.1599411E+01  0.7818608E-02  0.3354002E+00
         11   -1    0    0    0    0  0.00000000000E+00  0.00000000000E+00  0.39999999674E+01  0.40000000000E+01  0.51100000000E-03 0. -1.
    9000002   -1    0    0    0    0 -0.00000000000E+00 -0.00000000000E+00  0.00000000000E+00  0.93800000000E+00  0.93800000000E+00 0. -1.
         11    1    1    2    0    0 -0.12780633727E-01  0.86676377356E-01  0.55137972874E+00  0.55829741660E+00  0.51100000000E-03 0. -1.
    9000002    1    1    2    0    0  0.17955613073E+00 -0.57123780315E+00  0.25036116953E+00  0.11406479505E+01  0.93800000000E+00 0. -1.
         22    1    1    2    0    0 -0.16677549701E+00  0.48456142580E+00  0.31982590691E+01  0.32390546329E+01  0.00000000000E+00 0. -1.
</event>
<event>
 5    1  0.3005426E+001  0.1595119E+01  0.7818608E-02  0.3358678E+00
         11   -1    0    0    0    0  0.00000000000E+00  0.00000000000E+00  0.39999999674E+01  0.40000000000E+01  0.51100000000E-03 0.  1.
    9000002   -1    0    0    0    0 -0.00000000000E+00 -0.00000000000E+00  0.00000000000E+00  0.93800000000E+00  0.93800000000E+00 0.  1.
         11    1    1    2    0    0  0.74494277709E-01  0.86871973712E-01  0.96656571077E+00  0.97331684028E+00  0.51100000000E-03 0.  1.
    9000002    1    1    2    0    0 -0.37283310722E+00 -0.76800250442E-01  0.10125598052E+00  0.10173492900E+01  0.93800000000E+00 0.  1.
         22    1    1    2    0    0  0.29833882951E+00 -0.10071723270E-01  0.29321782761E+01  0.29473338697E+01  0.00000000000E+00 0.  1.
</event>
<event>
 5    1  0.3005426E+001  0.1592203E+01  0.7818608E-02  0.3361869E+00
         11   -1    0    0    0    0  0.00000000000E+00  0.00000000000E+00  0.39999999674E+01  0.40000000000E+01  0.51100000000E-03 0.  1.
    9000002   -1    0    0    0    0 -0.00000000000E+00 -0.00000000000E+00  0.00000000000E+00  0.93800000000E+00  0.93800000000E+00 0.  1.
         11    1    1    2    0    0 -0.88497864743E-01 -0.49526376950E-02  0.12844531630E+01  0.12875078989E+01  0.51100000000E-03 0.  1.
    9000002    1    1    2    0    0  0.30652679390E+00  0.30780137093E+00  0.13427824653E+00  0.10423890861E+01  0.93800000000E+00 0.  1.
         22    1    1    2    0    0 -0.21802892916E+00 -0.30284873324E+00  0.25812685578E+01  0.26081030150E+01  0.00000000000E+00 0.  1.
</event>
<event>
 5    1  0.3005426E+001  0.1564482E+01  0.7818608E-02  0.3392839E+00
         11   -1    0    0    0    0  0.00000000000E+00  0.00000000000E+00  0.39999999674E+01  0.40000000000E+01  0.51100000000E-03 0.  1.
    9000002   -1    0    0    0    0 -0.00000000000E+00 -0.00000000000E+00  0.00000000000E+00  0.93800000000E+00  0.93800000000E+00 0.  1.
         11    1    1    2    0    0 -0.20220578722E+00  0.92926098209E-01  0.99250217831E+00  0.10171446678E+01  0.51100000000E-03 0.  1.
    9000002    1    1    2    0    0  0.20342826297E-01 -0.33143994235E+00  0.10238097585E+00  0.10002960213E+01  0.93800000000E+00 0.  1.
         22    1    1    2    0    0  0.18186296093E+00  0.23851384415E+00  0.29051168132E+01  0.29205593109E+01  0.00000000000E+00 0.  1.
</event>
<event>
 5    1  0.3005426E+001  0.1599676E+01  0.7818608E-02  0.3353715E+00
         11   -1    0    0    0    0  0.00000000000E+00  0.00000000000E+00  0.39999999674E+01  0.40000000000E+01  0.51100000000E-03 0. -1.
    9000002   -1    0    0    0    0 -0.00000000000E+00 -0.00000000000E+00  0.00000000000E+00  0.93800000000E+00  0.93800000000E+00 0. -1.
         11    1    1    2    0    0  0.17083677913E-01  0.19134067987E-01  0.23617425605E+00  0.23756368609E+00  0.51100000000E-03 0.  1.
    9000002    1    1    2    0    0 -0.27972166531E+00 -0.31272093701E+00  0.11904927851E+00  0.10344347854E+01  0.93800000000E+00 0. -1.
         22    1    1    2    0    0  0.26263798740E+00  0.29358686902E+00  0.36447764328E+01  0.36660015285E+01  0.00000000000E+00 0. -1.
</event>
<event>
 5    1  0.3005426E+001  0.1599623E+01  0.7818608E-02  0.3353772E+00
         11   -1    0    0    0    0  0.00000000000E+00  0.00000000000E+00  0.39999999674E+01  0.40000000000E+01  0.51100000000E-03 0. -1.
    9000002   -1    0    0    0    0 -0.00000000000E+00 -0.00000000000E+00  0.00000000000E+00  0.93800000000E+00  0.93800000000E+00 0.  1.
         11    1    1    2    0    0  0.12491280551E+00  0.51268150750E-01  0.13948635658E+01  0.14013836950E+01  0.51100000000E-03 0. -1.
    9000002    1    1    2    0    0 -0.34756389451E+00 -0.16694647121E+00  0.10014480962E+00  0.10190901667E+01  0.93800000000E+00 0.  1.
         22    1    1    2    0    0  0.22265108900E+00  0.11567832046E+00  0.25049915919E+01  0.25175261382E+01  0.00000000000E+00 0. -1.
</event>
<event>
 5    1  0.3005426E+001  0.1599088E+01  0.7818608E-02  0.3354354E+00
         11   -1    0    0    0    0  0.00000000000E+00  0.00000000000E+00  0.39999999674E+01  0.40000000000E+01  0.51100000000E-03 0.  1.
    9000002   -1    0    0    0    0 -0.00000000000E+00 -0.00000000000E+00  0.00000000000E+00  0.93800000000E+00  0.93800000000E+00 0.  1.
         11    1    1    2    0    0 -0.21319946314E-01 -0.84788230054E-04  0.11447757488E+00  0.11644708486E+00  0.51100000000E-03 0.  1.
    9000002    1    1    2    0    0  0.44245002974E+00 -0.19093713535E+00  0.15901756062E+00  0.10664659409E+01  0.93800000000E+00 0.  1.
         22    1    1    2    0    0 -0.42113008342E+00  0.19102192358E+00  0.37265048319E+01  0.37550869743E+01  0.00000000000E+00 0.  1.
</event>
<event>
 5    1  0.3005426E+001  0.1599676E+01  0.7818608E-02  0.3353715E+00
         11   -1    0    0    0    0  0.00000000000E+00  0.00000000000E+00  0.39999999674E+01  0.40000000000E+01  0.51100000000E-03 0. -1.
    9000002   -1    0    0    0    0 -0.00000000000E+00 -0.00000000000E+00  0.00000000000E+00  0.93800000000E+00  0.93800000000E+00 0.  1.
         11    1    1    2    0    0 -0.96603046874E-01 -0.63586003579E-01  0.10594088982E+01  0.10657029620E+01  0.51100000000E-03 0. -1.
    9000002    1    1    2    0    0  0.35119592120E+00  0.23140727315E+00  0.11964004431E+00  0.10349133497E+01  0.93800000000E+00 0.  1.
         22    1    1    2    0    0 -0.25459287432E+00 -0.16782126957E+00  0.28209510249E+01  0.28373836884E+01  0.00000000000E+00 0. -1.
</event>
<event>
 5    1  0.3005426E+001  0.1471314E+01  0.7818608E-02  0.3506084E+00
         11   -1    0    0    0    0  0.00000000000E+00  0.00000000000E+00  0.39999999674E+01  0.40000000000E+01  0.51100000000E-03 0. -1.
    9000002   -1    0    0    0    0 -0.00000000000E+00 -0.00000000000E+00  0.00000000000E+00  0.93800000000E+00  0.93800000000E+00 0.  1.
         11    1    1    2    0    0 -0.49750314018E-01  0.29654348134E+00  0.49023906965E+00  0.57510671758E+00  0.51100000000E-03 0. -1.
    9000002    1    1    2    0    0 -0.49964291757E+00 -0.14714530253E+00  0.31556889222E+00  0.11183570588E+01  0.93800000000E+00 0.  1.
         22    1    1    2    0    0  0.54939323159E+00 -0.14939817881E+00  0.31941920055E+01  0.32445362237E+01  0.00000000000E+00 0. -1.
</event>
<event>
 5    1  0.3005426E+001  0.1552851E+01  0.7818608E-02  0.3406183E+00
         11   -1    0    0    0    0  0.00000000000E+00  0.00000000000E+00  0.39999999674E+01  0.40000000000E+01  0.51100000000E-03 0.  1.
    9000002   -1    0    0    0    0 -0.00000000000E+00 -0.00000000000E+00  0.00000000000E+00  0.93800000000E+00  0.93800000000E+00 0.  1.
         11    1    1    2    0    0 -0.84750801422E-01  0.43470157297E+00  0.10691242688E+01  0.11572273412E+01  0.51100000000E-03 0.  1.
    9000002    1    1    2    0    0 -0.14868818791E+00 -0.74676321877E+00  0.48145107132E+00  0.13005393559E+01  0.93800000000E+00 0.  1.
         22    1    1    2    0    0  0.23343898934E+00  0.31206164580E+00  0.24494246272E+01  0.24802333029E+01  0.00000000000E+00 0.  1.
</event>
<event>
 5    1  0.3005426E+001  0.1599652E+01  0.7818608E-02  0.3353741E+00
         11   -1    0    0    0    0  0.00000000000E+00  0.00000000000E+00  0.39999999674E+01  0.40000000000E+01  0.51100000000E-03 0. -1.
    9000002   -1    0    0    0    0 -0.00000000000E+00 -0.00000000000E+00  0.00000000000E+00  0.93800000000E+00  0.93800000000E+00 0. -1.
         11    1    1    2    0    0 -0.51356382471E-01 -0.29265131539E-01  0.58788514240E+00  0.59084949667E+00  0.51100000000E-03 0. -1.
    9000002    1    1    2    0    0  0.31649199435E+00  0.18123493473E+00  0.89355137759E-01  0.10103670742E+01  0.93800000000E+00 0. -1.
         22    1    1    2    0    0 -0.26513561188E+00 -0.15196980319E+00  0.33227596872E+01  0.33367834291E+01  0.00000000000E+00 0. -1.
</event>
<event>
 5    1  0.3134145E+001  0.1594505E+01  0.7818608E-02  0.3359350E+00
         11   -1    0    0    0    0  0.00000000000E+00  0.00000000000E+00  0.39999999674E+01  0.40000000000E+01  0.51100000000E-03 0.  1.
    9000002   -1    0    0    0    0 -0.00000000000E+00 -0.00000000000E+00  0.00000000000E+00  0.93800000000E+00  0.93800000000E+00 0.  1.
         11    1    1    2    0    0 -0.27040246149E-01 -0.39397924568E-01  0.11847476494E+01  0.11857110209E+01  0.51100000000E-03 0.  1.
    9000002    1    1    2    0    0  0.25294744497E+00 -0.77186198009E-01  0.50502558594E-01  0.97587633822E+00  0.93800000000E+00 0.  1.
         22    1    1    2    0    0 -0.22590719882E+00  0.11658412258E+00  0.27647497594E+01  0.27764126408E+01  0.00000000000E+00 0.  1.
</event>
<event>
 5    1  0.3005426E+001  0.1579489E+01  0.7818608E-02  0.3375930E+00
         11   -1    0    0    0    0  0.00000000000E+00  0.00000000000E+00  0.39999999674E+01  0.40000000000E+01  0.51100000000E-03 0. -1.
    9000002   -1    0    0    0    0 -0.00000000000E+00 -0.00000000000E+00  0.00000000000E+00  0.93800000000E+00  0.93800000000E+00 0. -1.
         11    1    1    2    0    0 -0.79844412583E-01  0.10523812847E+00  0.54607709206E+00  0.56182795009E+00  0.51100000000E-03 0. -1.
    9000002    1    1    2    0    0 -0.25368409052E+00 -0.51116109335E+00  0.24554993740E+00  0.11250689103E+01  0.93800000000E+00 0. -1.
         22    1    1    2    0    0  0.33352850311E+00  0.40592296488E+00  0.32083729379E+01  0.32511031396E+01  0.00000000000E+00 0. -1.
</event>
<event>
 5    1  0.3005426E+001  0.1599620E+01  0.7818608E-02  0.3353776E+00
         11   -1    0    0    0    0  0.00000000000E+00  0.00000000000E+00  0.39999999674E+01  0.40000000000E+01  0.51100000000E-03 0. -1.
    9000002   -1    0    0    0    0 -0.00000000000E+00 -0.00000000000E+00  0.00000000000E+00  0.93800000000E+00  0.93800000000E+00 0.  1.
         11    1    1    2    0    0  0.11641037370E+00  0.65630697604E-01  0.11387897361E+01  0.11466041548E+01  0.51100000000E-03 0. -1.
    9000002    1    1    2    0    0 -0.39351148599E+00 -0.25002233246E+00  0.14804014210E+00  0.10578857878E+01  0.93800000000E+00 0.  1.
         22    1    1    2    0    0  0.27710111229E+00  0.18439163485E+00  0.27131700891E+01  0.27335100574E+01  0.00000000000E+00 0. -1.
</event>
<event>
 5    1  0.3005426E+001  0.1597631E+01  0.7818608E-02  0.3355939E+00
         11   -1    0    0    0    0  0.00000000000E+00  0.00000000000E+00  0.39999999674E+01  0.40000000000E+01  0.51100000000E-03 0. -1.
    9000002   -1    0    0    0    0 -0.00000000000E+00 -0.00000000000E+00  0.00000000000E+00  0.93800000000E+00  0.93800000000E+00 0. -1.
         11    1    1    2    0    0 -0.43489833518E-01  0.73818804295E-02  0.37105232141E+00  0.37366555116E+00  0.51100000000E-03 0. -1.
    9000002    1    1    2    0    0  0.32405814597E+00  0.23081086509E+00  0.10844056337E+00  0.10246417389E+01  0.93800000000E+00 0. -1.
         22    1    1    2    0    0 -0.28056831245E+00 -0.23819274552E+00  0.35205070826E+01  0.35396927099E+01  0.00000000000E+00 0. -1.
</event>
<event>
 5    1  0.3005426E+001  0.1584851E+01  0.7818608E-02  0.3369971E+00
         11   -1    0    0    0    0  0.00000000000E+00  0.00000000000E+00  0.39999999674E+01  0.40000000000E+01  0.51100000000E-03 0. -1.
    9000002   -1    0    0    0    0 -0.00000000000E+00 -0.00000000000E+00  0.00000000000E+00  0.93800000000E+00  0.93800000000E+00 0. -1.
         11    1    1    2    0    0 -0.29621297196E-01  0.38648802108E-01  0.43833670101E+00  0.44103341792E+00  0.51100000000E-03 0. -1.
    9000002    1    1    2    0    0 -0.46797814661E-01  0.41845870899E+00  0.13255688101E+00  0.10366836804E+01  0.93800000000E+00 0. -1.
         22    1    1    2    0    0  0.76419111857E-01 -0.45710751110E+00  0.34291063853E+01  0.34602829016E+01  0.00000000000E+00 0. -1.
</event>
<event>
 5    1  0.3005426E+001  0.1599672E+01  0.7818608E-02  0.3353719E+00
         11   -1    0    0    0    0  0.00000000000E+00  0.00000000000E+00  0.39999999674E+01  0.40000000000E+01  0.51100000000E-03 0.  1.
    9000002   -1    0    0    0    0 -0.00000000000E+00 -0.00000000000E+00  0.00000000000E+00  0.93800000000E+00  0.93800000000E+00 0.  1.
         11    1    1    2    0    0 -0.61672516836E-01 -0.14593951352E+00  0.13164330480E+01  0.13259329063E+01  0.51100000000E-03 0.  1.
    9000002    1    1    2    0    0  0.17366803925E+00  0.42613951793E+00  0.14404370377E+00  0.10546791290E+01  0.93800000000E+00 0.  1.
         22    1    1    2    0    0 -0.11199552241E+00 -0.28020000441E+00  0.25395232156E+01  0.25573879647E+01  0.00000000000E+00 0.  1.
</event>
<event>
 5    1  0.3005426E+001  0.1599677E+01  0.7818608E-02  0.3353714E+00
         11   -1    0    0    0    0  0.00000000000E+00  0.00000000000E+00  0.39999999674E+01  0.40000000000E+01  0.51100000000E-03 0. -1.
    9000002   -1    0    0    0    0 -0.00000000000E+00 -0.00000000000E+00  0.00000000000E+00  0.93800000000E+00  0.93800000000E+00 0. -1.
         11    1    1    2    0    0 -0.66777657077E-01  0.55510298336E-02  0.58715514636E+00  0.59096657810E+00  0.51100000000E-03 0.  1.
    9000002    1    1    2    0    0  0.44085405980E+00 -0.35248252216E-01  0.13269511153E+00  0.10454887536E+01  0.93800000000E+00 0. -1.
         22    1    1    2    0    0 -0.37407640272E+00  0.29697222382E-01  0.32801497095E+01  0.33015446683E+01  0.00000000000E+00 0. -1.
</event>
<event>
 5    1  0.3005426E+001  0.1599677E+01  0.7818608E-02  0.3353714E+00
         11   -1    0    0    0    0  0.00000000000E+00  0.00000000000E+00  0.39999999674E+01  0.40000000000E+01  0.51100000000E-03 0. -1.
    9000002   -1    0    0    0    0 -0.00000000000E+00 -0.00000000000E+00  0.00000000000E+00  0.93800000000E+00  0.93800000000E+00 0. -1.
         11    1    1    2    0    0  0.33437015161E-01  0.77366491833E-01  0.75622670660E+00  0.76090912791E+00  0.51100000000E-03 0. -1.
    9000002    1    1    2    0    0 -0.16887614874E+00 -0.39539056573E+00  0.12518854463E+00  0.10394080165E+01  0.93800000000E+00 0. -1.
         22    1    1    2    0    0  0.13543913358E+00  0.31802407390E+00  0.31185847161E+01  0.31376828556E+01  0.00000000000E+00 0. -1.
</event>
<event>
 5    1  0.3005426E+001  0.1525346E+01  0.7818608E-02  0.3438602E+00
         11   -1    0    0    0    0  0.00000000000E+00  0.00000000000E+00  0.39999999674E+01  0.40000000000E+01  0.51100000000E-03 0.  1.
    9000002   -1    0    0    0    0 -0.00000000000E+00 -0.00000000000E+00  0.00000000000E+00  0.93800000000E+00  0.93800000000E+00 0. -1.
         11    1    1    2    0    0 -0.20457067589E-01 -0.41322052570E+00  0.14389397375E+01  0.14972366292E+01  0.51100000000E-03 0.  1.
    9000002    1    1    2    0    0  0.20306725167E+00  0.26628246186E+00  0.13695996603E+00  0.10053579912E+01  0.93800000000E+00 0. -1.
         22    1    1    2    0    0 -0.18261018408E+00  0.14693806385E+00  0.24241002639E+01  0.24354053796E+01  0.00000000000E+00 0.  1.
</event>
<event>
 5    1  0.3005426E+001  0.1592259E+01  0.7818608E-02  0.3361808E+00
         11   -1    0    0    0    0  0.00000000000E+00  0.00000000000E+00  0.39999999674E+01  0.40000000000E+01  0.51100000000E-03 0.  1.
    9000002   -1    0    0    0    0 -0.00000000000E+00 -0.00000000000E+00  0.00000000000E+00  0.93800000000E+00  0.93800000000E+00 0. -1.
         11    1    1    2    0    0  0.12100157061E-01  0.41220289991E-01  0.15617663243E+00  0.16197817058E+00  0.51100000000E-03 0.  1.
    9000002    1    1    2    0    0 -0.35121136777E+00 -0.96905987051E-02  0.88783977020E-01  0.10055694542E+01  0.93800000000E+00 0. -1.
         22    1    1    2    0    0  0.33911121071E+00 -0.31529691286E-01  0.37550393579E+01  0.37704523753E+01  0.00000000000E+00 0.  1.
</event>
<event>
 5    1  0.3005426E+001  0.1580920E+01  0.7818608E-02  0.3374336E+00
         11   -1    0    0    0    0  0.00000000000E+00  0.00000000000E+00  0.39999999674E+01  0.40000000000E+01  0.51100000000E-03 0. -1.
    9000002   -1    0    0    0    0 -0.00000000000E+00 -0.00000000000E+00  0.00000000000E+00  0.93800000000E+00  0.93800000000E+00 0.  1.
         11    1    1    2    0    0 -0.40908166996E-02  0.67401621735E-01  0.14831530173E+01  0.14846894784E+01  0.51100000000E-03 0. -1.
    9000002    1    1    2    0    0 -0.37550477909E+00 -0.98975560302E-02  0.11040219648E+00  0.10164322140E+01  0.93800000000E+00 0.  1.
         22    1    1    2    0    0  0.37959559579E+00 -0.57504065705E-01  0.24064447536E+01  0.24368783076E+01  0.00000000000E+00 0. -1.
</event>
<event>
 5    1  0.3005426E+001  0.1574148E+01  0.7818608E-02  0.3381909E+00
         11   -1    0    0    0    0  0.00000000000E+00  0.00000000000E+00  0.39999999674E+01  0.40000000000E+01  0.51100000000E-03 0.  1.
    9000002   -1    0    0    0    0 -0.00000000000E+00 -0.00000000000E+00  0.00000000000E+00  0.93800000000E+00  0.93800000000E+00 0.  1.
         11    1    1    2    0    0  0.22188929205E+00  0.37281408259E-01  0.10146900110E+01  0.10393367312E+01  0.51100000000E-03 0.  1.
    9000002    1    1    2    0    0 -0.44084217884E+00  0.36791603782E+00  0.25393576269E+00  0.11287299983E+01  0.93800000000E+00 0.  1.
         22    1    1    2    0    0  0.21895288678E+00 -0.40519744608E+00  0.27313741937E+01  0.27699332704E+01  0.00000000000E+00 0.  1.
</event>
<event>
 5    1  0.3005426E+001  0.1599675E+01  0.7818608E-02  0.3353716E+00
         11   -1    0    0    0    0  0.00000000000E+00  0.00000000000E+00  0.39999999674E+01  0.40000000000E+01  0.51100000000E-03 0.  1.
    9000002   -1    0    0    0    0 -0.00000000000E+00 -0.00000000000E+00  0.00000000000E+00  0.93800000000E+00  0.93800000000E+00 0. -1.
         11    1    1    2    0    0  0.82666212384E-02  0.18255635333E+00  0.11244200958E+01  0.11391733723E+01  0.51100000000E-03 0.  1.
    9000002    1    1    2    0    0 -0.32224502949E-01 -0.60593465636E+00  0.25726731333E+00  0.11463968322E+01  0.93800000000E+00 0. -1.
         22    1    1    2    0    0  0.23957881711E-01  0.42337830302E+00  0.26183125582E+01  0.26524297955E+01  0.00000000000E+00 0.  1.
</event>
<event>
 5    1  0.3005426E+001  0.1599670E+01  0.7818608E-02  0.3353722E+00
         11   -1    0    0    0    0  0.00000000000E+00  0.00000000000E+00  0.39999999674E+01  0.40000000000E+01  0.51100000000E-03 0.  1.
    9000002   -1    0    0    0    0 -0.00000000000E+00 -0.00000000000E+00  0.00000000000E+00  0.93800000000E+00  0.93800000000E+00 0.  1.
         11    1    1    2    0    0 -0.19374454284E+00 -0.28256134790E+00  0.12512635978E+01  0.12973198201E+01  0.51100000000E-03 0.  1.
    9000002    1    1    2    0    0  0.52631955508E+00  0.75418634073E+00  0.65309845708E+00  0.14670347321E+01  0.93800000000E+00 0.  1.
         22    1    1    2    0    0 -0.33257501225E+00 -0.47162499283E+00  0.20956379124E+01  0.21736454478E+01  0.00000000000E+00 0.  1.
</event>
<event>
 5    1  0.3005426E+001  0.1599677E+01  0.7818608E-02  0.3353715E+00
         11   -1    0    0    0    0  0.00000000000E+00  0.00000000000E+00  0.39999999674E+01  0.40000000000E+01  0.51100000000E-03 0.  1.
    9000002   -1    0    0    0    0 -0.00000000000E+00 -0.00000000000E+00  0.00000000000E+00  0.93800000000E+00  0.93800000000E+00 0. -1.
         11    1    1    2    0    0  0.20592708095E-01  0.29579624085E-01  0.38092857628E+00  0.38263018064E+00  0.51100000000E-03 0. -1.
    9000002    1    1    2    0    0 -0.21089788818E+00 -0.30124604274E+00  0.90854086643E-01  0.10115955529E+01  0.93800000000E+00 0. -1.
         22    1    1    2    0    0  0.19030518009E+00  0.27166641865E+00  0.35282173044E+01  0.35437742665E+01  0.00000000000E+00 0.  1.
</event>
<event>
 5    1  0.3005426E+001  0.1599676E+01  0.7818608E-02  0.3353715E+00
         11   -1    0    0    0    0  0.00000000000E+00  0.00000000000E+00  0.39999999674E+01  0.40000000000E+01  0.51100000000E-03 0.  1.
    9000002   -1    0    0    0    0 -0.00000000000E+00 -0.00000000000E+00  0.00000000000E+00  0.93800000000E+00  0.93800000000E+00 0. -1.
         11    1    1    2    0    0  0.15745497755E+00  0.12821422761E+00  0.13284414941E+01  0.13438705378E+01  0.51100000000E-03 0.  1.
    9000002    1    1    2    0    0 -0.44977424179E+00 -0.36223827122E+00  0.23160587515E+00  0.11256103745E+01  0.93800000000E+00 0. -1.
         22    1    1    2    0    0  0.29231926424E+00  0.23402404361E+00  0.24399525981E+01  0.24685190877E+01  0.00000000000E+00 0.  1.
</event>
<event>
 5    1  0.3005426E+001  0.1599668E+01  0.7818608E-02  0.3353724E+00
         11   -1    0    0    0    0  0.00000000000E+00  0.00000000000E+00  0.39999999674E+01  0.40000000000E+01  0.51100000000E-03 0. -1.
    9000002   -1    0    0    0    0 -0.00000000000E+00 -0.00000000000E+00  0.00000000000E+00  0.93800000000E+00  0.93800000000E+00 0.  1.
         11    1    1    2    0    0 -0.95131253826E-02  0.66545135436E-02  0.12535771458E+00  0.12589519383E+00  0.51100000000E-03 0. -1.
    9000002    1    1    2    0    0  0.31687988813E+00 -0.17751369618E+00  0.88595247848E-01  0.10097609092E+01  0.93800000000E+00 0.  1.
         22    1    1    2    0    0 -0.30736676275E+00  0.17085918264E+00  0.37860470049E+01  0.38023438970E+01  0.00000000000E+00 0. -1.
</event>
<event>
 5    1  0.3005426E+001  0.1599666E+01  0.7818608E-02  0.3353726E+00
         11   -1    0    0    0    0  0.00000000000E+00  0.00000000000E+00  0.39999999674E+01  0.40000000000E+01  0.51100000000E-03 0. -1.
    9000002   -1    0    0    0    0 -0.00000000000E+00 -0.00000000000E+00  0.00000000000E+00  0.93800000000E+00  0.93800000000E+00 0.  1.
         11    1    1    2    0    0 -0.91521357189E-01  0.46042218988E-01  0.71423752531E+00  0.72154802226E+00  0.51100000000E-03 0. -1.
    9000002    1    1    2    0    0  0.49713163132E+00 -0.25530479173E+00  0.21609749444E+00  0.11130420130E+01  0.93800000000E+00 0.  1.
         22    1    1    2    0    0 -0.40561027413E+00  0.20926257274E+00  0.30696649476E+01  0.31034099648E+01  0.00000000000E+00 0. -1.
</event>
<event>
 5    1  0.3005426E+001  0.1597499E+01  0.7818608E-02  0.3356082E+00
         11   -1    0    0    0    0  0.00000000000E+00  0.00000000000E+00  0.39999999674E+01  0.40000000000E+01  0.51100000000E-03 0. -1.
    9000002   -1    0    0    0    0 -0.00000000000E+00 -0.00000000000E+00  0.00000000000E+00  0.93800000000E+00  0.93800000000E+00 0. -1.
         11    1    1    2    0    0 -0.13688265432E-01 -0.13857874030E+00  0.13060450762E+01  0.13134479198E+01  0.51100000000E-03 0. -1.
    9000002    1    1    2    0    0  0.19709486092E+00  0.39516204286E+00  0.13414899544E+00  0.10453895816E+01  0.93800000000E+00 0. -1.
         22    1    1    2    0    0 -0.18340659548E+00 -0.25658330256E+00  0.25598058957E+01  0.25791624986E+01  0.00000000000E+00 0.  1.
</event>
<event>
 5    1  0.3005426E+001  0.1534622E+01  0.7818608E-02  0.3427530E+00
         11   -1    0    0    0    0  0.00000000000E+00  0.00000000000E+00  0.39999999674E+01  0.40000000000E+01  0.51100000000E-03 0. -1.
    9000002   -1    0    0    0    0 -0.00000000000E+00 -0.00000000000E+00  0.00000000000E+00  0.93800000000E+00  0.93800000000E+00 0.  1.
         11    1    1    2    0    0  0.20510241240E+00  0.63050574762E-03  0.82316655648E+00  0.84833415464E+00  0.51100000000E-03 0. -1.
    9000002    1    1    2    0    0  0.21177678391E+00  0.96741564765E-01  0.87061288956E-01  0.97037724860E+00  0.93800000000E+00 0.  1.
         22    1    1    2    0    0 -0.41687919632E+00 -0.97372070513E-01  0.30897721219E+01  0.31192885968E+01  0.00000000000E+00 0. -1.
</event>
<event>
 5    1  0.3005426E+001  0.1525869E+01  0.7818608E-02  0.3437973E+00
         11   -1    0    0    0    0  0.00000000000E+00  0.00000000000E+00  0.39999999674E+01  0.40000000000E+01  0.51100000000E-03 0.  1.
    9000002   -1    0    0    0    0 -0.00000000000E+00 -0.00000000000E+00  0.00000000000E+00  0.93800000000E+00  0.93800000000E+00 0. -1.
         11    1    1    2    0    0 -0.34642798783E+00  0.43469702570E+00  0.96379030040E+00  0.11125942024E+01  0.51100000000E-03 0.  1.
    9000002    1    1    2    0    0 -0.33398475218E+00 -0.52986417616E+00  0.56699149184E+00  0.12623886928E+01  0.93800000000E+00 0. -1.
         22    1    1    2    0    0  0.68041274002E+00  0.95167150457E-01  0.24692181751E+01  0.25630171048E+01  0.00000000000E+00 0.  1.
</event>
<event>
 5    1  0.3005426E+001  0.1599676E+01  0.7818608E-02  0.3353715E+00
         11   -1    0    0    0    0  0.00000000000E+00  0.00000000000E+00  0.39999999674E+01  0.40000000000E+01  0.51100000000E-03 0. -1.
    9000002   -1    0    0    0    0 -0.00000000000E+00 -0.00000000000E+00  0.00000000000E+00  0.93800000000E+00  0.93800000000E+00 0.  1.
         11    1    1    2    0    0 -0.34842181984E-01  0.24379953547E+00  0.14551045977E+01  0.14757987134E+01  0.51100000000E-03 0. -1.
    9000002    1    1    2    0    0  0.91460200090E-01 -0.62251320491E+00  0.27800018024E+00  0.11631920558E+01  0.93800000000E+00 0.  1.
         22    1    1    2    0    0 -0.56618018106E-01  0.37871366944E+00  0.22668951894E+01  0.22990092308E+01  0.00000000000E+00 0. -1.
</event>
<event>
 5    1  0.3005426E+001  0.1596479E+01  0.7818608E-02  0.3357193E+00
         11   -1    0    0    0    0  0.00000000000E+00  0.00000000000E+00  0.39999999674E+01  0.40000000000E+01  0.51100000000E-03 0.  1.
    9000002   -1    0    0    0    0 -0.00000000000E+00 -0.00000000000E+00  0.00000000000E+00  0.93800000000E+00  0.93800000000E+00 0. -1.
         11    1    1    2    0    0 -0.15871077336E-01 -0.31214048221E+00  0.13370769804E+01  0.13731200546E+01  0.51100000000E-03 0.  1.
    9000002    1    1    2    0    0 -0.78508024414E-01  0.71399842335E+00  0.37428116015E+00  0.12393093421E+01  0.93800000000E+00 0. -1.
         22    1    1    2    0    0  0.94379101750E-01 -0.40185794115E+00  0.22886418268E+01  0.23255706033E+01  0.00000000000E+00 0.  1.
</event>
<event>
 5    1  0.3005426E+001  0.1599595E+01  0.7818608E-02  0.3353803E+00
         11   -1    0    0    0    0  0.00000000000E+00  0.00000000000E+00  0.39999999674E+01  0.40000000000E+01  0.51100000000E-03 0.  1.
    9000002   -1    0    0    0    0 -0.00000000000E+00 -0.00000000000E+00  0.00000000000E+00  0.93800000000E+00  0.93800000000E+00 0.  1.
         11    1    1    2    0    0 -0.11259016876E+00  0.14758918512E+00  0.13942825636E+01  0.14065856682E+01  0.51100000000E-03 0.  1.
    9000002    1    1    2    0    0  0.33528819126E+00 -0.39427363474E+00  0.18400083220E+00  0.10870005412E+01  0.93800000000E+00 0.  1.
         22    1    1    2    0    0 -0.22269802251E+00  0.24668444962E+00  0.24217165716E+01  0.24444137906E+01  0.00000000000E+00 0.  1.
</event>
<event>
 5    1  0.3005426E+001  0.1599596E+01  0.7818608E-02  0.3353802E+00
         11   -1    0    0    0    0  0.00000000000E+00  0.00000000000E+00  0.39999999674E+01  0.40000000000E+01  0.51100000000E-03 0.  1.
    9000002   -1    0    0    0    0 -0.00000000000E+00 -0.00000000000E+00  0.00000000000E+00  0.93800000000E+00  0.93800000000E+00 0. -1.
         11    1    1    2    0    0  0.13224617151E+00  0.40738135803E-01  0.64677538717E+00  0.66141311459E+00  0.51100000000E-03 0.  1.
    9000002    1    1    2    0    0 -0.72994308486E+00 -0.18004089596E+00  0.41007745551E+00  0.12701335169E+01  0.93800000000E+00 0. -1.
         22    1    1    2    0    0  0.59769691335E+00  0.13930276016E+00  0.29431471247E+01  0.30064533685E+01  0.00000000000E+00 0.  1.
</event>
<event>
 5    1  0.3005426E+001  0.1586642E+01  0.7818608E-02  0.3367990E+00
         11   -1    0    0    0    0  0.00000000000E+00  0.00000000000E+00  0.39999999674E+01  0.40000000000E+01  0.51100000000E-03 0. -1.
    9000002   -1    0    0    0    0 -0.00000000000E+00 -0.00000000000E+00  0.00000000000E+00  0.93800000000E+00  0.93800000000E+00 0. -1.
         11    1    1    2    0    0 -0.18548961096E+00 -0.31758542377E-01  0.99725436478E+00  0.10148554232E+01  0.51100000000E-03 0. -1.
    9000002    1    1    2    0    0  0.48912473373E+00 -0.28643952056E+00  0.23526202771E+00  0.11209294473E+01  0.93800000000E+00 0. -1.
         22    1    1    2    0    0 -0.30363512277E+00  0.31819806294E+00  0.27674835749E+01  0.28022151295E+01  0.00000000000E+00 0. -1.
</event>
<event>
 5    1  0.3005426E+001  0.1599664E+01  0.7818608E-02  0.3353728E+00
         11   -1    0    0    0    0  0.00000000000E+00  0.00000000000E+00  0.39999999674E+01  0.40000000000E+01  0.51100000000E-03 0. -1.
    9000002   -1    0    0    0    0 -0.00000000000E+00 -0.00000000000E+00  0.00000000000E+00  0.93800000000E+00  0.93800000000E+00 0.  1.
         11    1    1    2    0    0  0.11504825526E+00  0.30241187428E-01  0.11822048909E+01  0.11881747749E+01  0.51100000000E-03 0. -1.
    9000002    1    1    2    0    0 -0.36701189048E+00 -0.96564707950E-01  0.96908989597E-01  0.10164929035E+01  0.93800000000E+00 0.  1.
         22    1    1    2    0    0  0.25196363521E+00  0.66323520522E-01  0.27208860868E+01  0.27333323216E+01  0.00000000000E+00 0. -1.
</event>
<event>
 5    1  0.3005426E+001  0.1593118E+01  0.7818608E-02  0.3360867E+00
         11   -1    0    0    0    0  0.00000000000E+00  0.00000000000E+00  0.39999999674E+01  0.40000000000E+01  0.51100000000E-03 0. -1.
    9000002   -1    0    0    0    0 -0.00000000000E+00 -0.00000000000E+00  0.00000000000E+00  0.93800000000E+00  0.93800000000E+00 0. -1.
         11    1    1    2    0    0  0.11533265800E+00  0.59149940568E-01  0.10015297994E+01  0.10098824375E+01  0.51100000000E-03 0. -1.
    9000002    1    1    2    0    0 -0.41992699629E+00  0.10028923833E+00  0.13187133578E+00  0.10409758224E+01  0.93800000000E+00 0. -1.
         22    1    1    2    0    0  0.30459433830E+00 -0.15943917889E+00  0.28665988322E+01  0.28871417401E+01  0.00000000000E+00 0. -1.
</event>
<event>
 5    1  0.3005426E+001  0.1545530E+01  0.7818608E-02  0.3414692E+00
         11   -1    0    0    0    0  0.00000000000E+00  0.00000000000E+00  0.39999999674E+01  0.40000000000E+01  0.51100000000E-03 0. -1.
    9000002   -1    0    0    0    0 -0.00000000000E+00 -0.00000000000E+00  0.00000000000E+00  0.93800000000E+00  0.93800000000E+00 0. -1.
         11    1    1    2    0    0 -0.97535428703E-01 -0.14816617676E+00  0.58468611473E+00  0.61100285570E+00  0.51100000000E-03 0. -1.
    9000002    1    1    2    0    0 -0.19472839587E+00 -0.47190257460E-01  0.68318898247E-01  0.96159115034E+00  0.93800000000E+00 0. -1.
         22    1    1    2    0    0  0.29226382457E+00  0.19535643422E+00  0.33469949544E+01  0.33654059940E+01  0.00000000000E+00 0. -1.
</event>
<event>
 5    1  0.3005426E+001  0.1599673E+01  0.7818608E-02  0.3353718E+00
         11   -1    0    0    0    0  0.00000000000E+00  0.00000000000E+00  0.39999999674E+01  0.40000000000E+01  0.51100000000E-03 0. -1.
    9000002   -1    0    0    0    0 -0.00000000000E+00 -0.00000000000E+00  0.00000000000E+00  0.93800000000E+00  0.93800000000E+00 0. -1.
         11    1    1    2    0    0  0.10928490858E+00  0.42656645367E-01  0.95210212306E+00  0.95930260841E+00  0.51100000000E-03 0. -1.
    9000002    1    1    2    0    0 -0.43915740218E+00 -0.16500971059E+00  0.14991644947E+00  0.10594368175E+01  0.93800000000E+00 0. -1.
         22    1    1    2    0    0  0.32987249360E+00  0.12235306522E+00  0.28979813948E+01  0.29192605741E+01  0.00000000000E+00 0. -1.
</event>
<event>
 5    1  0.3005426E+001  0.1530536E+01  0.7818608E-02  0.3432389E+00
         11   -1    0    0    0    0  0.00000000000E+00  0.00000000000E+00  0.39999999674E+01  0.40000000000E+01  0.51100000000E-03 0.  1.
    9000002   -1    0    0    0    0 -0.00000000000E+00 -0.00000000000E+00  0.00000000000E+00  0.93800000000E+00  0.93800000000E+00 0. -1.
         11    1    1    2    0    0  0.23950664209E+00  0.10308619234E+00  0.94374898624E+00  0.97910806595E+00  0.51100000000E-03 0.  1.
    9000002    1    1    2    0    0  0.12900609050E-01  0.73512407942E-01  0.55745492401E-01  0.94261448098E+00  0.93800000000E+00 0. -1.
         22    1    1    2    0    0 -0.25240725114E+00 -0.17659860028E+00  0.30005054887E+01  0.30162774531E+01  0.00000000000E+00 0.  1.
</event>
<event>
 5    1  0.3005426E+001  0.1502071E+01  0.7818608E-02  0.3467029E+00
         11   -1    0    0    0    0  0.00000000000E+00  0.00000000000E+00  0.39999999674E+01  0.40000000000E+01  0.51100000000E-03 0. -1.
    9000002   -1    0    0    0    0 -0.00000000000E+00 -0.00000000000E+00  0.00000000000E+00  0.93800000000E+00  0.93800000000E+00 0. -1.
         11    1    1    2    0    0 -0.25523357351E+00  0.11370269897E+00  0.14326014118E+01  0.14595956793E+01  0.51100000000E-03 0. -1.
    9000002    1    1    2    0    0 -0.25576537989E+00 -0.45740433081E-01  0.12396274033E+00  0.98118238761E+00  0.93800000000E+00 0. -1.
         22    1    1    2    0    0  0.51099895341E+00 -0.67962265884E-01  0.24434358152E+01  0.24972219331E+01  0.00000000000E+00 0. -1.
</event>
<event>
 5    1  0.3005426E+001  0.1597339E+01  0.7818608E-02  0.3356257E+00
         11   -1    0    0    0    0  0.00000000000E+00  0.00000000000E+00  0.39999999674E+01  0.40000000000E+01  0.51100000000E-03 0.  1.
    9000002   -1    0    0    0    0 -0.00000000000E+00 -0.00000000000E+00  0.00000000000E+00  0.93800000000E+00  0.93800000000E+00 0. -1.
         11    1    1    2    0    0 -0.19040592818E+00 -0.71138151645E-01  0.13986476428E+01  0.14133402082E+01  0.51100000000E-03 0.  1.
    9000002    1    1    2    0    0  0.42642606673E+00  0.78349077723E-01  0.12936556436E+00  0.10414207688E+01  0.93800000000E+00 0. -1.
         22    1    1    2    0    0 -0.23602013855E+00 -0.72109260776E-02  0.24719867602E+01  0.24832390231E+01  0.00000000000E+00 0.  1.
</event>
<event>
 5    1  0.3005426E+001  0.1491621E+01  0.7818608E-02  0.3480104E+00
         11   -1    0    0    0    0  0.00000000000E+00  0.00000000000E+00  0.39999999674E+01  0.40000000000E+01  0.51100000000E-03 0.  1.
    9000002   -1    0    0    0    0 -0.00000000000E+00 -0.00000000000E+00  0.00000000000E+00  0.93800000000E+00  0.93800000000E+00 0.  1.
         11    1    1    2    0    0 -0.50626123209E-02  0.12863815267E+00  0.73283216476E-01  0.14813539518E+00  0.51100000000E-03 0.  1.
    9000002    1    1    2    0    0 -0.27321336467E+00  0.72669115804E-01  0.14237609403E+00  0.98997035066E+00  0.93800000000E+00 0.  1.
         22    1    1    2    0    0  0.27827597699E+00 -0.20130726847E+00  0.37843406569E+01  0.37998942542E+01  0.00000000000E+00 0.  1.
</event>
<event>
 5    1  0.3005426E+001  0.1599671E+01  0.7818608E-02  0.3353720E+00
         11   -1    0    0    0    0  0.00000000000E+00  0.00000000000E+00  0.39999999674E+01  0.40000000000E+01  0.51100000000E-03 0. -1.
    9000002   -1    0    0    0    0 -0.00000000000E+00 -0.00000000000E+00  0.00000000000E+00  0.93800000000E+00  0.93800000000E+00 0. -1.
         11    1    1    2    0    0  0.14547215867E-01 -0.10237182652E-01  0.99229373805E-01  0.10081245531E+00  0.51100000000E-03 0. -1.
    9000002    1    1    2    0    0 -0.53658630371E+00  0.40897840331E+00  0.32317167214E+00  0.11997800321E+01  0.93800000000E+00 0. -1.
         22    1    1    2    0    0  0.52203908784E+00 -0.39874122066E+00  0.35775989214E+01  0.36374075126E+01  0.00000000000E+00 0. -1.
</event>
<event>
 5    1  0.3005426E+001  0.1599677E+01  0.7818608E-02  0.3353714E+00
         11   -1    0    0    0    0  0.00000000000E+00  0.00000000000E+00  0.39999999674E+01  0.40000000000E+01  0.51100000000E-03 0. -1.
    9000002   -1    0    0    0    0 -0.00000000000E+00 -0.00000000000E+00  0.00000000000E+00  0.93800000000E+00  0.93800000000E+00 0. -1.
         11    1    1    2    0    0 -0.12131432438E+00 -0.21762281333E-01  0.88942806738E+00  0.89792722999E+00  0.51100000000E-03 0.  1.
    9000002    1    1    2    0    0  0.51857746181E+00  0.93935383198E-01  0.19102736340E+00  0.10927405427E+01  0.93800000000E+00 0. -1.
         22    1    1    2    0    0 -0.39726313743E+00 -0.72173101864E-01  0.29195445366E+01  0.29473322273E+01  0.00000000000E+00 0. -1.
</event>
<event>
 5    1  0.3005426E+001  0.1599646E+01  0.7818608E-02  0.3353748E+00
         11   -1    0    0    0    0  0.00000000000E+00  0.00000000000E+00  0.39999999674E+01  0.40000000000E+01  0.51100000000E-03 0. -1.
    9000002   -1    0    0    0    0 -0.00000000000E+00 -0.00000000000E+00  0.00000000000E+00  0.93800000000E+00  0.93800000000E+00 0. -1.
         11    1    1    2    0    0 -0.25578114986E-01 -0.11867850731E-01  0.25726197511E+00  0.25880315069E+00  0.51100000000E-03 0. -1.
    9000002    1    1    2    0    0  0.34669087666E+00  0.15185281555E+00  0.96394664875E-01  0.10160658310E+01  0.93800000000E+00 0. -1.
         22    1    1    2    0    0 -0.32111276168E+00 -0.13998496482E+00  0.36463433274E+01  0.36631310183E+01  0.00000000000E+00 0. -1.
</event>
<event>
 5    1  0.3005426E+001  0.1462448E+01  0.7818608E-02  0.3517673E+00
         11   -1    0    0    0    0  0.00000000000E+00  0.00000000000E+00  0.39999999674E+01  0.40000000000E+01  0.51100000000E-03 0. -1.
    9000002   -1    0    0    0    0 -0.00000000000E+00 -0.00000000000E+00  0.00000000000E+00  0.93800000000E+00  0.93800000000E+00 0. -1.
         11    1    1    2    0    0 -0.56965408118E-01 -0.38513284281E+00  0.78630876919E+00  0.87741330396E+00  0.51100000000E-03 0. -1.
    9000002    1    1    2    0    0  0.15098391729E+00 -0.75978225193E-01  0.15466570694E+00  0.96557460348E+00  0.93800000000E+00 0. -1.
         22    1    1    2    0    0 -0.94018509169E-01  0.46111106800E+00  0.30590254912E+01  0.30950120926E+01  0.00000000000E+00 0. -1.
</event>
<event>
 5    1  0.3005426E+001  0.1585704E+01  0.7818608E-02  0.3369027E+00
         11   -1    0    0    0    0  0.00000000000E+00  0.00000000000E+00  0.39999999674E+01  0.40000000000E+01  0.51100000000E-03 0. -1.
    9000002   -1    0    0    0    0 -0.00000000000E+00 -0.00000000000E+00  0.00000000000E+00  0.93800000000E+00  0.93800000000E+00 0.  1.
         11    1    1    2    0    0 -0.29206255301E+00  0.68345924571E-01  0.14187330516E+01  0.14500949738E+01  0.51100000000E-03 0. -1.
    9000002    1    1    2    0    0  0.49869868687E+00  0.53218391416E-01  0.18494563985E+00  0.10796209831E+01  0.93800000000E+00 0.  1.
         22    1    1    2    0    0 -0.20663613387E+00 -0.12156431599E+00  0.23963212759E+01  0.24082840431E+01  0.00000000000E+00 0. -1.
</event>
<event>
 5    1  0.3005426E+001  0.1599620E+01  0.7818608E-02  0.3353776E+00
         11   -1    0    0    0    0  0.00000000000E+00  0.00000000000E+00  0.39999999674E+01  0.40000000000E+01  0.51100000000E-03 0.  1.
    9000002   -1    0    0    0    0 -0.00000000000E+00 -0.00000000000E+00  0.00000000000E+00  0.93800000000E+00  0.93800000000E+00 0. -1.
         11    1    1    2    0    0 -0.12220459387E+00  0.96738291451E-01  0.14564995335E+01  0.14648151461E+01  0.51100000000E-03 0.  1.
    9000002    1    1    2    0    0  0.32792397422E+00 -0.28051582249E+00  0.12619257312E+00  0.10401883604E+01  0.93800000000E+00 0. -1.
         22    1    1    2    0    0 -0.20571938035E+00  0.18377753104E+00  0.24173078607E+01  0.24329964936E+01  0.00000000000E+00 0.  1.
</event>
<event>
 5    1  0.3005426E+001  0.1596867E+01  0.7818608E-02  0.3356771E+00
         11   -1    0    0    0    0  0.00000000000E+00  0.00000000000E+00  0.39999999674E+01  0.40000000000E+01  0.51100000000E-03 0.  1.
    9000002   -1    0    0    0    0 -0.00000000000E+00 -0.00000000000E+00  0.00000000000E+00  0.93800000000E+00  0.93800000000E+00 0. -1.
         11    1    1    2    0    0 -0.11735707517E+00  0.58742678246E-02  0.65452904839E+00  0.66499302735E+00  0.51100000000E-03 0.  1.
    9000002    1    1    2    0    0  0.42236336998E+00  0.49962746719E-01  0.12480886084E+00  0.10374528154E+01  0.93800000000E+00 0. -1.
         22    1    1    2    0    0 -0.30500629481E+00 -0.55837014544E-01  0.32206620581E+01  0.32355541573E+01  0.00000000000E+00 0.  1.
</event>
<event>
 5    1  0.3005426E+001  0.1599036E+01  0.7818608E-02  0.3354411E+00
         11   -1    0    0    0    0  0.00000000000E+00  0.00000000000E+00  0.39999999674E+01  0.40000000000E+01  0.51100000000E-03 0. -1.
    9000002   -1    0    0    0    0 -0.00000000000E+00 -0.00000000000E+00  0.00000000000E+00  0.93800000000E+00  0.93800000000E+00 0.  1.
         11    1    1    2    0    0  0.36109742096E-01 -0.29076577930E-01  0.39549021279E+00  0.39819860672E+00  0.51100000000E-03 0. -1.
    9000002    1    1    2    0    0 -0.19786220980E+00  0.37624172479E+00  0.12284207380E+00  0.10371313632E+01  0.93800000000E+00 0.  1.
         22    1    1    2    0    0  0.16175246771E+00 -0.34716514686E+00  0.34816676808E+01  0.35026700300E+01  0.00000000000E+00 0. -1.
</event>
<event>
 5    1  0.3005426E+001  0.1497614E+01  0.7818608E-02  0.3472581E+00
         11   -1    0    0    0    0  0.00000000000E+00  0.00000000000E+00  0.39999999674E+01  0.40000000000E+01  0.51100000000E-03 0. -1.
    9000002   -1    0    0    0    0 -0.00000000000E+00 -0.00000000000E+00  0.00000000000E+00  0.93800000000E+00  0.93800000000E+00 0.  1.
         11    1    1    2    0    0 -0.25392994720E+00 -0.39163503327E+00  0.10066769270E+01  0.11096202566E+01  0.51100000000E-03 0. -1.
    9000002    1    1    2    0    0  0.43410393000E-01 -0.86311443476E-01  0.17124704775E+00  0.95838597593E+00  0.93800000000E+00 0.  1.
         22    1    1    2    0    0  0.21051955420E+00  0.47794647674E+00  0.28220759926E+01  0.28699937674E+01  0.00000000000E+00 0. -1.
</event>
<event>
 5    1  0.3005426E+001  0.1577814E+01  0.7818608E-02  0.3377802E+00
         11   -1    0    0    0    0  0.00000000000E+00  0.00000000000E+00  0.39999999674E+01  0.40000000000E+01  0.51100000000E-03 0.  1.
    9000002   -1    0    0    0    0 -0.00000000000E+00 -0.00000000000E+00  0.00000000000E+00  0.93800000000E+00  0.93800000000E+00 0.  1.
         11    1    1    2    0    0  0.86226809074E-01  0.99513981518E-01  0.23148628169E+00  0.26631608072E+00  0.51100000000E-03 0.  1.
    9000002    1    1    2    0    0 -0.37868009789E+00 -0.51985540609E+00  0.31461438228E+00  0.11800315544E+01  0.93800000000E+00 0.  1.
         22    1    1    2    0    0  0.29245328882E+00  0.42034142457E+00  0.34538993034E+01  0.34916523649E+01  0.00000000000E+00 0.  1.
</event>
<event>
 5    1  0.3005426E+001  0.1541379E+01  0.7818608E-02  0.3419554E+00
         11   -1    0    0    0    0  0.00000000000E+00  0.00000000000E+00  0.39999999674E+01  0.40000000000E+01  0.51100000000E-03 0.  1.
    9000002   -1    0    0    0    0 -0.00000000000E+00 -0.00000000000E+00  0.00000000000E+00  0.93800000000E+00  0.93800000000E+00 0. -1.
         11    1    1    2    0    0 -0.67390708511E-01  0.17863649358E+00  0.75997619993E+00  0.78359210691E+00  0.51100000000E-03 0.  1.
    9000002    1    1    2    0    0 -0.30640702552E+00  0.70971933417E-01  0.11358569817E+00  0.99582528159E+00  0.93800000000E+00 0. -1.
         22    1    1    2    0    0  0.37379773403E+00 -0.24960842700E+00  0.31264380693E+01  0.31585826115E+01  0.00000000000E+00 0.  1.
</event>
<event>
 5    1  0.3005426E+001  0.1599677E+01  0.7818608E-02  0.3353715E+00
         11   -1    0    0    0    0  0.00000000000E+00  0.00000000000E+00  0.39999999674E+01  0.40000000000E+01  0.51100000000E-03 0.  1.
    9000002   -1    0    0    0    0 -0.00000000000E+00 -0.00000000000E+00  0.00000000000E+00  0.93800000000E+00  0.93800000000E+00 0.  1.
         11    1    1    2    0    0  0.10536269743E+00  0.85431804681E-01  0.10756316967E+01  0.10841511423E+01  0.51100000000E-03 0.  1.
    9000002    1    1    2    0    0 -0.37548502503E+00 -0.30268937149E+00  0.15877276947E+00  0.10666127001E+01  0.93800000000E+00 0.  1.
         22    1    1    2    0    0  0.27012232761E+00  0.21725756681E+00  0.27655955011E+01  0.27872361576E+01  0.00000000000E+00 0.  1.
</event>
<event>
 5    1  0.3005426E+001  0.1599664E+01  0.7818608E-02  0.3353728E+00
         11   -1    0    0    0    0  0.00000000000E+00  0.00000000000E+00  0.39999999674E+01  0.40000000000E+01  0.51100000000E-03 0. -1.
    9000002   -1    0    0    0    0 -0.00000000000E+00 -0.00000000000E+00  0.00000000000E+00  0.93800000000E+00  0.93800000000E+00 0.  1.
         11    1    1    2    0    0 -0.10642997059E-02  0.18365680062E-01  0.17867029301E+00  0.17961560529E+00  0.51100000000E-03 0. -1.
    9000002    1    1    2    0    0  0.46025261363E-01 -0.37006775132E+00  0.93502408200E-01  0.10137332813E+01  0.93800000000E+00 0.  1.
         22    1    1    2    0    0 -0.44960961657E-01  0.35170207126E+00  0.37278272661E+01  0.37446511134E+01  0.00000000000E+00 0. -1.
</event>
<event>
 5    1  0.3005426E+001  0.1599414E+01  0.7818608E-02  0.3353999E+00
         11   -1    0    0    0    0  0.00000000000E+00  0.00000000000E+00  0.39999999674E+01  0.40000000000E+01  0.51100000000E-03 0. -1.
    9000002   -1    0    0    0    0 -0.00000000000E+00 -0.00000000000E+00  0.00000000000E+00  0.93800000000E+00  0.93800000000E+00 0.  1.
         11    1    1    2    0    0  0.63859747522E-01  0.64848465460E-01  0.11024583731E+01  0.11062088936E+01  0.51100000000E-03 0. -1.
    9000002    1    1    2    0    0 -0.20882542180E+00 -0.28999331606E+00  0.85909935834E-01  0.10074366964E+01  0.93800000000E+00 0.  1.
         22    1    1    2    0    0  0.14496567428E+00  0.22514485060E+00  0.28116316584E+01  0.28243544100E+01  0.00000000000E+00 0.  1.
</event>
<event>
 5    1  0.3005426E+001  0.1599473E+01  0.7818608E-02  0.3353935E+00
         11   -1    0    0    0    0  0.00000000000E+00  0.00000000000E+00  0.39999999674E+01  0.40000000000E+01  0.51100000000E-03 0. -1.
    9000002   -1    0    0    0    0 -0.00000000000E+00 -0.00000000000E+00  0.00000000000E+00  0.93800000000E+00  0.93800000000E+00 0. -1.
         11    1    1    2    0    0 -0.60760515525E-01  0.16313861928E-01  0.63011965561E+00  0.63325273299E+00  0.51100000000E-03 0. -1.
    9000002    1    1    2    0    0  0.44985634918E+00 -0.10146677739E+00  0.14485852608E+00  0.10552223625E+01  0.93800000000E+00 0. -1.
         22    1    1    2    0    0 -0.38909583365E+00  0.85152915460E-01  0.32250217857E+01  0.32495249045E+01  0.00000000000E+00 0. -1.
</event>
<event>
 5    1  0.3005426E+001  0.1599669E+01  0.7818608E-02  0.3353723E+00
         11   -1    0    0    0    0  0.00000000000E+00  0.00000000000E+00  0.39999999674E+01  0.40000000000E+01  0.51100000000E-03 0.  1.
    9000002   -1    0    0    0    0 -0.00000000000E+00 -0.00000000000E+00  0.00000000000E+00  0.93800000000E+00  0.93800000000E+00 0. -1.
         11    1    1    2    0    0 -0.24995965267E-01  0.25635737480E-01  0.33426616919E+00  0.33617870590E+00  0.51100000000E-03 0.  1.
    9000002    1    1    2    0    0  0.31111516089E+00 -0.30254435994E+00  0.12761934194E+00  0.10413723779E+01  0.93800000000E+00 0.  1.
         22    1    1    2    0    0 -0.28611919562E+00  0.27690862246E+00  0.35381144562E+01  0.35604489162E+01  0.00000000000E+00 0.  1.
</event>
<event>
 5    1  0.3005426E+001  0.1585714E+01  0.7818608E-02  0.3369016E+00
         11   -1    0    0    0    0  0.00000000000E+00  0.00000000000E+00  0.39999999674E+01  0.40000000000E+01  0.51100000000E-03 0.  1.
    9000002   -1    0    0    0    0 -0.00000000000E+00 -0.00000000000E+00  0.00000000000E+00  0.93800000000E+00  0.93800000000E+00 0. -1.
         11    1    1    2    0    0  0.24351865959E-01 -0.44773812861E-01  0.57347002158E-01  0.76724490688E-01  0.51100000000E-03 0.  1.
    9000002    1    1    2    0    0 -0.55563470306E+00  0.49518543519E+00  0.41770431646E+00  0.12681716897E+01  0.93800000000E+00 0. -1.
         22    1    1    2    0    0  0.53128283710E+00 -0.45041162233E+00  0.35249486487E+01  0.35931038196E+01  0.00000000000E+00 0.  1.
</event>
<event>
 5    1  0.3005426E+001  0.1599676E+01  0.7818608E-02  0.3353715E+00
         11   -1    0    0    0    0  0.00000000000E+00  0.00000000000E+00  0.39999999674E+01  0.40000000000E+01  0.51100000000E-03 0. -1.
    9000002   -1    0    0    0    0 -0.00000000000E+00 -0.00000000000E+00  0.00000000000E+00  0.93800000000E+00  0.93800000000E+00 0. -1.
         11    1    1    2    0    0  0.90370765779E-01  0.26009213374E-02  0.99059648855E+00  0.99471367959E+00  0.51100000000E-03 0. -1.
    9000002    1    1    2    0    0 -0.35459701518E+00 -0.12129014726E-01  0.84453578052E-01  0.10064107328E+01  0.93800000000E+00 0. -1.
         22    1    1    2    0    0  0.26422624940E+00  0.95280933888E-02  0.29249499008E+01  0.29368755877E+01  0.00000000000E+00 0. -1.
</event>
<event>
 5    1  0.3005426E+001  0.1599434E+01  0.7818608E-02  0.3353978E+00
         11   -1    0    0    0    0  0.00000000000E+00  0.00000000000E+00  0.39999999674E+01  0.40000000000E+01  0.51100000000E-03 0. -1.
    9000002   -1    0    0    0    0 -0.00000000000E+00 -0.00000000000E+00  0.00000000000E+00  0.93800000000E+00  0.93800000000E+00 0. -1.
         11    1    1    2    0    0  0.29342443168E-01 -0.12041634293E+00  0.10855622116E+01  0.10926145939E+01  0.51100000000E-03 0. -1.
    9000002    1    1    2    0    0 -0.16072358584E+00  0.40794200399E+00  0.13056146505E+00  0.10436182472E+01  0.93800000000E+00 0. -1.
         22    1    1    2    0    0  0.13138114267E+00 -0.28752566106E+00  0.27838762908E+01  0.28017671589E+01  0.00000000000E+00 0. -1.
</event>
<event>
 5    1  0.3005426E+001  0.1599660E+01  0.7818608E-02  0.3353733E+00
         11   -1    0    0    0    0  0.00000000000E+00  0.00000000000E+00  0.39999999674E+01  0.40000000000E+01  0.51100000000E-03 0. -1.
    9000002   -1    0    0    0    0 -0.00000000000E+00 -0.00000000000E+00  0.00000000000E+00  0.93800000000E+00  0.93800000000E+00 0. -1.
         11    1    1    2    0    0 -0.12148621567E-02  0.49445420763E-01  0.47206054769E+00  0.47464486443E+00  0.51100000000E-03 0. -1.
    9000002    1    1    2    0    0  0.36751512814E-01 -0.40521030268E+00  0.11177823787E+00  0.10285350930E+01  0.93800000000E+00 0. -1.
         22    1    1    2    0    0 -0.35536650657E-01  0.35576488191E+00  0.34161611818E+01  0.34348200426E+01  0.00000000000E+00 0. -1.
</event>
<event>
 5    1  0.3005426E+001  0.1599602E+01  0.7818608E-02  0.3353795E+00
         11   -1    0    0    0    0  0.00000000000E+00  0.00000000000E+00  0.39999999674E+01  0.40000000000E+01  0.51100000000E-03 0. -1.
    9000002   -1    0    0    0    0 -0.00000000000E+00 -0.00000000000E+00  0.00000000000E+00  0.93800000000E+00  0.93800000000E+00 0. -1.
         11    1    1    2    0    0  0.15401306400E-01  0.58392604898E-02  0.11481572558E+00  0.11599228062E+00  0.51100000000E-03 0. -1.
    9000002    1    1    2    0    0 -0.46857152192E+00 -0.87646642933E-01  0.15503541221E+00  0.10635418112E+01  0.93800000000E+00 0. -1.
         22    1    1    2    0    0  0.45317021552E+00  0.81807382443E-01  0.37301488296E+01  0.37584659082E+01  0.00000000000E+00 0. -1.
</event>
<event>
 5    1  0.3005426E+001  0.1599600E+01  0.7818608E-02  0.3353798E+00
         11   -1    0    0    0    0  0.00000000000E+00  0.00000000000E+00  0.39999999674E+01  0.40000000000E+01  0.51100000000E-03 0. -1.
    9000002   -1    0    0    0    0 -0.00000000000E+00 -0.00000000000E+00  0.00000000000E+00  0.93800000000E+00  0.93800000000E+00 0. -1.
         11    1    1    2    0    0 -0.94085020124E-01 -0.23851495660E+00  0.14143710972E+01  0.14374238197E+01  0.51100000000E-03 0. -1.
    9000002    1    1    2    0    0  0.22921494834E+00  0.60380566373E+00  0.29413020062E+00  0.11762131384E+01  0.93800000000E+00 0. -1.
         22    1    1    2    0    0 -0.13512992821E+00 -0.36529070713E+00  0.22914986695E+01  0.23243630419E+01  0.00000000000E+00 0. -1.
</event>
<event>
 5    1  0.3005426E+001  0.1598675E+01  0.7818608E-02  0.3354803E+00
         11   -1    0    0    0    0  0.00000000000E+00  0.00000000000E+00  0.39999999674E+01  0.40000000000E+01  0.51100000000E-03 0. -1.
    9000002   -1    0    0    0    0 -0.00000000000E+00 -0.00000000000E+00  0.00000000000E+00  0.93800000000E+00  0.93800000000E+00 0.  1.
         11    1    1    2    0    0  0.40901833521E-01  0.21102683793E-01  0.83670329297E+00  0.83796834357E+00  0.51100000000E-03 0. -1.
    9000002    1    1    2    0    0 -0.22078250434E+00 -0.24282385586E+00  0.72848841593E-01  0.99642324989E+00  0.93800000000E+00 0.  1.
         22    1    1    2    0    0  0.17988067082E+00  0.22172117207E+00  0.30904478328E+01  0.31036084065E+01  0.00000000000E+00 0. -1.
</event>
<event>
 5    1  0.3005426E+001  0.1599676E+01  0.7818608E-02  0.3353715E+00
         11   -1    0    0    0    0  0.00000000000E+00  0.00000000000E+00  0.39999999674E+01  0.40000000000E+01  0.51100000000E-03 0.  1.
    9000002   -1    0    0    0    0 -0.00000000000E+00 -0.00000000000E+00  0.00000000000E+00  0.93800000000E+00  0.93800000000E+00 0.  1.
         11    1    1    2    0    0  0.22419292627E-01 -0.11896346199E+00  0.11701997075E+01  0.11764448761E+01  0.51100000000E-03 0.  1.
    9000002    1    1    2    0    0 -0.74733285814E-01  0.39906927400E+00  0.11127617887E+00  0.10281379953E+01  0.93800000000E+00 0.  1.
         22    1    1    2    0    0  0.52313993188E-01 -0.28010581201E+00  0.27185240810E+01  0.27334171286E+01  0.00000000000E+00 0.  1.
</event>
<event>
 5    1  0.3005426E+001  0.1599674E+01  0.7818608E-02  0.3353717E+00
         11   -1    0    0    0    0  0.00000000000E+00  0.00000000000E+00  0.39999999674E+01  0.40000000000E+01  0.51100000000E-03 0.  1.
    9000002   -1    0    0    0    0 -0.00000000000E+00 -0.00000000000E+00  0.00000000000E+00  0.93800000000E+00  0.93800000000E+00 0. -1.
         11    1    1    2    0    0  0.12392473606E+00 -0.19710438439E-01  0.12070451435E+01  0.12135501972E+01  0.51100000000E-03 0.  1.
    9000002    1    1    2    0    0 -0.39376992719E+00  0.62387951794E-01  0.10719715987E+00  0.10248327879E+01  0.93800000000E+00 0. -1.
         22    1    1    2    0    0  0.26984519112E+00 -0.42677513354E-01  0.26857576640E+01  0.26996170149E+01  0.00000000000E+00 0.  1.
</event>
<event>
 5    1  0.3005426E+001  0.1598884E+01  0.7818608E-02  0.3354576E+00
         11   -1    0    0    0    0  0.00000000000E+00  0.00000000000E+00  0.39999999674E+01  0.40000000000E+01  0.51100000000E-03 0. -1.
    9000002   -1    0    0    0    0 -0.00000000000E+00 -0.00000000000E+00  0.00000000000E+00  0.93800000000E+00  0.93800000000E+00 0.  1.
         11    1    1    2    0    0 -0.37838466500E-01 -0.86775531369E-01  0.64977424546E+00  0.65663427689E+00  0.51100000000E-03 0. -1.
    9000002    1    1    2    0    0  0.36189992409E+00  0.52268695932E+00  0.28506735243E+00  0.11684522275E+01  0.93800000000E+00 0.  1.
         22    1    1    2    0    0 -0.32406145759E+00 -0.43591142795E+00  0.30651583695E+01  0.31129134956E+01  0.00000000000E+00 0. -1.
</event>
<event>
 5    1  0.3005426E+001  0.1594999E+01  0.7818608E-02  0.3358810E+00
         11   -1    0    0    0    0  0.00000000000E+00  0.00000000000E+00  0.39999999674E+01  0.40000000000E+01  0.51100000000E-03 0. -1.
    9000002   -1    0    0    0    0 -0.00000000000E+00 -0.00000000000E+00  0.00000000000E+00  0.93800000000E+00  0.93800000000E+00 0. -1.
         11    1    1    2    0    0  0.87208562152E-01 -0.29743821945E-01  0.81418971291E+00  0.81938707458E+00  0.51100000000E-03 0. -1.
    9000002    1    1    2    0    0 -0.14188416146E+00  0.30478020622E+00  0.79414826707E-01  0.99958631647E+00  0.93800000000E+00 0. -1.
         22    1    1    2    0    0  0.54675599305E-01 -0.27503638428E+00  0.31063954277E+01  0.31190266089E+01  0.00000000000E+00 0. -1.
</event>
<event>
 5    1  0.3005426E+001  0.1599643E+01  0.7818608E-02  0.3353751E+00
         11   -1    0    0    0    0  0.00000000000E+00  0.00000000000E+00  0.39999999674E+01  0.40000000000E+01  0.51100000000E-03 0.  1.
    9000002   -1    0    0    0    0 -0.00000000000E+00 -0.00000000000E+00  0.00000000000E+00  0.93800000000E+00  0.93800000000E+00 0. -1.
         11    1    1    2    0    0 -0.14485340632E+00 -0.10020072237E-01  0.13013166030E+01  0.13093922535E+01  0.51100000000E-03 0.  1.
    9000002    1    1    2    0    0  0.43743981322E+00  0.11122270418E-01  0.12984369483E+00  0.10431589908E+01  0.93800000000E+00 0. -1.
         22    1    1    2    0    0 -0.29258640691E+00 -0.11021981809E-02  0.25688396696E+01  0.25854487557E+01  0.00000000000E+00 0.  1.
</event>
<event>
 5    1  0.3005426E+001  0.1599638E+01  0.7818608E-02  0.3353756E+00
         11   -1    0    0    0    0  0.00000000000E+00  0.00000000000E+00  0.39999999674E+01  0.40000000000E+01  0.51100000000E-03 0.  1.
    9000002   -1    0    0    0    0 -0.00000000000E+00 -0.00000000000E+00  0.00000000000E+00  0.93800000000E+00  0.93800000000E+00 0.  1.
         11    1    1    2    0    0  0.43553818868E-01 -0.83215866730E-01  0.71388650686E+00  0.72003890271E+00  0.51100000000E-03 0.  1.
    9000002    1    1    2    0    0 -0.25319138218E+00  0.42223117211E+00  0.16574931837E+00  0.10722415191E+01  0.93800000000E+00 0.  1.
         22    1    1    2    0    0  0.20963756332E+00 -0.33901530538E+00  0.31203641421E+01  0.31457195782E+01  0.00000000000E+00 0.  1.
</event>
<event>
 5    1  0.3005426E+001  0.1599677E+01  0.7818608E-02  0.3353714E+00
         11   -1    0    0    0    0  0.00000000000E+00  0.00000000000E+00  0.39999999674E+01  0.40000000000E+01  0.51100000000E-03 0. -1.
    9000002   -1    0    0    0    0 -0.00000000000E+00 -0.00000000000E+00  0.00000000000E+00  0.93800000000E+00  0.93800000000E+00 0.  1.
         11    1    1    2    0    0 -0.17000507463E+00  0.32773904830E-01  0.12574287097E+01  0.12692923522E+01  0.51100000000E-03 0.  1.
    9000002    1    1    2    0    0  0.51417543154E+00 -0.98512241613E-01  0.18838887882E+00  0.10906032302E+01  0.93800000000E+00 0.  1.
         22    1    1    2    0    0 -0.34417035691E+00  0.65738336783E-01  0.25541823789E+01  0.25781044176E+01  0.00000000000E+00 0. -1.
</event>
<event>
 5    1  0.3005426E+001  0.1541733E+01  0.7818608E-02  0.3419138E+00
         11   -1    0    0    0    0  0.00000000000E+00  0.00000000000E+00  0.39999999674E+01  0.40000000000E+01  0.51100000000E-03 0.  1.
    9000002   -1    0    0    0    0 -0.00000000000E+00 -0.00000000000E+00  0.00000000000E+00  0.93800000000E+00  0.93800000000E+00 0.  1.
         11    1    1    2    0    0  0.38230244439E-01 -0.21746910416E+00  0.31520984142E+00  0.38485304741E+00  0.51100000000E-03 0.  1.
    9000002    1    1    2    0    0 -0.92787563033E-01  0.55774395496E+00  0.27932556960E+00  0.11302896200E+01  0.93800000000E+00 0.  1.
         22    1    1    2    0    0  0.54557318594E-01 -0.34027485080E+00  0.34054645563E+01  0.34228573326E+01  0.00000000000E+00 0.  1.
</event>
<event>
 5    1  0.3005426E+001  0.1598260E+01  0.7818608E-02  0.3355254E+00
         11   -1    0    0    0    0  0.00000000000E+00  0.00000000000E+00  0.39999999674E+01  0.40000000000E+01  0.51100000000E-03 0.  1.
    9000002   -1    0    0    0    0 -0.00000000000E+00 -0.00000000000E+00  0.00000000000E+00  0.93800000000E+00  0.93800000000E+00 0. -1.
         11    1    1    2    0    0 -0.30030655840E-01 -0.13035939607E+00  0.84259500055E+00  0.85314829222E+00  0.51100000000E-03 0.  1.
    9000002    1    1    2    0    0  0.29789772588E+00  0.54692734726E+00  0.27342176520E+00  0.11586526831E+01  0.93800000000E+00 0. -1.
         22    1    1    2    0    0 -0.26786707004E+00 -0.41656795119E+00  0.28839832016E+01  0.29261990247E+01  0.00000000000E+00 0.  1.
</event>
<event>
 5    1  0.3005426E+001  0.1599666E+01  0.7818608E-02  0.3353726E+00
         11   -1    0    0    0    0  0.00000000000E+00  0.00000000000E+00  0.39999999674E+01  0.40000000000E+01  0.51100000000E-03 0.  1.
    9000002   -1    0    0    0    0 -0.00000000000E+00 -0.00000000000E+00  0.00000000000E+00  0.93800000000E+00  0.93800000000E+00 0. -1.
         11    1    1    2    0    0 -0.72946646885E-01 -0.22990934987E-01  0.69698916781E+00  0.70117327213E+00  0.51100000000E-03 0.  1.
    9000002    1    1    2    0    0  0.41771223869E+00  0.11604045969E+00  0.12735849638E+00  0.10411594927E+01  0.93800000000E+00 0. -1.
         22    1    1    2    0    0 -0.34476559180E+00 -0.93049524707E-01  0.31756523032E+01  0.31956672352E+01  0.00000000000E+00 0.  1.
</event>
<event>
 5    1  0.3005426E+001  0.1595597E+01  0.7818608E-02  0.3358156E+00
         11   -1    0    0    0    0  0.00000000000E+00  0.00000000000E+00  0.39999999674E+01  0.40000000000E+01  0.51100000000E-03 0. -1.
    9000002   -1    0    0    0    0 -0.00000000000E+00 -0.00000000000E+00  0.00000000000E+00  0.93800000000E+00  0.93800000000E+00 0. -1.
         11    1    1    2    0    0 -0.15573339660E+00  0.90581376975E-01  0.72207989149E+00  0.74421603549E+00  0.51100000000E-03 0. -1.
    9000002    1    1    2    0    0  0.47827323900E+00 -0.47085550291E+00  0.32393659581E+00  0.11980104815E+01  0.93800000000E+00 0. -1.
         22    1    1    2    0    0 -0.32253984240E+00  0.38027412593E+00  0.29539834801E+01  0.29957734830E+01  0.00000000000E+00 0. -1.
</event>
<event>
 5    1  0.3005426E+001  0.1599676E+01  0.7818608E-02  0.3353715E+00
         11   -1    0    0    0    0  0.00000000000E+00  0.00000000000E+00  0.39999999674E+01  0.40000000000E+01  0.51100000000E-03 0.  1.
    9000002   -1    0    0    0    0 -0.00000000000E+00 -0.00000000000E+00  0.00000000000E+00  0.93800000000E+00  0.93800000000E+00 0.  1.
         11    1    1    2    0    0  0.84018840872E-01 -0.91655337986E-01  0.49911071656E+00  0.51436527401E+00  0.51100000000E-03 0. -1.
    9000002    1    1    2    0    0 -0.58402621648E+00  0.62825673777E+00  0.55350743461E+00  0.13863648979E+01  0.93800000000E+00 0.  1.
         22    1    1    2    0    0  0.50000737561E+00 -0.53660139979E+00  0.29473818162E+01  0.30372698280E+01  0.00000000000E+00 0.  1.
</event>
<event>
 5    1  0.3005426E+001  0.1599658E+01  0.7818608E-02  0.3353734E+00
         11   -1    0    0    0    0  0.00000000000E+00  0.00000000000E+00  0.39999999674E+01  0.40000000000E+01  0.51100000000E-03 0. -1.
    9000002   -1    0    0    0    0 -0.00000000000E+00 -0.00000000000E+00  0.00000000000E+00  0.93800000000E+00  0.93800000000E+00 0. -1.
         11    1    1    2    0    0  0.17036612808E-01  0.16603908000E-01  0.25062457220E+00  0.25175161022E+00  0.51100000000E-03 0. -1.
    9000002    1    1    2    0    0 -0.30304941928E+00 -0.24942191140E+00  0.10382647987E+00  0.10220930380E+01  0.93800000000E+00 0. -1.
         22    1    1    2    0    0  0.28601280647E+00  0.23281800340E+00  0.36455489153E+01  0.36641553518E+01  0.00000000000E+00 0. -1.
</event>
<event>
 5    1  0.3005426E+001  0.1591082E+01  0.7818608E-02  0.3363100E+00
         11   -1    0    0    0    0  0.00000000000E+00  0.00000000000E+00  0.39999999674E+01  0.40000000000E+01  0.51100000000E-03 0.  1.
    9000002   -1    0    0    0    0 -0.00000000000E+00 -0.00000000000E+00  0.00000000000E+00  0.93800000000E+00  0.93800000000E+00 0. -1.
         11    1    1    2    0    0  0.18670714946E-01  0.35152898362E-01  0.14982096845E+00  0.15501904905E+00  0.51100000000E-03 0.  1.
    9000002    1    1    2    0    0 -0.33004280049E+00  0.19622210557E+00  0.10635295952E+00  0.10191105518E+01  0.93800000000E+00 0. -1.
         22    1    1    2    0    0  0.31137208554E+00 -0.23137500393E+00  0.37438260394E+01  0.37638703991E+01  0.00000000000E+00 0.  1.
</event>
<event>
 5    1  0.3005426E+001  0.1599505E+01  0.7818608E-02  0.3353900E+00
         11   -1    0    0    0    0  0.00000000000E+00  0.00000000000E+00  0.39999999674E+01  0.40000000000E+01  0.51100000000E-03 0. -1.
    9000002   -1    0    0    0    0 -0.00000000000E+00 -0.00000000000E+00  0.00000000000E+00  0.93800000000E+00  0.93800000000E+00 0.  1.
         11    1    1    2    0    0 -0.19960678862E+00 -0.16345714250E+00  0.94689568485E+00  0.98141367762E+00  0.51100000000E-03 0. -1.
    9000002    1    1    2    0    0  0.73005580964E+00  0.60614395546E+00  0.70523023664E+00  0.15091672096E+01  0.93800000000E+00 0.  1.
         22    1    1    2    0    0 -0.53044902102E+00 -0.44268681296E+00  0.23478740459E+01  0.24474191128E+01  0.00000000000E+00 0. -1.
</event>
<event>
 5    1  0.3005426E+001  0.1599676E+01  0.7818608E-02  0.3353715E+00
         11   -1    0    0    0    0  0.00000000000E+00  0.00000000000E+00  0.39999999674E+01  0.40000000000E+01  0.51100000000E-03 0. -1.
    9000002   -1    0    0    0    0 -0.00000000000E+00 -0.00000000000E+00  0.00000000000E+00  0.93800000000E+00  0.93800000000E+00 0.  1.
         11    1    1    2    0    0 -0.57590712631E-01  0.49194303236E-01  0.52750908324E+00  0.53291919057E+00  0.51100000000E-03 0. -1.
    9000002    1    1    2    0    0  0.41024144037E+00 -0.35345044149E+00  0.20220849713E+00  0.11017974089E+01  0.93800000000E+00 0.  1.
         22    1    1    2    0    0 -0.35265072774E+00  0.30425613826E+00  0.32702823870E+01  0.33032834005E+01  0.00000000000E+00 0. -1.
</event>
<event>
 5    1  0.3005426E+001  0.1599491E+01  0.7818608E-02  0.3353916E+00
         11   -1    0    0    0    0  0.00000000000E+00  0.00000000000E+00  0.39999999674E+01  0.40000000000E+01  0.51100000000E-03 0.  1.
    9000002   -1    0    0    0    0 -0.00000000000E+00 -0.00000000000E+00  0.00000000000E+00  0.93800000000E+00  0.93800000000E+00 0. -1.
         11    1    1    2    0    0 -0.10336068122E-01  0.10391003705E+00  0.10600042895E+01  0.10651354304E+01  0.51100000000E-03 0.  1.
    9000002    1    1    2    0    0 -0.14491440851E-01 -0.39324378473E+00  0.10451786855E+00  0.10225549672E+01  0.93800000000E+00 0. -1.
         22    1    1    2    0    0  0.24827508973E-01  0.28933374768E+00  0.28354778093E+01  0.28503096025E+01  0.00000000000E+00 0.  1.
</event>
<event>
 5    1  0.3005426E+001  0.1599669E+01  0.7818608E-02  0.3353722E+00
         11   -1    0    0    0    0  0.00000000000E+00  0.00000000000E+00  0.39999999674E+01  0.40000000000E+01  0.51100000000E-03 0. -1.
    9000002   -1    0    0    0    0 -0.00000000000E+00 -0.00000000000E+00  0.00000000000E+00  0.93800000000E+00  0.93800000000E+00 0. -1.
         11    1    1    2    0    0  0.82543182944E-01  0.34259228485E-02  0.48487919485E+00  0.49186706407E+00  0.51100000000E-03 0. -1.
    9000002    1    1    2    0    0 -0.63036119973E+00 -0.43143273029E-01  0.28051490235E+00  0.11652249545E+01  0.93800000000E+00 0. -1.
         22    1    1    2    0    0  0.54781801678E+00  0.39717350181E-01  0.32346058702E+01  0.32809079814E+01  0.00000000000E+00 0. -1.
</event>
<event>
 5    1  0.3005426E+001  0.1598849E+01  0.7818608E-02  0.3354613E+00
         11   -1    0    0    0    0  0.00000000000E+00  0.00000000000E+00  0.39999999674E+01  0.40000000000E+01  0.51100000000E-03 0. -1.
    9000002   -1    0    0    0    0 -0.00000000000E+00 -0.00000000000E+00  0.00000000000E+00  0.93800000000E+00  0.93800000000E+00 0.  1.
         11    1    1    2    0    0  0.19462367752E-01 -0.12823866401E-01  0.10027771798E+00  0.10295201383E+00  0.51100000000E-03 0. -1.
    9000002    1    1    2    0    0 -0.32783752802E+00  0.38582167286E+00  0.17641334215E+00  0.10804172691E+01  0.93800000000E+00 0.  1.
         22    1    1    2    0    0  0.30837516026E+00 -0.37299780646E+00  0.37233089072E+01  0.37546307171E+01  0.00000000000E+00 0. -1.
</event>
<event>
 5    1  0.3005426E+001  0.1599592E+01  0.7818608E-02  0.3353806E+00
         11   -1    0    0    0    0  0.00000000000E+00  0.00000000000E+00  0.39999999674E+01  0.40000000000E+01  0.51100000000E-03 0.  1.
    9000002   -1    0    0    0    0 -0.00000000000E+00 -0.00000000000E+00  0.00000000000E+00  0.93800000000E+00  0.93800000000E+00 0.  1.
         11    1    1    2    0    0  0.28037887125E-01  0.78186845178E-01  0.85920036232E+00  0.86320613390E+00  0.51100000000E-03 0.  1.
    9000002    1    1    2    0    0 -0.16553167712E+00 -0.36963129529E+00  0.11078256186E+00  0.10276890612E+01  0.93800000000E+00 0.  1.
         22    1    1    2    0    0  0.13749379000E+00  0.29144445011E+00  0.30300170432E+01  0.30471048049E+01  0.00000000000E+00 0.  1.
</event>
<event>
 5    1  0.3005426E+001  0.1599677E+01  0.7818608E-02  0.3353714E+00
         11   -1    0    0    0    0  0.00000000000E+00  0.00000000000E+00  0.39999999674E+01  0.40000000000E+01  0.51100000000E-03 0. -1.
    9000002   -1    0    0    0    0 -0.00000000000E+00 -0.00000000000E+00  0.00000000000E+00  0.93800000000E+00  0.93800000000E+00 0. -1.
         11    1    1    2    0    0 -0.16990613189E-01  0.13048417462E+00  0.12674841470E+01  0.12742963253E+01  0.51100000000E-03 0. -1.
    9000002    1    1    2    0    0  0.53478157254E-01 -0.40022683867E+00  0.11002857124E+00  0.10271278996E+01  0.93800000000E+00 0. -1.
         22    1    1    2    0    0 -0.36487544066E-01  0.26974266406E+00  0.26224872491E+01  0.26365757750E+01  0.00000000000E+00 0. -1.
</event>
<event>
 5    1  0.3005426E+001  0.1599671E+01  0.7818608E-02  0.3353721E+00
         11   -1    0    0    0    0  0.00000000000E+00  0.00000000000E+00  0.39999999674E+01  0.40000000000E+01  0.51100000000E-03 0. -1.
    9000002   -1    0    0    0    0 -0.00000000000E+00 -0.00000000000E+00  0.00000000000E+00  0.93800000000E+00  0.93800000000E+00 0.  1.
         11    1    1    2    0    0 -0.12212200695E+00 -0.58135824857E-01  0.11204001993E+01  0.11285346368E+01  0.51100000000E-03 0. -1.
    9000002    1    1    2    0    0  0.41125333842E+00  0.19883889651E+00  0.14187165013E+00  0.10529186959E+01  0.93800000000E+00 0.  1.
         22    1    1    2    0    0 -0.28913133147E+00 -0.14070307165E+00  0.27377281179E+01  0.27565466673E+01  0.00000000000E+00 0. -1.
</event>
<event>
 5    1  0.3005426E+001  0.1599673E+01  0.7818608E-02  0.3353719E+00
         11   -1    0    0    0    0  0.00000000000E+00  0.00000000000E+00  0.39999999674E+01  0.40000000000E+01  0.51100000000E-03 0. -1.
    9000002   -1    0    0    0    0 -0.00000000000E+00 -0.00000000000E+00  0.00000000000E+00  0.93800000000E+00  0.93800000000E+00 0.  1.
         11    1    1    2    0    0  0.11281510658E+00 -0.77193449129E-01  0.14321514015E+01  0.14386604794E+01  0.51100000000E-03 0. -1.
    9000002    1    1    2    0    0 -0.31238625895E+00  0.20613699228E+00  0.94188477270E-01  0.10142943871E+01  0.93800000000E+00 0.  1.
         22    1    1    2    0    0  0.19957115237E+00 -0.12894354315E+00  0.24736600885E+01  0.24850451336E+01  0.00000000000E+00 0. -1.
</event>
<event>
 5    1  0.3005426E+001  0.1599677E+01  0.7818608E-02  0.3353714E+00
         11   -1    0    0    0    0  0.00000000000E+00  0.00000000000E+00  0.39999999674E+01  0.40000000000E+01  0.51100000000E-03 0.  1.
    9000002   -1    0    0    0    0 -0.00000000000E+00 -0.00000000000E+00  0.00000000000E+00  0.93800000000E+00  0.93800000000E+00 0.  1.
         11    1    1    2    0    0 -0.34969476001E-01 -0.75110703368E-01  0.53850439290E+00  0.54484100829E+00  0.51100000000E-03 0. -1.
    9000002    1    1    2    0    0  0.24350434039E+00  0.52394254274E+00  0.23182321586E+00  0.11257869049E+01  0.93800000000E+00 0.  1.
         22    1    1    2    0    0 -0.20853486439E+00 -0.44883183937E+00  0.32296723586E+01  0.32673720868E+01  0.00000000000E+00 0.  1.
</event>
<event>
 5    1  0.3005426E+001  0.1597309E+01  0.7818608E-02  0.3356289E+00
         11   -1    0    0    0    0  0.00000000000E+00  0.00000000000E+00  0.39999999674E+01  0.40000000000E+01  0.51100000000E-03 0. -1.
    9000002   -1    0    0    0    0 -0.00000000000E+00 -0.00000000000E+00  0.00000000000E+00  0.93800000000E+00  0.93800000000E+00 0. -1.
         11    1    1    2    0    0 -0.10152513760E-01  0.20555579518E-01  0.79113996320E+00  0.79147224075E+00  0.51100000000E-03 0. -1.
    9000002    1    1    2    0    0  0.17482970105E-02 -0.33034441211E+00  0.74906489372E-01  0.99728906005E+00  0.93800000000E+00 0. -1.
         22    1    1    2    0    0  0.84042167493E-02  0.30978883259E+00  0.31339535148E+01  0.31492386992E+01  0.00000000000E+00 0. -1.
</event>
<event>
 5    1  0.3005426E+001  0.1599649E+01  0.7818608E-02  0.3353745E+00
         11   -1    0    0    0    0  0.00000000000E+00  0.00000000000E+00  0.39999999674E+01  0.40000000000E+01  0.51100000000E-03 0.  1.
    9000002   -1    0    0    0    0 -0.00000000000E+00 -0.00000000000E+00  0.00000000000E+00  0.93800000000E+00  0.93800000000E+00 0. -1.
         11    1    1    2    0    0 -0.50837149355E-01 -0.12953969487E+00  0.13717597281E+01  0.13788001889E+01  0.51100000000E-03 0.  1.
    9000002    1    1    2    0    0  0.15723660509E+00  0.37840943580E+00  0.11343144163E+00  0.10298678279E+01  0.93800000000E+00 0. -1.
         22    1    1    2    0    0 -0.10639945573E+00 -0.24886974093E+00  0.25148087977E+01  0.25293319831E+01  0.00000000000E+00 0.  1.
</event>
<event>
 5    1  0.3005426E+001  0.1599667E+01  0.7818608E-02  0.3353724E+00
         11   -1    0    0    0    0  0.00000000000E+00  0.00000000000E+00  0.39999999674E+01  0.40000000000E+01  0.51100000000E-03 0. -1.
    9000002   -1    0    0    0    0 -0.00000000000E+00 -0.00000000000E+00  0.00000000000E+00  0.93800000000E+00  0.93800000000E+00 0.  1.
         11    1    1    2    0    0  0.11728712031E-02 -0.13911456212E+00  0.12004142026E+01  0.12084489050E+01  0.51100000000E-03 0. -1.
    9000002    1    1    2    0    0  0.65381976294E-02  0.44400478442E+00  0.13381531314E+00  0.10463907180E+01  0.93800000000E+00 0.  1.
         22    1    1    2    0    0 -0.77110688324E-02 -0.30489022230E+00  0.26657704516E+01  0.26831603771E+01  0.00000000000E+00 0. -1.
</event>
<event>
 5    1  0.3005426E+001  0.1599674E+01  0.7818608E-02  0.3353717E+00
         11   -1    0    0    0    0  0.00000000000E+00  0.00000000000E+00  0.39999999674E+01  0.40000000000E+01  0.51100000000E-03 0.  1.
    9000002   -1    0    0    0    0 -0.00000000000E+00 -0.00000000000E+00  0.00000000000E+00  0.93800000000E+00  0.93800000000E+00 0. -1.
         11    1    1    2    0    0 -0.79254362289E-01 -0.80008461987E-02  0.49233199653E+00  0.49873472249E+00  0.51100000000E-03 0.  1.
    9000002    1    1    2    0    0  0.60004561703E+00  0.51542571936E-01  0.25318832850E+00  0.11430921699E+01  0.93800000000E+00 0. -1.
         22    1    1    2    0    0 -0.52079125474E+00 -0.43541725738E-01  0.32544796423E+01  0.32961731076E+01  0.00000000000E+00 0.  1.
</event>
<event>
 5    1  0.3005426E+001  0.1599674E+01  0.7818608E-02  0.3353717E+00
         11   -1    0    0    0    0  0.00000000000E+00  0.00000000000E+00  0.39999999674E+01  0.40000000000E+01  0.51100000000E-03 0. -1.
    9000002   -1    0    0    0    0 -0.00000000000E+00 -0.00000000000E+00  0.00000000000E+00  0.93800000000E+00  0.93800000000E+00 0.  1.
         11    1    1    2    0    0 -0.28752551868E-02  0.11571447395E+00  0.10191936199E+01  0.10257455837E+01  0.51100000000E-03 0. -1.
    9000002    1    1    2    0    0  0.43099041653E-02 -0.43678885428E+00  0.12934573153E+00  0.10427738953E+01  0.93800000000E+00 0.  1.
         22    1    1    2    0    0 -0.14346489785E-02  0.32107438033E+00  0.28514606159E+01  0.28694805210E+01  0.00000000000E+00 0. -1.
</event>
<event>
 5    1  0.3005426E+001  0.1599672E+01  0.7818608E-02  0.3353719E+00
         11   -1    0    0    0    0  0.00000000000E+00  0.00000000000E+00  0.39999999674E+01  0.40000000000E+01  0.51100000000E-03 0. -1.
    9000002   -1    0    0    0    0 -0.00000000000E+00 -0.00000000000E+00  0.00000000000E+00  0.93800000000E+00  0.93800000000E+00 0.  1.
         11    1    1    2    0    0  0.37130533043E-01 -0.59402095385E-01  0.45910194177E+00  0.46441591217E+00  0.51100000000E-03 0. -1.
    9000002    1    1    2    0    0 -0.31215923437E+00  0.47645711928E+00  0.22496163881E+00  0.11202260991E+01  0.93800000000E+00 0.  1.
         22    1    1    2    0    0  0.27502870133E+00 -0.41705502390E+00  0.33159363868E+01  0.33533579888E+01  0.00000000000E+00 0. -1.
</event>
<event>
 5    1  0.3005426E+001  0.1599676E+01  0.7818608E-02  0.3353715E+00
         11   -1    0    0    0    0  0.00000000000E+00  0.00000000000E+00  0.39999999674E+01  0.40000000000E+01  0.51100000000E-03 0.  1.
    9000002   -1    0    0    0    0 -0.00000000000E+00 -0.00000000000E+00  0.00000000000E+00  0.93800000000E+00  0.93800000000E+00 0.  1.
         11    1    1    2    0    0 -0.17154519870E+00  0.23577007887E-02  0.12249083802E+01  0.12368646308E+01  0.51100000000E-03 0.  1.
    9000002    1    1    2    0    0  0.53629386659E+00 -0.71637373542E-02  0.19818367443E+00  0.10985368448E+01  0.93800000000E+00 0.  1.
         22    1    1    2    0    0 -0.36474866789E+00  0.48060365655E-02  0.25769079127E+01  0.26025985244E+01  0.00000000000E+00 0.  1.
</event>
<event>
 5    1  0.3005426E+001  0.1516447E+01  0.7818608E-02  0.3449360E+00
         11   -1    0    0    0    0  0.00000000000E+00  0.00000000000E+00  0.39999999674E+01  0.40000000000E+01  0.51100000000E-03 0.  1.
    9000002   -1    0    0    0    0 -0.00000000000E+00 -0.00000000000E+00  0.00000000000E+00  0.93800000000E+00  0.93800000000E+00 0.  1.
         11    1    1    2    0    0  0.22194803582E+00  0.18469811096E+00  0.36019304028E+00  0.46164229679E+00  0.51100000000E-03 0.  1.
    9000002    1    1    2    0    0 -0.56490319435E+00 -0.30684110990E+00  0.38396471571E+00  0.12002249742E+01  0.93800000000E+00 0.  1.
         22    1    1    2    0    0  0.34295515852E+00  0.12214299893E+00  0.32558422114E+01  0.32761327290E+01  0.00000000000E+00 0.  1.
</event>
<event>
 5    1  0.3005426E+001  0.1599611E+01  0.7818608E-02  0.3353786E+00
         11   -1    0    0    0    0  0.00000000000E+00  0.00000000000E+00  0.39999999674E+01  0.40000000000E+01  0.51100000000E-03 0.  1.
    9000002   -1    0    0    0    0 -0.00000000000E+00 -0.00000000000E+00  0.00000000000E+00  0.93800000000E+00  0.93800000000E+00 0.  1.
         11    1    1    2    0    0 -0.99748480587E-01 -0.12144021122E+00  0.13366602536E+01  0.13458671476E+01  0.51100000000E-03 0.  1.
    9000002    1    1    2    0    0  0.31078988122E+00  0.33646876193E+00  0.14272224594E+00  0.10535725972E+01  0.93800000000E+00 0.  1.
         22    1    1    2    0    0 -0.21104140063E+00 -0.21502855071E+00  0.25206174678E+01  0.25385602552E+01  0.00000000000E+00 0.  1.
</event>
<event>
 5    1  0.3005426E+001  0.1599676E+01  0.7818608E-02  0.3353715E+00
         11   -1    0    0    0    0  0.00000000000E+00  0.00000000000E+00  0.39999999674E+01  0.40000000000E+01  0.51100000000E-03 0. -1.
    9000002   -1    0    0    0    0 -0.00000000000E+00 -0.00000000000E+00  0.00000000000E+00  0.93800000000E+00  0.93800000000E+00 0.  1.
         11    1    1    2    0    0 -0.67678774049E-01  0.14394191457E+00  0.13226682315E+01  0.13321978843E+01  0.51100000000E-03 0. -1.
    9000002    1    1    2    0    0  0.19957495127E+00 -0.42125785278E+00  0.14793902547E+00  0.10578366107E+01  0.93800000000E+00 0.  1.
         22    1    1    2    0    0 -0.13189617722E+00  0.27731593821E+00  0.25293927104E+01  0.25479655050E+01  0.00000000000E+00 0. -1.
</event>
<event>
 5    1  0.3005426E+001  0.1599676E+01  0.7818608E-02  0.3353715E+00
         11   -1    0    0    0    0  0.00000000000E+00  0.00000000000E+00  0.39999999674E+01  0.40000000000E+01  0.51100000000E-03 0.  1.
    9000002   -1    0    0    0    0 -0.00000000000E+00 -0.00000000000E+00  0.00000000000E+00  0.93800000000E+00  0.93800000000E+00 0.  1.
         11    1    1    2    0    0  0.45247980223E-01  0.15508623545E-01  0.43110966477E+00  0.43375534728E+00  0.51100000000E-03 0.  1.
    9000002    1    1    2    0    0 -0.40810391034E+00 -0.14274690166E+00  0.12663499544E+00  0.10405795989E+01  0.93800000000E+00 0.  1.
         22    1    1    2    0    0  0.36285593011E+00  0.12723827811E+00  0.34422553072E+01  0.34636650538E+01  0.00000000000E+00 0.  1.
</event>
<event>
 5    1  0.3005426E+001  0.1598024E+01  0.7818608E-02  0.3355511E+00
         11   -1    0    0    0    0  0.00000000000E+00  0.00000000000E+00  0.39999999674E+01  0.40000000000E+01  0.51100000000E-03 0.  1.
    9000002   -1    0    0    0    0 -0.00000000000E+00 -0.00000000000E+00  0.00000000000E+00  0.93800000000E+00  0.93800000000E+00 0. -1.
         11    1    1    2    0    0 -0.85736823292E-01 -0.13124011610E-01  0.10269873509E+01  0.10306436448E+01  0.51100000000E-03 0.  1.
    9000002    1    1    2    0    0  0.32427364475E+00 -0.11409924197E+00  0.80508729577E-01  0.10022463216E+01  0.93800000000E+00 0. -1.
         22    1    1    2    0    0 -0.23853682146E+00  0.12722325358E+00  0.28925038869E+01  0.29051100336E+01  0.00000000000E+00 0.  1.
</event>
<event>
 5    1  0.3005426E+001  0.1599663E+01  0.7818608E-02  0.3353730E+00
         11   -1    0    0    0    0  0.00000000000E+00  0.00000000000E+00  0.39999999674E+01  0.40000000000E+01  0.51100000000E-03 0. -1.
    9000002   -1    0    0    0    0 -0.00000000000E+00 -0.00000000000E+00  0.00000000000E+00  0.93800000000E+00  0.93800000000E+00 0. -1.
         11    1    1    2    0    0 -0.17673878744E-01 -0.18183566481E-01  0.22646431697E+00  0.22788013530E+00  0.51100000000E-03 0. -1.
    9000002    1    1    2    0    0  0.30385653206E+00  0.27614847121E+00  0.11388427397E+00  0.10302428831E+01  0.93800000000E+00 0. -1.
         22    1    1    2    0    0 -0.28618265332E+00 -0.25796490473E+00  0.36596513764E+01  0.36798769817E+01  0.00000000000E+00 0. -1.
</event>
<event>
 5    1  0.3005426E+001  0.1573601E+01  0.7818608E-02  0.3382524E+00
         11   -1    0    0    0    0  0.00000000000E+00  0.00000000000E+00  0.39999999674E+01  0.40000000000E+01  0.51100000000E-03 0.  1.
    9000002   -1    0    0    0    0 -0.00000000000E+00 -0.00000000000E+00  0.00000000000E+00  0.93800000000E+00  0.93800000000E+00 0. -1.
         11    1    1    2    0    0 -0.20043620202E+00  0.52704254467E-01  0.11042634075E+01  0.11235436546E+01  0.51100000000E-03 0.  1.
    9000002    1    1    2    0    0  0.27737195402E+00  0.25998285409E+00  0.11896923015E+00  0.10190799591E+01  0.93800000000E+00 0. -1.
         22    1    1    2    0    0 -0.76935752004E-01 -0.31268710856E+00  0.27767673297E+01  0.27953763863E+01  0.00000000000E+00 0.  1.
</event>
<event>
 5    1  0.3005426E+001  0.1599576E+01  0.7818608E-02  0.3353824E+00
         11   -1    0    0    0    0  0.00000000000E+00  0.00000000000E+00  0.39999999674E+01  0.40000000000E+01  0.51100000000E-03 0.  1.
    9000002   -1    0    0    0    0 -0.00000000000E+00 -0.00000000000E+00  0.00000000000E+00  0.93800000000E+00  0.93800000000E+00 0. -1.
         11    1    1    2    0    0 -0.75152117576E-01 -0.23298354881E-01  0.91983010503E+00  0.92318922077E+00  0.51100000000E-03 0.  1.
    9000002    1    1    2    0    0  0.35517537087E+00  0.12358456744E+00  0.95192645031E-01  0.10150508997E+01  0.93800000000E+00 0. -1.
         22    1    1    2    0    0 -0.28002325329E+00 -0.10028621256E+00  0.29849772173E+01  0.29997598795E+01  0.00000000000E+00 0.  1.
</event>
<event>
 5    1  0.3005426E+001  0.1599516E+01  0.7818608E-02  0.3353888E+00
         11   -1    0    0    0    0  0.00000000000E+00  0.00000000000E+00  0.39999999674E+01  0.40000000000E+01  0.51100000000E-03 0. -1.
    9000002   -1    0    0    0    0 -0.00000000000E+00 -0.00000000000E+00  0.00000000000E+00  0.93800000000E+00  0.93800000000E+00 0.  1.
         11    1    1    2    0    0  0.16301944641E+00  0.72361583442E-01  0.13297475653E+01  0.13416558378E+01  0.51100000000E-03 0. -1.
    9000002    1    1    2    0    0 -0.44382140601E+00 -0.17712299415E+00  0.15589633876E+00  0.10641887351E+01  0.93800000000E+00 0.  1.
         22    1    1    2    0    0  0.28080195960E+00  0.10476141071E+00  0.25143560633E+01  0.25321554271E+01  0.00000000000E+00 0. -1.
</event>
<event>
 5    1  0.3005426E+001  0.1541299E+01  0.7818608E-02  0.3419649E+00
         11   -1    0    0    0    0  0.00000000000E+00  0.00000000000E+00  0.39999999674E+01  0.40000000000E+01  0.51100000000E-03 0. -1.
    9000002   -1    0    0    0    0 -0.00000000000E+00 -0.00000000000E+00  0.00000000000E+00  0.93800000000E+00  0.93800000000E+00 0.  1.
         11    1    1    2    0    0 -0.38888806983E-01  0.15489828823E+00  0.49922305229E+00  0.52414667419E+00  0.51100000000E-03 0. -1.
    9000002    1    1    2    0    0 -0.21228168074E+00  0.22489389429E+00  0.11128720026E+00  0.99391630262E+00  0.93800000000E+00 0.  1.
         22    1    1    2    0    0  0.25117048772E+00 -0.37979218252E+00  0.33894897148E+01  0.34199370232E+01  0.00000000000E+00 0. -1.
</event>
<event>
 5    1  0.3005426E+001  0.1483593E+01  0.7818608E-02  0.3490283E+00
         11   -1    0    0    0    0  0.00000000000E+00  0.00000000000E+00  0.39999999674E+01  0.40000000000E+01  0.51100000000E-03 0.  1.
    9000002   -1    0    0    0    0 -0.00000000000E+00 -0.00000000000E+00  0.00000000000E+00  0.93800000000E+00  0.93800000000E+00 0.  1.
         11    1    1    2    0    0  0.18733341620E+00 -0.17766702192E+00  0.44068149377E+00  0.51074437792E+00  0.51100000000E-03 0.  1.
    9000002    1    1    2    0    0 -0.31323828147E+00 -0.40443618372E+00  0.29409439907E+00  0.11081617045E+01  0.93800000000E+00 0.  1.
         22    1    1    2    0    0  0.12590486527E+00  0.58210320564E+00  0.32652240745E+01  0.33190939176E+01  0.00000000000E+00 0.  1.
</event>
<event>
 5    1  0.3005426E+001  0.1599526E+01  0.7818608E-02  0.3353878E+00
         11   -1    0    0    0    0  0.00000000000E+00  0.00000000000E+00  0.39999999674E+01  0.40000000000E+01  0.51100000000E-03 0.  1.
    9000002   -1    0    0    0    0 -0.00000000000E+00 -0.00000000000E+00  0.00000000000E+00  0.93800000000E+00  0.93800000000E+00 0.  1.
         11    1    1    2    0    0  0.81220533204E-01  0.45075525256E-01  0.84140816134E+00  0.84652024966E+00  0.51100000000E-03 0.  1.
    9000002    1    1    2    0    0 -0.36897780682E+00 -0.15255053642E+00  0.10764496046E+00  0.10251086409E+01  0.93800000000E+00 0.  1.
         22    1    1    2    0    0  0.28775727361E+00  0.10747501116E+00  0.30509468456E+01  0.30663711095E+01  0.00000000000E+00 0.  1.
</event>
<event>
 5    1  0.3005426E+001  0.1599670E+01  0.7818608E-02  0.3353722E+00
         11   -1    0    0    0    0  0.00000000000E+00  0.00000000000E+00  0.39999999674E+01  0.40000000000E+01  0.51100000000E-03 0.  1.
    9000002   -1    0    0    0    0 -0.00000000000E+00 -0.00000000000E+00  0.00000000000E+00  0.93800000000E+00  0.93800000000E+00 0.  1.
         11    1    1    2    0    0 -0.73025598770E-01 -0.18413220156E-01  0.76033184303E+00  0.76405271899E+00  0.51100000000E-03 0.  1.
    9000002    1    1    2    0    0  0.37074632116E+00  0.10665118752E+00  0.10021341888E+00  0.10191732138E+01  0.93800000000E+00 0.  1.
         22    1    1    2    0    0 -0.29772072239E+00 -0.88237967365E-01  0.31394547055E+01  0.31547740672E+01  0.00000000000E+00 0.  1.
</event>
<event>
 5    1  0.3005426E+001  0.1550747E+01  0.7818608E-02  0.3408620E+00
         11   -1    0    0    0    0  0.00000000000E+00  0.00000000000E+00  0.39999999674E+01  0.40000000000E+01  0.51100000000E-03 0.  1.
    9000002   -1    0    0    0    0 -0.00000000000E+00 -0.00000000000E+00  0.00000000000E+00  0.93800000000E+00  0.93800000000E+00 0. -1.
         11    1    1    2    0    0  0.16249042433E+00 -0.72129873784E-01  0.67362159595E+00  0.69668656679E+00  0.51100000000E-03 0.  1.
    9000002    1    1    2    0    0  0.20108465631E+00  0.17529639724E+00  0.86011761412E-01  0.97898206776E+00  0.93800000000E+00 0. -1.
         22    1    1    2    0    0 -0.36357508065E+00 -0.10316652346E+00  0.32403666100E+01  0.32623313655E+01  0.00000000000E+00 0.  1.
</event>
<event>
 5    1  0.3005426E+001  0.1599677E+01  0.7818608E-02  0.3353714E+00
         11   -1    0    0    0    0  0.00000000000E+00  0.00000000000E+00  0.39999999674E+01  0.40000000000E+01  0.51100000000E-03 0. -1.
    9000002   -1    0    0    0    0 -0.00000000000E+00 -0.00000000000E+00  0.00000000000E+00  0.93800000000E+00  0.93800000000E+00 0.  1.
         11    1    1    2    0    0 -0.72719696842E-02 -0.10182589029E+00  0.73009770909E+00  0.73720032516E+00  0.51100000000E-03 0. -1.
    9000002    1    1    2    0    0  0.40322048365E-01  0.53069502752E+00  0.19500518997E+00  0.10959626380E+01  0.93800000000E+00 0. -1.
         22    1    1    2    0    0 -0.33050078681E-01 -0.42886913723E+00  0.30748970683E+01  0.31048370368E+01  0.00000000000E+00 0. -1.
</event>
<event>
 5    1  0.3005426E+001  0.1599644E+01  0.7818608E-02  0.3353750E+00
         11   -1    0    0    0    0  0.00000000000E+00  0.00000000000E+00  0.39999999674E+01  0.40000000000E+01  0.51100000000E-03 0. -1.
    9000002   -1    0    0    0    0 -0.00000000000E+00 -0.00000000000E+00  0.00000000000E+00  0.93800000000E+00  0.93800000000E+00 0.  1.
         11    1    1    2    0    0 -0.16354341954E+00  0.67231017342E-01  0.12045711953E+01  0.12174803840E+01  0.51100000000E-03 0. -1.
    9000002    1    1    2    0    0  0.49733541935E+00 -0.20360628476E+00  0.19903461007E+00  0.10992073574E+01  0.93800000000E+00 0.  1.
         22    1    1    2    0    0 -0.33379199981E+00  0.13637526742E+00  0.25963941620E+01  0.26213122586E+01  0.00000000000E+00 0. -1.
</event>
<event>
 5    1  0.3005426E+001  0.1599676E+01  0.7818608E-02  0.3353715E+00
         11   -1    0    0    0    0  0.00000000000E+00  0.00000000000E+00  0.39999999674E+01  0.40000000000E+01  0.51100000000E-03 0.  1.
    9000002   -1    0    0    0    0 -0.00000000000E+00 -0.00000000000E+00  0.00000000000E+00  0.93800000000E+00  0.93800000000E+00 0. -1.
         11    1    1    2    0    0  0.31815699887E-01 -0.83713970419E-01  0.74290293205E+00  0.74828156143E+00  0.51100000000E-03 0.  1.
    9000002    1    1    2    0    0 -0.16081265653E+00  0.43321094013E+00  0.14529180876E+00  0.10556922557E+01  0.93800000000E+00 0. -1.
         22    1    1    2    0    0  0.12899695665E+00 -0.34949696971E+00  0.31118052265E+01  0.31340261828E+01  0.00000000000E+00 0.  1.
</event>
<event>
 5    1  0.3005426E+001  0.1599508E+01  0.7818608E-02  0.3353898E+00
         11   -1    0    0    0    0  0.00000000000E+00  0.00000000000E+00  0.39999999674E+01  0.40000000000E+01  0.51100000000E-03 0.  1.
    9000002   -1    0    0    0    0 -0.00000000000E+00 -0.00000000000E+00  0.00000000000E+00  0.93800000000E+00  0.93800000000E+00 0.  1.
         11    1    1    2    0    0 -0.63612873480E-02 -0.19019142568E-01  0.12985717894E+00  0.13139764763E+00  0.51100000000E-03 0.  1.
    9000002    1    1    2    0    0  0.49662264032E-01  0.46955369711E+00  0.15208163966E+00  0.10610936999E+01  0.93800000000E+00 0.  1.
         22    1    1    2    0    0 -0.43300976684E-01 -0.45053455454E+00  0.37180611488E+01  0.37455086524E+01  0.00000000000E+00 0.  1.
</event>
<event>
 5    1  0.3005426E+001  0.1597838E+01  0.7818608E-02  0.3355713E+00
         11   -1    0    0    0    0  0.00000000000E+00  0.00000000000E+00  0.39999999674E+01  0.40000000000E+01  0.51100000000E-03 0. -1.
    9000002   -1    0    0    0    0 -0.00000000000E+00 -0.00000000000E+00  0.00000000000E+00  0.93800000000E+00  0.93800000000E+00 0. -1.
         11    1    1    2    0    0 -0.80699098551E-02  0.51996053865E-01  0.11092877417E+01  0.11105351269E+01  0.51100000000E-03 0. -1.
    9000002    1    1    2    0    0  0.44437073218E-02 -0.34654600922E+00  0.81986383153E-01  0.10033342664E+01  0.93800000000E+00 0. -1.
         22    1    1    2    0    0  0.36262025333E-02  0.29454995536E+00  0.28087258425E+01  0.28241306067E+01  0.00000000000E+00 0. -1.
</event>
<event>
 5    1  0.3005426E+001  0.1599518E+01  0.7818608E-02  0.3353887E+00
         11   -1    0    0    0    0  0.00000000000E+00  0.00000000000E+00  0.39999999674E+01  0.40000000000E+01  0.51100000000E-03 0. -1.
    9000002   -1    0    0    0    0 -0.00000000000E+00 -0.00000000000E+00  0.00000000000E+00  0.93800000000E+00  0.93800000000E+00 0.  1.
         11    1    1    2    0    0 -0.45123571273E-01  0.98074292135E-01  0.11584032206E+01  0.11634229610E+01  0.51100000000E-03 0. -1.
    9000002    1    1    2    0    0  0.10689703292E+00 -0.34223179190E+00  0.86405060223E-01  0.10078985115E+01  0.93800000000E+00 0.  1.
         22    1    1    2    0    0 -0.61773461648E-01  0.24415749977E+00  0.27551916865E+01  0.27666785275E+01  0.00000000000E+00 0. -1.
</event>
<event>
 5    1  0.3005426E+001  0.1599671E+01  0.7818608E-02  0.3353720E+00
         11   -1    0    0    0    0  0.00000000000E+00  0.00000000000E+00  0.39999999674E+01  0.40000000000E+01  0.51100000000E-03 0. -1.
    9000002   -1    0    0    0    0 -0.00000000000E+00 -0.00000000000E+00  0.00000000000E+00  0.93800000000E+00  0.93800000000E+00 0. -1.
         11    1    1    2    0    0 -0.14384582489E+00  0.10710541295E+00  0.13077304316E+01  0.13199705806E+01  0.51100000000E-03 0. -1.
    9000002    1    1    2    0    0  0.41302028045E+00 -0.31707514663E+00  0.18626677680E+00  0.10888809452E+01  0.93800000000E+00 0. -1.
         22    1    1    2    0    0 -0.26917445557E+00  0.20996973368E+00  0.25060027590E+01  0.25291484742E+01  0.00000000000E+00 0. -1.
</event>
<event>
 5    1  0.3005426E+001  0.1599613E+01  0.7818608E-02  0.3353784E+00
         11   -1    0    0    0    0  0.00000000000E+00  0.00000000000E+00  0.39999999674E+01  0.40000000000E+01  0.51100000000E-03 0. -1.
    9000002   -1    0    0    0    0 -0.00000000000E+00 -0.00000000000E+00  0.00000000000E+00  0.93800000000E+00  0.93800000000E+00 0.  1.
         11    1    1    2    0    0 -0.12558760564E+00 -0.30607691705E-01  0.12521597794E+01  0.12588143039E+01  0.51100000000E-03 0. -1.
    9000002    1    1    2    0    0  0.36925641877E+00  0.78239859975E-01  0.95883935104E-01  0.10156325652E+01  0.93800000000E+00 0.  1.
         22    1    1    2    0    0 -0.24366881313E+00 -0.47632168271E-01  0.26519562529E+01  0.26635531309E+01  0.00000000000E+00 0. -1.
</event>
<event>
 5    1  0.3005426E+001  0.1599676E+01  0.7818608E-02  0.3353715E+00
         11   -1    0    0    0    0  0.00000000000E+00  0.00000000000E+00  0.39999999674E+01  0.40000000000E+01  0.51100000000E-03 0.  1.
    9000002   -1    0    0    0    0 -0.00000000000E+00 -0.00000000000E+00  0.00000000000E+00  0.93800000000E+00  0.93800000000E+00 0. -1.
         11    1    1    2    0    0 -0.30813645830E-01  0.32295519954E-01  0.35532439119E+00  0.35811753025E+00  0.51100000000E-03 0.  1.
    9000002    1    1    2    0    0  0.33511052840E+00 -0.34483580524E+00  0.15778136324E+00  0.10658094377E+01  0.93800000000E+00 0. -1.
         22    1    1    2    0    0 -0.30429688257E+00  0.31254028529E+00  0.34868942129E+01  0.35140730321E+01  0.00000000000E+00 0.  1.
</event>
<event>
 5    1  0.3005426E+001  0.1599664E+01  0.7818608E-02  0.3353728E+00
         11   -1    0    0    0    0  0.00000000000E+00  0.00000000000E+00  0.39999999674E+01  0.40000000000E+01  0.51100000000E-03 0. -1.
    9000002   -1    0    0    0    0 -0.00000000000E+00 -0.00000000000E+00  0.00000000000E+00  0.93800000000E+00  0.93800000000E+00 0.  1.
         11    1    1    2    0    0  0.93103181900E-02  0.19400244484E+00  0.94536692910E+00  0.96511269932E+00  0.51100000000E-03 0. -1.
    9000002    1    1    2    0    0 -0.48463972606E-01 -0.74462679883E+00  0.40321055156E+00  0.12646108394E+01  0.93800000000E+00 0.  1.
         22    1    1    2    0    0  0.39153654416E-01  0.55062435399E+00  0.26514224867E+01  0.27082764613E+01  0.00000000000E+00 0. -1.
</event>
<event>
 5    1  0.3005426E+001  0.1599677E+01  0.7818608E-02  0.3353714E+00
         11   -1    0    0    0    0  0.00000000000E+00  0.00000000000E+00  0.39999999674E+01  0.40000000000E+01  0.51100000000E-03 0. -1.
    9000002   -1    0    0    0    0 -0.00000000000E+00 -0.00000000000E+00  0.00000000000E+00  0.93800000000E+00  0.93800000000E+00 0.  1.
         11    1    1    2    0    0  0.14067047450E+00 -0.78663941717E-01  0.14861213444E+01  0.14948354791E+01  0.51100000000E-03 0. -1.
    9000002    1    1    2    0    0 -0.36680897189E+00  0.20634604018E+00  0.11980631654E+00  0.10350483388E+01  0.93800000000E+00 0.  1.
         22    1    1    2    0    0  0.22613849739E+00 -0.12768209846E+00  0.23940723064E+01  0.24081161821E+01  0.00000000000E+00 0. -1.
</event>
<event>
 5    1  0.3005426E+001  0.1599676E+01  0.7818608E-02  0.3353715E+00
         11   -1    0    0    0    0  0.00000000000E+00  0.00000000000E+00  0.39999999674E+01  0.40000000000E+01  0.51100000000E-03 0.  1.
    9000002   -1    0    0    0    0 -0.00000000000E+00 -0.00000000000E+00  0.00000000000E+00  0.93800000000E+00  0.93800000000E+00 0. -1.
         11    1    1    2    0    0 -0.10936421627E+00 -0.39800610642E-02  0.10357036661E+01  0.10414694992E+01  0.51100000000E-03 0.  1.
    9000002    1    1    2    0    0  0.40968202950E+00  0.11510942510E-01  0.11344636212E+00  0.10298960842E+01  0.93800000000E+00 0. -1.
         22    1    1    2    0    0 -0.30031781322E+00 -0.75308814459E-02  0.28508499392E+01  0.28666344167E+01  0.00000000000E+00 0.  1.
</event>
<event>
 5    1  0.3005426E+001  0.1599677E+01  0.7818608E-02  0.3353714E+00
         11   -1    0    0    0    0  0.00000000000E+00  0.00000000000E+00  0.39999999674E+01  0.40000000000E+01  0.51100000000E-03 0. -1.
    9000002   -1    0    0    0    0 -0.00000000000E+00 -0.00000000000E+00  0.00000000000E+00  0.93800000000E+00  0.93800000000E+00 0. -1.
         11    1    1    2    0    0 -0.18882121705E+00 -0.79429472635E-01  0.14289117687E+01  0.14435205565E+01  0.51100000000E-03 0. -1.
    9000002    1    1    2    0    0  0.50306520858E+00  0.21038147748E+00  0.20518706287E+00  0.11042104423E+01  0.93800000000E+00 0. -1.
         22    1    1    2    0    0 -0.31424399152E+00 -0.13095200484E+00  0.23659011358E+01  0.23902690012E+01  0.00000000000E+00 0.  1.
</event>
<event>
 5    1  0.3005426E+001  0.1599583E+01  0.7818608E-02  0.3353816E+00
         11   -1    0    0    0    0  0.00000000000E+00  0.00000000000E+00  0.39999999674E+01  0.40000000000E+01  0.51100000000E-03 0. -1.
    9000002   -1    0    0    0    0 -0.00000000000E+00 -0.00000000000E+00  0.00000000000E+00  0.93800000000E+00  0.93800000000E+00 0. -1.
         11    1    1    2    0    0 -0.53489276973E-01 -0.20795528924E-01  0.46073193309E+00  0.46429272239E+00  0.51100000000E-03 0. -1.
    9000002    1    1    2    0    0  0.43833653569E+00  0.11169154568E+00  0.13909996739E+00  0.10506220637E+01  0.93800000000E+00 0. -1.
         22    1    1    2    0    0 -0.38484725871E+00 -0.90896016755E-01  0.34001680669E+01  0.34230852139E+01  0.00000000000E+00 0. -1.
</event>
<event>
 5    1  0.3005426E+001  0.1599663E+01  0.7818608E-02  0.3353729E+00
         11   -1    0    0    0    0  0.00000000000E+00  0.00000000000E+00  0.39999999674E+01  0.40000000000E+01  0.51100000000E-03 0. -1.
    9000002   -1    0    0    0    0 -0.00000000000E+00 -0.00000000000E+00  0.00000000000E+00  0.93800000000E+00  0.93800000000E+00 0. -1.
         11    1    1    2    0    0  0.18252406422E-01 -0.54683049109E-01  0.55302929799E+00  0.55602612507E+00  0.51100000000E-03 0. -1.
    9000002    1    1    2    0    0 -0.14884580362E+00  0.37643297597E+00  0.11060497990E+00  0.10275866485E+01  0.93800000000E+00 0. -1.
         22    1    1    2    0    0  0.13059339720E+00 -0.32174992686E+00  0.33363656895E+01  0.33543872264E+01  0.00000000000E+00 0. -1.
</event>
<event>
 5    1  0.3005426E+001  0.1599606E+01  0.7818608E-02  0.3353791E+00
         11   -1    0    0    0    0  0.00000000000E+00  0.00000000000E+00  0.39999999674E+01  0.40000000000E+01  0.51100000000E-03 0. -1.
    9000002   -1    0    0    0    0 -0.00000000000E+00 -0.00000000000E+00  0.00000000000E+00  0.93800000000E+00  0.93800000000E+00 0.  1.
         11    1    1    2    0    0 -0.18761046803E-02  0.95095869137E-01  0.11371718501E+01  0.11411427701E+01  0.51100000000E-03 0. -1.
    9000002    1    1    2    0    0  0.10505681310E-01 -0.35875403771E+00  0.86515080112E-01  0.10080395270E+01  0.93800000000E+00 0.  1.
         22    1    1    2    0    0 -0.86295766300E-02  0.26365816857E+00  0.27763130372E+01  0.27888177028E+01  0.00000000000E+00 0.  1.
</event>
<event>
 5    1  0.3005426E+001  0.1599677E+01  0.7818608E-02  0.3353714E+00
         11   -1    0    0    0    0  0.00000000000E+00  0.00000000000E+00  0.39999999674E+01  0.40000000000E+01  0.51100000000E-03 0.  1.
    9000002   -1    0    0    0    0 -0.00000000000E+00 -0.00000000000E+00  0.00000000000E+00  0.93800000000E+00  0.93800000000E+00 0. -1.
         11    1    1    2    0    0 -0.60412641581E-01  0.16937391859E+00  0.11491491780E+01  0.11631342597E+01  0.51100000000E-03 0. -1.
    9000002    1    1    2    0    0  0.19675950385E+00 -0.55450641521E+00  0.24094657303E+00  0.11331773550E+01  0.93800000000E+00 0. -1.
         22    1    1    2    0    0 -0.13634686227E+00  0.38513249662E+00  0.26099042163E+01  0.26416883853E+01  0.00000000000E+00 0.  1.
</event>
<event>
 5    1  0.3005426E+001  0.1560551E+01  0.7818608E-02  0.3397325E+00
         11   -1    0    0    0    0  0.00000000000E+00  0.00000000000E+00  0.39999999674E+01  0.40000000000E+01  0.51100000000E-03 0. -1.
    9000002   -1    0    0    0    0 -0.00000000000E+00 -0.00000000000E+00  0.00000000000E+00  0.93800000000E+00  0.93800000000E+00 0.  1.
         11    1    1    2    0    0  0.19665757941E+00 -0.32407518159E-01  0.92742515990E+00  0.94860009441E+00  0.51100000000E-03 0. -1.
    9000002    1    1    2    0    0  0.20858913281E-01  0.21429653238E+00  0.60805522429E-01  0.96431292100E+00  0.93800000000E+00 0.  1.
         22    1    1    2    0    0 -0.21751649269E+00 -0.18188901423E+00  0.30117692850E+01  0.30250869846E+01  0.00000000000E+00 0. -1.
</event>
<event>
 5    1  0.3005426E+001  0.1599487E+01  0.7818608E-02  0.3353920E+00
         11   -1    0    0    0    0  0.00000000000E+00  0.00000000000E+00  0.39999999674E+01  0.40000000000E+01  0.51100000000E-03 0. -1.
    9000002   -1    0    0    0    0 -0.00000000000E+00 -0.00000000000E+00  0.00000000000E+00  0.93800000000E+00  0.93800000000E+00 0.  1.
         11    1    1    2    0    0 -0.54517693597E-01 -0.11838464168E+00  0.14301244783E+01  0.14360513176E+01  0.51100000000E-03 0. -1.
    9000002    1    1    2    0    0  0.11707160886E+00  0.35330071027E+00  0.93274879274E-01  0.10134452904E+01  0.93800000000E+00 0.  1.
         22    1    1    2    0    0 -0.62553915263E-01 -0.23491606859E+00  0.24766006098E+01  0.24885033920E+01  0.00000000000E+00 0. -1.
</event>
<event>
 5    1  0.3005426E+001  0.1599674E+01  0.7818608E-02  0.3353717E+00
         11   -1    0    0    0    0  0.00000000000E+00  0.00000000000E+00  0.39999999674E+01  0.40000000000E+01  0.51100000000E-03 0.  1.
    9000002   -1    0    0    0    0 -0.00000000000E+00 -0.00000000000E+00  0.00000000000E+00  0.93800000000E+00  0.93800000000E+00 0.  1.
         11    1    1    2    0    0 -0.59192059827E-01 -0.13267507208E-01  0.40348406528E+00  0.40801884608E+00  0.51100000000E-03 0.  1.
    9000002    1    1    2    0    0  0.56269662079E+00  0.12895955830E+00  0.23141976385E+00  0.11254586451E+01  0.93800000000E+00 0.  1.
         22    1    1    2    0    0 -0.50350456096E+00 -0.11569205109E+00  0.33650961382E+01  0.34045225088E+01  0.00000000000E+00 0.  1.
</event>
<event>
 5    1  0.3005426E+001  0.1599666E+01  0.7818608E-02  0.3353726E+00
         11   -1    0    0    0    0  0.00000000000E+00  0.00000000000E+00  0.39999999674E+01  0.40000000000E+01  0.51100000000E-03 0. -1.
    9000002   -1    0    0    0    0 -0.00000000000E+00 -0.00000000000E+00  0.00000000000E+00  0.93800000000E+00  0.93800000000E+00 0. -1.
         11    1    1    2    0    0 -0.34922315768E-01  0.15257540856E-01  0.43550655271E+00  0.43717110983E+00  0.51100000000E-03 0. -1.
    9000002    1    1    2    0    0  0.33066930021E+00 -0.15211497632E+00  0.88979401339E-01  0.10100705352E+01  0.93800000000E+00 0. -1.
         22    1    1    2    0    0 -0.29574698444E+00  0.13685743546E+00  0.34755140133E+01  0.34907583550E+01  0.00000000000E+00 0. -1.
</event>
<event>
 5    1  0.3005426E+001  0.1596024E+01  0.7818608E-02  0.3357690E+00
         11   -1    0    0    0    0  0.00000000000E+00  0.00000000000E+00  0.39999999674E+01  0.40000000000E+01  0.51100000000E-03 0.  1.
    9000002   -1    0    0    0    0 -0.00000000000E+00 -0.00000000000E+00  0.00000000000E+00  0.93800000000E+00  0.93800000000E+00 0.  1.
         11    1    1    2    0    0  0.58641146258E-02 -0.12367919366E-02  0.72798864622E-01  0.73046925369E-01  0.51100000000E-03 0.  1.
    9000002    1    1    2    0    0  0.61939199898E+00 -0.38911243304E+00  0.39004598851E+00  0.12518126086E+01  0.93800000000E+00 0.  1.
         22    1    1    2    0    0 -0.62525611360E+00  0.39034922498E+00  0.35371551142E+01  0.36131404660E+01  0.00000000000E+00 0.  1.
</event>
<event>
 5    1  0.3005426E+001  0.1599432E+01  0.7818608E-02  0.3353980E+00
         11   -1    0    0    0    0  0.00000000000E+00  0.00000000000E+00  0.39999999674E+01  0.40000000000E+01  0.51100000000E-03 0. -1.
    9000002   -1    0    0    0    0 -0.00000000000E+00 -0.00000000000E+00  0.00000000000E+00  0.93800000000E+00  0.93800000000E+00 0. -1.
         11    1    1    2    0    0  0.92341896652E-01 -0.90403121867E-01  0.77248500895E+00  0.78321970129E+00  0.51100000000E-03 0. -1.
    9000002    1    1    2    0    0 -0.37944128341E+00  0.42138026565E+00  0.22305584726E+00  0.11185414283E+01  0.93800000000E+00 0. -1.
         22    1    1    2    0    0  0.28709938676E+00 -0.33097714378E+00  0.30044591111E+01  0.30362388704E+01  0.00000000000E+00 0. -1.
</event>
<event>
 5    1  0.3005426E+001  0.1599677E+01  0.7818608E-02  0.3353714E+00
         11   -1    0    0    0    0  0.00000000000E+00  0.00000000000E+00  0.39999999674E+01  0.40000000000E+01  0.51100000000E-03 0.  1.
    9000002   -1    0    0    0    0 -0.00000000000E+00 -0.00000000000E+00  0.00000000000E+00  0.93800000000E+00  0.93800000000E+00 0.  1.
         11    1    1    2    0    0 -0.50903164265E-01  0.22027670130E+00  0.13621723756E+01  0.13808065756E+01  0.51100000000E-03 0.  1.
    9000002    1    1    2    0    0  0.13892461359E+00 -0.60263846990E+00  0.26792813454E+00  0.11550336181E+01  0.93800000000E+00 0.  1.
         22    1    1    2    0    0 -0.88021449325E-01  0.38236176860E+00  0.23698994572E+01  0.24021598063E+01  0.00000000000E+00 0.  1.
</event>
<event>
 5    1  0.3005426E+001  0.1599450E+01  0.7818608E-02  0.3353960E+00
         11   -1    0    0    0    0  0.00000000000E+00  0.00000000000E+00  0.39999999674E+01  0.40000000000E+01  0.51100000000E-03 0. -1.
    9000002   -1    0    0    0    0 -0.00000000000E+00 -0.00000000000E+00  0.00000000000E+00  0.93800000000E+00  0.93800000000E+00 0.  1.
         11    1    1    2    0    0  0.53116157291E-01 -0.87700156337E-01  0.12602368693E+01  0.12644009931E+01  0.51100000000E-03 0. -1.
    9000002    1    1    2    0    0 -0.16240329047E+00  0.32485241595E+00  0.88758565169E-01  0.10097653212E+01  0.93800000000E+00 0.  1.
         22    1    1    2    0    0  0.10928713318E+00 -0.23715225962E+00  0.26510045329E+01  0.26638336857E+01  0.00000000000E+00 0. -1.
</event>
<event>
 5    1  0.3005426E+001  0.1599676E+01  0.7818608E-02  0.3353715E+00
         11   -1    0    0    0    0  0.00000000000E+00  0.00000000000E+00  0.39999999674E+01  0.40000000000E+01  0.51100000000E-03 0.  1.
    9000002   -1    0    0    0    0 -0.00000000000E+00 -0.00000000000E+00  0.00000000000E+00  0.93800000000E+00  0.93800000000E+00 0.  1.
         11    1    1    2    0    0  0.83546003581E-01  0.80123449561E-01  0.90480570814E+00  0.91218053723E+00  0.51100000000E-03 0.  1.
    9000002    1    1    2    0    0 -0.34978407790E+00 -0.34174509846E+00  0.16340759742E+00  0.10703665991E+01  0.93800000000E+00 0.  1.
         22    1    1    2    0    0  0.26623807432E+00  0.26162164889E+00  0.29317866618E+01  0.29554528637E+01  0.00000000000E+00 0.  1.
</event>
<event>
 5    1  0.3005426E+001  0.1569950E+01  0.7818608E-02  0.3386638E+00
         11   -1    0    0    0    0  0.00000000000E+00  0.00000000000E+00  0.39999999674E+01  0.40000000000E+01  0.51100000000E-03 0.  1.
    9000002   -1    0    0    0    0 -0.00000000000E+00 -0.00000000000E+00  0.00000000000E+00  0.93800000000E+00  0.93800000000E+00 0. -1.
         11    1    1    2    0    0 -0.63298923810E-03 -0.11755928372E+00  0.71603159750E+00  0.72561842287E+00  0.51100000000E-03 0.  1.
    9000002    1    1    2    0    0  0.58002429009E-01 -0.23217579076E+00  0.60979301117E-01  0.96996513069E+00  0.93800000000E+00 0. -1.
         22    1    1    2    0    0 -0.57369439771E-01  0.34973507448E+00  0.32229890687E+01  0.32424164464E+01  0.00000000000E+00 0.  1.
</event>
<event>
 5    1  0.3005426E+001  0.1570852E+01  0.7818608E-02  0.3385620E+00
         11   -1    0    0    0    0  0.00000000000E+00  0.00000000000E+00  0.39999999674E+01  0.40000000000E+01  0.51100000000E-03 0. -1.
    9000002   -1    0    0    0    0 -0.00000000000E+00 -0.00000000000E+00  0.00000000000E+00  0.93800000000E+00  0.93800000000E+00 0. -1.
         11    1    1    2    0    0  0.11723791186E+00  0.32221581091E-01  0.68514512315E+00  0.69584988263E+00  0.51100000000E-03 0. -1.
    9000002    1    1    2    0    0  0.21254266656E+00 -0.28323052073E+00  0.10776222296E+00  0.10083901079E+01  0.93800000000E+00 0. -1.
         22    1    1    2    0    0 -0.32978057842E+00  0.25100893964E+00  0.32070926212E+01  0.32337600095E+01  0.00000000000E+00 0. -1.
</event>
<event>
 5    1  0.3005426E+001  0.1599655E+01  0.7818608E-02  0.3353737E+00
         11   -1    0    0    0    0  0.00000000000E+00  0.00000000000E+00  0.39999999674E+01  0.40000000000E+01  0.51100000000E-03 0.  1.
    9000002   -1    0    0    0    0 -0.00000000000E+00 -0.00000000000E+00  0.00000000000E+00  0.93800000000E+00  0.93800000000E+00 0. -1.
         11    1    1    2    0    0 -0.16719909782E-01  0.59998136832E-01  0.60763744031E+00  0.61082145656E+00  0.51100000000E-03 0.  1.
    9000002    1    1    2    0    0  0.82087558119E-01 -0.37891415117E+00  0.10125068892E+00  0.10200049035E+01  0.93800000000E+00 0. -1.
         22    1    1    2    0    0 -0.65367648337E-01  0.31891601434E+00  0.32911118381E+01  0.33071736399E+01  0.00000000000E+00 0.  1.
</event>
<event>
 5    1  0.3005426E+001  0.1594696E+01  0.7818608E-02  0.3359140E+00
         11   -1    0    0    0    0  0.00000000000E+00  0.00000000000E+00  0.39999999674E+01  0.40000000000E+01  0.51100000000E-03 0.  1.
    9000002   -1    0    0    0    0 -0.00000000000E+00 -0.00000000000E+00  0.00000000000E+00  0.93800000000E+00  0.93800000000E+00 0.  1.
         11    1    1    2    0    0  0.72082919688E-01  0.95302995474E-01  0.37075399090E+00  0.38953483945E+00  0.51100000000E-03 0.  1.
    9000002    1    1    2    0    0 -0.42913412167E+00 -0.50954459941E+00  0.31976712650E+00  0.11941050240E+01  0.93800000000E+00 0.  1.
         22    1    1    2    0    0  0.35705120198E+00  0.41424160394E+00  0.33094788500E+01  0.33543601365E+01  0.00000000000E+00 0.  1.
</event>
<event>
 5    1  0.3005426E+001  0.1599638E+01  0.7818608E-02  0.3353756E+00
         11   -1    0    0    0    0  0.00000000000E+00  0.00000000000E+00  0.39999999674E+01  0.40000000000E+01  0.51100000000E-03 0. -1.
    9000002   -1    0    0    0    0 -0.00000000000E+00 -0.00000000000E+00  0.00000000000E+00  0.93800000000E+00  0.93800000000E+00 0. -1.
         11    1    1    2    0    0  0.48740713486E-01  0.10992232630E-01  0.46038599802E+00  0.46308963995E+00  0.51100000000E-03 0. -1.
    9000002    1    1    2    0    0 -0.37682420225E+00 -0.73432582311E-01  0.99248498194E-01  0.10183727647E+01  0.93800000000E+00 0. -1.
         22    1    1    2    0    0  0.32808348876E+00  0.62440349681E-01  0.34403654711E+01  0.34565375953E+01  0.00000000000E+00 0. -1.
</event>
<event>
 5    1  0.3005426E+001  0.1599674E+01  0.7818608E-02  0.3353718E+00
         11   -1    0    0    0    0  0.00000000000E+00  0.00000000000E+00  0.39999999674E+01  0.40000000000E+01  0.51100000000E-03 0.  1.
    9000002   -1    0    0    0    0 -0.00000000000E+00 -0.00000000000E+00  0.00000000000E+00  0.93800000000E+00  0.93800000000E+00 0. -1.
         11    1    1    2    0    0  0.91960704127E-01 -0.94269238519E-01  0.68524345829E+00  0.69778386244E+00  0.51100000000E-03 0.  1.
    9000002    1    1    2    0    0 -0.48358689188E+00  0.50859821450E+00  0.35217257367E+00  0.12232734557E+01  0.93800000000E+00 0. -1.
         22    1    1    2    0    0  0.39162618775E+00 -0.41432897598E+00  0.29625839354E+01  0.30169426819E+01  0.00000000000E+00 0.  1.
</event>
<event>
 5    1  0.3005426E+001  0.1593152E+01  0.7818608E-02  0.3360830E+00
         11   -1    0    0    0    0  0.00000000000E+00  0.00000000000E+00  0.39999999674E+01  0.40000000000E+01  0.51100000000E-03 0.  1.
    9000002   -1    0    0    0    0 -0.00000000000E+00 -0.00000000000E+00  0.00000000000E+00  0.93800000000E+00  0.93800000000E+00 0. -1.
         11    1    1    2    0    0 -0.78434200172E-01  0.10656404742E-01  0.85960638691E+00  0.86324323586E+00  0.51100000000E-03 0.  1.
    9000002    1    1    2    0    0  0.18731969357E+00  0.27623063751E+00  0.79780706670E-01  0.99879977666E+00  0.93800000000E+00 0. -1.
         22    1    1    2    0    0 -0.10888549340E+00 -0.28688704225E+00  0.30606128738E+01  0.30759569875E+01  0.00000000000E+00 0.  1.
</event>
<event>
 5    1  0.3005426E+001  0.1598504E+01  0.7818608E-02  0.3354989E+00
         11   -1    0    0    0    0  0.00000000000E+00  0.00000000000E+00  0.39999999674E+01  0.40000000000E+01  0.51100000000E-03 0. -1.
    9000002   -1    0    0    0    0 -0.00000000000E+00 -0.00000000000E+00  0.00000000000E+00  0.93800000000E+00  0.93800000000E+00 0.  1.
         11    1    1    2    0    0  0.23914991620E+00 -0.22440502611E-01  0.14158895162E+01  0.14361196475E+01  0.51100000000E-03 0. -1.
    9000002    1    1    2    0    0 -0.59962700551E+00  0.16002538105E+00  0.27113532055E+00  0.11569438320E+01  0.93800000000E+00 0.  1.
         22    1    1    2    0    0  0.36047708930E+00 -0.13758487844E+00  0.23129751306E+01  0.23449365205E+01  0.00000000000E+00 0.  1.
</event>
<event>
 5    1  0.3005426E+001  0.1599672E+01  0.7818608E-02  0.3353720E+00
         11   -1    0    0    0    0  0.00000000000E+00  0.00000000000E+00  0.39999999674E+01  0.40000000000E+01  0.51100000000E-03 0. -1.
    9000002   -1    0    0    0    0 -0.00000000000E+00 -0.00000000000E+00  0.00000000000E+00  0.93800000000E+00  0.93800000000E+00 0. -1.
         11    1    1    2    0    0  0.16523544984E-01  0.69178728605E-01  0.68837463520E+00  0.69203946675E+00  0.51100000000E-03 0. -1.
    9000002    1    1    2    0    0 -0.82443231427E-01 -0.38718726471E+00  0.10565326950E+00  0.10235807138E+01  0.93800000000E+00 0. -1.
         22    1    1    2    0    0  0.65919686443E-01  0.31800853610E+00  0.32059720627E+01  0.32223798194E+01  0.00000000000E+00 0. -1.
</event>
<event>
 5    1  0.3005426E+001  0.1599603E+01  0.7818608E-02  0.3353795E+00
         11   -1    0    0    0    0  0.00000000000E+00  0.00000000000E+00  0.39999999674E+01  0.40000000000E+01  0.51100000000E-03 0. -1.
    9000002   -1    0    0    0    0 -0.00000000000E+00 -0.00000000000E+00  0.00000000000E+00  0.93800000000E+00  0.93800000000E+00 0. -1.
         11    1    1    2    0    0  0.75796524783E-03 -0.10105489334E-01  0.64356704938E-01  0.65151684686E-01  0.51100000000E-03 0. -1.
    9000002    1    1    2    0    0 -0.19699534847E+00  0.56853517727E+00  0.25276013507E+00  0.11427034178E+01  0.93800000000E+00 0. -1.
         22    1    1    2    0    0  0.19623738323E+00 -0.55842968793E+00  0.36828831273E+01  0.37301448975E+01  0.00000000000E+00 0. -1.
</event>
<event>
 5    1  0.3005426E+001  0.1599635E+01  0.7818608E-02  0.3353759E+00
         11   -1    0    0    0    0  0.00000000000E+00  0.00000000000E+00  0.39999999674E+01  0.40000000000E+01  0.51100000000E-03 0.  1.
    9000002   -1    0    0    0    0 -0.00000000000E+00 -0.00000000000E+00  0.00000000000E+00  0.93800000000E+00  0.93800000000E+00 0.  1.
         11    1    1    2    0    0  0.37556262617E-02 -0.14498013997E-01  0.15793318569E+00  0.15864252079E+00  0.51100000000E-03 0.  1.
    9000002    1    1    2    0    0 -0.14005381420E+00  0.41275778254E+00  0.12880626855E+00  0.10423143061E+01  0.93800000000E+00 0.  1.
         22    1    1    2    0    0  0.13629818794E+00 -0.39825976854E+00  0.37132605131E+01  0.37370431731E+01  0.00000000000E+00 0.  1.
</event>
<event>
 5    1  0.3005426E+001  0.1599657E+01  0.7818608E-02  0.3353736E+00
         11   -1    0    0    0    0  0.00000000000E+00  0.00000000000E+00  0.39999999674E+01  0.40000000000E+01  0.51100000000E-03 0. -1.
    9000002   -1    0    0    0    0 -0.00000000000E+00 -0.00000000000E+00  0.00000000000E+00  0.93800000000E+00  0.93800000000E+00 0. -1.
         11    1    1    2    0    0  0.70864121403E-01  0.23262414446E+00  0.13479687891E+01  0.13697283796E+01  0.51100000000E-03 0. -1.
    9000002    1    1    2    0    0 -0.18362197992E+00 -0.64560220904E+00  0.31959229257E+00  0.11968719553E+01  0.93800000000E+00 0. -1.
         22    1    1    2    0    0  0.11275785852E+00  0.41297806458E+00  0.23324388856E+01  0.23713996651E+01  0.00000000000E+00 0. -1.
</event>
<event>
 5    1  0.3005426E+001  0.1599535E+01  0.7818608E-02  0.3353868E+00
         11   -1    0    0    0    0  0.00000000000E+00  0.00000000000E+00  0.39999999674E+01  0.40000000000E+01  0.51100000000E-03 0. -1.
    9000002   -1    0    0    0    0 -0.00000000000E+00 -0.00000000000E+00  0.00000000000E+00  0.93800000000E+00  0.93800000000E+00 0.  1.
         11    1    1    2    0    0  0.81885652108E-02 -0.99106721335E-02  0.10941349170E+00  0.11016736045E+00  0.51100000000E-03 0. -1.
    9000002    1    1    2    0    0 -0.12449855733E+00  0.34608908497E+00  0.91003795166E-01  0.10116339438E+01  0.93800000000E+00 0.  1.
         22    1    1    2    0    0  0.11630999212E+00 -0.33617841283E+00  0.37995826805E+01  0.38161986957E+01  0.00000000000E+00 0. -1.
</event>
<event>
 5    1  0.3005426E+001  0.1599069E+01  0.7818608E-02  0.3354375E+00
         11   -1    0    0    0    0  0.00000000000E+00  0.00000000000E+00  0.39999999674E+01  0.40000000000E+01  0.51100000000E-03 0.  1.
    9000002   -1    0    0    0    0 -0.00000000000E+00 -0.00000000000E+00  0.00000000000E+00  0.93800000000E+00  0.93800000000E+00 0. -1.
         11    1    1    2    0    0 -0.13901890201E-01 -0.48597129320E-01  0.86581736512E+00  0.86729171239E+00  0.51100000000E-03 0.  1.
    9000002    1    1    2    0    0  0.11738858309E+00  0.31785870188E+00  0.77377693064E-01  0.10003227185E+01  0.93800000000E+00 0. -1.
         22    1    1    2    0    0 -0.10348669289E+00 -0.26926157256E+00  0.30568049092E+01  0.30703855691E+01  0.00000000000E+00 0.  1.
</event>
<event>
 5    1  0.3005426E+001  0.1599571E+01  0.7818608E-02  0.3353829E+00
         11   -1    0    0    0    0  0.00000000000E+00  0.00000000000E+00  0.39999999674E+01  0.40000000000E+01  0.51100000000E-03 0. -1.
    9000002   -1    0    0    0    0 -0.00000000000E+00 -0.00000000000E+00  0.00000000000E+00  0.93800000000E+00  0.93800000000E+00 0. -1.
         11    1    1    2    0    0 -0.15949567196E+00  0.83918314481E-01  0.12584151723E+01  0.12712553480E+01  0.51100000000E-03 0. -1.
    9000002    1    1    2    0    0  0.45338518257E+00 -0.23689329503E+00  0.17958109834E+00  0.10834066309E+01  0.93800000000E+00 0. -1.
         22    1    1    2    0    0 -0.29388951061E+00  0.15297498055E+00  0.25620036967E+01  0.25833380211E+01  0.00000000000E+00 0. -1.
</event>
<event>
 5    1  0.3005426E+001  0.1599526E+01  0.7818608E-02  0.3353878E+00
         11   -1    0    0    0    0  0.00000000000E+00  0.00000000000E+00  0.39999999674E+01  0.40000000000E+01  0.51100000000E-03 0.  1.
    9000002   -1    0    0    0    0 -0.00000000000E+00 -0.00000000000E+00  0.00000000000E+00  0.93800000000E+00  0.93800000000E+00 0. -1.
         11    1    1    2    0    0  0.10266559205E+00 -0.15143533967E+00  0.10727052554E+01  0.10881956221E+01  0.51100000000E-03 0.  1.
    9000002    1    1    2    0    0 -0.35037918792E+00  0.48315228404E+00  0.24850332653E+00  0.11392100808E+01  0.93800000000E+00 0. -1.
         22    1    1    2    0    0  0.24771359587E+00 -0.33171694437E+00  0.26787913854E+01  0.27105942971E+01  0.00000000000E+00 0.  1.
</event>
<event>
 5    1  0.3005426E+001  0.1599609E+01  0.7818608E-02  0.3353788E+00
         11   -1    0    0    0    0  0.00000000000E+00  0.00000000000E+00  0.39999999674E+01  0.40000000000E+01  0.51100000000E-03 0.  1.
    9000002   -1    0    0    0    0 -0.00000000000E+00 -0.00000000000E+00  0.00000000000E+00  0.93800000000E+00  0.93800000000E+00 0.  1.
         11    1    1    2    0    0 -0.12631517345E+00 -0.53818479862E-01  0.68541484548E+00  0.69903199021E+00  0.51100000000E-03 0.  1.
    9000002    1    1    2    0    0  0.67048207975E+00  0.24406353540E+00  0.36527500073E+00  0.12338488784E+01  0.93800000000E+00 0.  1.
         22    1    1    2    0    0 -0.54416690630E+00 -0.19024505554E+00  0.29493101212E+01  0.30051191314E+01  0.00000000000E+00 0.  1.
</event>
<event>
 5    1  0.3005426E+001  0.1501058E+01  0.7818608E-02  0.3468289E+00
         11   -1    0    0    0    0  0.00000000000E+00  0.00000000000E+00  0.39999999674E+01  0.40000000000E+01  0.51100000000E-03 0.  1.
    9000002   -1    0    0    0    0 -0.00000000000E+00 -0.00000000000E+00  0.00000000000E+00  0.93800000000E+00  0.93800000000E+00 0.  1.
         11    1    1    2    0    0  0.22384609054E+00  0.27307531972E+00  0.96943187059E+00  0.10317342755E+01  0.51100000000E-03 0.  1.
    9000002    1    1    2    0    0 -0.73339394116E+00  0.23752791998E+00  0.56839510525E+00  0.13405980685E+01  0.93800000000E+00 0.  1.
         22    1    1    2    0    0  0.50954785062E+00 -0.51060323970E+00  0.24621729915E+01  0.25656676559E+01  0.00000000000E+00 0.  1.
</event>
<event>
 5    1  0.3005426E+001  0.1554925E+01  0.7818608E-02  0.3403788E+00
         11   -1    0    0    0    0  0.00000000000E+00  0.00000000000E+00  0.39999999674E+01  0.40000000000E+01  0.51100000000E-03 0.  1.
    9000002   -1    0    0    0    0 -0.00000000000E+00 -0.00000000000E+00  0.00000000000E+00  0.93800000000E+00  0.93800000000E+00 0.  1.
         11    1    1    2    0    0 -0.19169180604E+00 -0.12153993539E+00  0.40489194957E+00  0.46417179615E+00  0.51100000000E-03 0.  1.
    9000002    1    1    2    0    0  0.66814732806E+00  0.18375507867E-01  0.36659309334E+00  0.12087154369E+01  0.93800000000E+00 0.  1.
         22    1    1    2    0    0 -0.47645552202E+00  0.10316442753E+00  0.32285149244E+01  0.32651127670E+01  0.00000000000E+00 0.  1.
</event>
<event>
 5    1  0.3005426E+001  0.1599677E+01  0.7818608E-02  0.3353714E+00
         11   -1    0    0    0    0  0.00000000000E+00  0.00000000000E+00  0.39999999674E+01  0.40000000000E+01  0.51100000000E-03 0. -1.
    9000002   -1    0    0    0    0 -0.00000000000E+00 -0.00000000000E+00  0.00000000000E+00  0.93800000000E+00  0.93800000000E+00 0. -1.
         11    1    1    2    0    0 -0.12237969123E+00  0.93935617023E-01  0.96114871605E+00  0.97345149055E+00  0.51100000000E-03 0. -1.
    9000002    1    1    2    0    0  0.47785900812E+00 -0.36683426012E+00  0.25333824051E+00  0.11432151460E+01  0.93800000000E+00 0. -1.
         22    1    1    2    0    0 -0.35547931688E+00  0.27289864310E+00  0.27855130108E+01  0.28213333634E+01  0.00000000000E+00 0. -1.
</event>
<event>
 5    1  0.3005426E+001  0.1597073E+01  0.7818608E-02  0.3356546E+00
         11   -1    0    0    0    0  0.00000000000E+00  0.00000000000E+00  0.39999999674E+01  0.40000000000E+01  0.51100000000E-03 0. -1.
    9000002   -1    0    0    0    0 -0.00000000000E+00 -0.00000000000E+00  0.00000000000E+00  0.93800000000E+00  0.93800000000E+00 0. -1.
         11    1    1    2    0    0 -0.57248057273E-01 -0.86776823091E-01  0.66076197932E+00  0.66889028362E+00  0.51100000000E-03 0. -1.
    9000002    1    1    2    0    0  0.76259980333E-01  0.42714292736E+00  0.12979483080E+00  0.10416128662E+01  0.93800000000E+00 0. -1.
         22    1    1    2    0    0 -0.19011923060E-01 -0.34036610427E+00  0.32094431572E+01  0.32274968501E+01  0.00000000000E+00 0. -1.
</event>
<event>
 5    1  0.3005426E+001  0.1599669E+01  0.7818608E-02  0.3353723E+00
         11   -1    0    0    0    0  0.00000000000E+00  0.00000000000E+00  0.39999999674E+01  0.40000000000E+01  0.51100000000E-03 0.  1.
    9000002   -1    0    0    0    0 -0.00000000000E+00 -0.00000000000E+00  0.00000000000E+00  0.93800000000E+00  0.93800000000E+00 0. -1.
         11    1    1    2    0    0  0.12791052674E-01 -0.23129945583E-02  0.11551531675E+00  0.11624547517E+00  0.51100000000E-03 0. -1.
    9000002    1    1    2    0    0 -0.44933253188E+00  0.10481009574E+00  0.14484200318E+00  0.10553236879E+01  0.93800000000E+00 0. -1.
         22    1    1    2    0    0  0.43654147921E+00 -0.10249710118E+00  0.37396426474E+01  0.37664308369E+01  0.00000000000E+00 0.  1.
</event>
<event>
 5    1  0.3005426E+001  0.1599563E+01  0.7818608E-02  0.3353838E+00
         11   -1    0    0    0    0  0.00000000000E+00  0.00000000000E+00  0.39999999674E+01  0.40000000000E+01  0.51100000000E-03 0. -1.
    9000002   -1    0    0    0    0 -0.00000000000E+00 -0.00000000000E+00  0.00000000000E+00  0.93800000000E+00  0.93800000000E+00 0. -1.
         11    1    1    2    0    0 -0.81046667287E-01 -0.11673510721E-01  0.96895249035E+00  0.97240630541E+00  0.51100000000E-03 0. -1.
    9000002    1    1    2    0    0  0.37127855399E+00  0.41235192681E-01  0.93914484008E-01  0.10140079073E+01  0.93800000000E+00 0. -1.
         22    1    1    2    0    0 -0.29023188671E+00 -0.29561681960E-01  0.29371329930E+01  0.29515857873E+01  0.00000000000E+00 0. -1.
</event>
<event>
 5    1  0.3992729E+001  0.1533712E+01  0.7818608E-02  0.3428610E+00
         11   -1    0    0    0    0  0.00000000000E+00  0.00000000000E+00  0.39999999674E+01  0.40000000000E+01  0.51100000000E-03 0.  1.
    9000002   -1    0    0    0    0 -0.00000000000E+00 -0.00000000000E+00  0.00000000000E+00  0.93800000000E+00  0.93800000000E+00 0. -1.
         11    1    1    2    0    0  0.15943284990E+00  0.21962911051E+00  0.10896072081E+01  0.11228979958E+01  0.51100000000E-03 0.  1.
    9000002    1    1    2    0    0 -0.92446253180E-01  0.83304912335E-01  0.60263208877E-01  0.94813589347E+00  0.93800000000E+00 0. -1.
         22    1    1    2    0    0 -0.66986596722E-01 -0.30293402285E+00  0.28501295504E+01  0.28669661108E+01  0.00000000000E+00 0.  1.
</event>
<event>
 5    1  0.3005426E+001  0.1599244E+01  0.7818608E-02  0.3354185E+00
         11   -1    0    0    0    0  0.00000000000E+00  0.00000000000E+00  0.39999999674E+01  0.40000000000E+01  0.51100000000E-03 0. -1.
    9000002   -1    0    0    0    0 -0.00000000000E+00 -0.00000000000E+00  0.00000000000E+00  0.93800000000E+00  0.93800000000E+00 0.  1.
         11    1    1    2    0    0 -0.10437566551E-01  0.58049350451E-01  0.85665009373E+00  0.85867823665E+00  0.51100000000E-03 0. -1.
    9000002    1    1    2    0    0  0.12885530821E+00 -0.31512072053E+00  0.77981597612E-01  0.10009145261E+01  0.93800000000E+00 0.  1.
         22    1    1    2    0    0 -0.11841774166E+00  0.25707137007E+00  0.30653682760E+01  0.30784072373E+01  0.00000000000E+00 0. -1.
</event>
<event>
 5    1  0.3005426E+001  0.1598570E+01  0.7818608E-02  0.3354917E+00
         11   -1    0    0    0    0  0.00000000000E+00  0.00000000000E+00  0.39999999674E+01  0.40000000000E+01  0.51100000000E-03 0.  1.
    9000002   -1    0    0    0    0 -0.00000000000E+00 -0.00000000000E+00  0.00000000000E+00  0.93800000000E+00  0.93800000000E+00 0. -1.
         11    1    1    2    0    0  0.78108246967E-01  0.16151364583E-03  0.80464993789E+00  0.80843225319E+00  0.51100000000E-03 0.  1.
    9000002    1    1    2    0    0 -0.41066091820E+00 -0.15317644740E+00  0.13120118392E+00  0.10436298024E+01  0.93800000000E+00 0. -1.
         22    1    1    2    0    0  0.33255267124E+00  0.15301493376E+00  0.30641488456E+01  0.30859379444E+01  0.00000000000E+00 0.  1.
</event>
<event>
 5    1  0.3005426E+001  0.1599584E+01  0.7818608E-02  0.3353815E+00
         11   -1    0    0    0    0  0.00000000000E+00  0.00000000000E+00  0.39999999674E+01  0.40000000000E+01  0.51100000000E-03 0. -1.
    9000002   -1    0    0    0    0 -0.00000000000E+00 -0.00000000000E+00  0.00000000000E+00  0.93800000000E+00  0.93800000000E+00 0. -1.
         11    1    1    2    0    0  0.96986993476E-01  0.10100459621E+00  0.10392271751E+01  0.10486189908E+01  0.51100000000E-03 0. -1.
    9000002    1    1    2    0    0 -0.33342771812E+00 -0.34451591856E+00  0.15690977585E+00  0.10650492660E+01  0.93800000000E+00 0. -1.
         22    1    1    2    0    0  0.23644072464E+00  0.24351132236E+00  0.28038630164E+01  0.28243317431E+01  0.00000000000E+00 0. -1.
</event>
<event>
 5    1  0.3005426E+001  0.1592768E+01  0.7818608E-02  0.3361250E+00
         11   -1    0    0    0    0  0.00000000000E+00  0.00000000000E+00  0.39999999674E+01  0.40000000000E+01  0.51100000000E-03 0.  1.
    9000002   -1    0    0    0    0 -0.00000000000E+00 -0.00000000000E+00  0.00000000000E+00  0.93800000000E+00  0.93800000000E+00 0. -1.
         11    1    1    2    0    0  0.10476403872E+00 -0.36682497639E-01  0.35869117180E+00  0.37547400348E+00  0.51100000000E-03 0.  1.
    9000002    1    1    2    0    0 -0.69008159815E+00 -0.11349571612E+00  0.35725909828E+00  0.12233445766E+01  0.93800000000E+00 0. -1.
         22    1    1    2    0    0  0.58531755943E+00  0.15017821376E+00  0.32840496973E+01  0.33391814200E+01  0.00000000000E+00 0.  1.
</event>
<event>
 5    1  0.3005426E+001  0.1599235E+01  0.7818608E-02  0.3354194E+00
         11   -1    0    0    0    0  0.00000000000E+00  0.00000000000E+00  0.39999999674E+01  0.40000000000E+01  0.51100000000E-03 0. -1.
    9000002   -1    0    0    0    0 -0.00000000000E+00 -0.00000000000E+00  0.00000000000E+00  0.93800000000E+00  0.93800000000E+00 0.  1.
         11    1    1    2    0    0  0.51703341467E-01  0.10817384253E+00  0.11497110002E+01  0.11559456998E+01  0.51100000000E-03 0. -1.
    9000002    1    1    2    0    0 -0.23678354200E+00 -0.31831269214E+00  0.10648504045E+00  0.10239982810E+01  0.93800000000E+00 0.  1.
         22    1    1    2    0    0  0.18508020053E+00  0.21013884960E+00  0.27438039267E+01  0.27580560191E+01  0.00000000000E+00 0. -1.
</event>
<event>
 5    1  0.3005426E+001  0.1541362E+01  0.7818608E-02  0.3419574E+00
         11   -1    0    0    0    0  0.00000000000E+00  0.00000000000E+00  0.39999999674E+01  0.40000000000E+01  0.51100000000E-03 0.  1.
    9000002   -1    0    0    0    0 -0.00000000000E+00 -0.00000000000E+00  0.00000000000E+00  0.93800000000E+00  0.93800000000E+00 0. -1.
         11    1    1    2    0    0 -0.20397078115E-01  0.11726846659E+00  0.19092302097E+00  0.22498843328E+00  0.51100000000E-03 0.  1.
    9000002    1    1    2    0    0  0.18908802663E+00  0.23714593758E+00  0.10860641192E+00  0.99178214858E+00  0.93800000000E+00 0. -1.
         22    1    1    2    0    0 -0.16869094851E+00 -0.35441440417E+00  0.37004705345E+01  0.37212294181E+01  0.00000000000E+00 0.  1.
</event>
<event>
 5    1  0.3005426E+001  0.1587210E+01  0.7818608E-02  0.3367363E+00
         11   -1    0    0    0    0  0.00000000000E+00  0.00000000000E+00  0.39999999674E+01  0.40000000000E+01  0.51100000000E-03 0.  1.
    9000002   -1    0    0    0    0 -0.00000000000E+00 -0.00000000000E+00  0.00000000000E+00  0.93800000000E+00  0.93800000000E+00 0.  1.
         11    1    1    2    0    0  0.43835627211E-01 -0.70984098278E-01  0.60253602105E+00  0.60828465557E+00  0.51100000000E-03 0.  1.
    9000002    1    1    2    0    0 -0.37255804081E+00 -0.16307370137E+00  0.12215367913E+00  0.10296397657E+01  0.93800000000E+00 0.  1.
         22    1    1    2    0    0  0.32872241360E+00  0.23405779965E+00  0.32753102672E+01  0.33000755787E+01  0.00000000000E+00 0.  1.
</event>
<event>
 5    1  0.3005426E+001  0.1599677E+01  0.7818608E-02  0.3353714E+00
         11   -1    0    0    0    0  0.00000000000E+00  0.00000000000E+00  0.39999999674E+01  0.40000000000E+01  0.51100000000E-03 0.  1.
    9000002   -1    0    0    0    0 -0.00000000000E+00 -0.00000000000E+00  0.00000000000E+00  0.93800000000E+00  0.93800000000E+00 0. -1.
         11    1    1    2    0    0 -0.97063109629E-01  0.16647031865E-01  0.10520275283E+01  0.10566269694E+01  0.51100000000E-03 0. -1.
    9000002    1    1    2    0    0  0.36043189586E+00 -0.61623155601E-01  0.89811915925E-01  0.10107515744E+01  0.93800000000E+00 0. -1.
         22    1    1    2    0    0 -0.26336878623E+00  0.44976123736E-01  0.28581605231E+01  0.28706214563E+01  0.00000000000E+00 0.  1.
</event>
<event>
 5    1  0.3005426E+001  0.1599670E+01  0.7818608E-02  0.3353721E+00
         11   -1    0    0    0    0  0.00000000000E+00  0.00000000000E+00  0.39999999674E+01  0.40000000000E+01  0.51100000000E-03 0. -1.
    9000002   -1    0    0    0    0 -0.00000000000E+00 -0.00000000000E+00  0.00000000000E+00  0.93800000000E+00  0.93800000000E+00 0.  1.
         11    1    1    2    0    0  0.15500893865E-01  0.73494995664E-01  0.51570163981E+00  0.52114319963E+00  0.51100000000E-03 0. -1.
    9000002    1    1    2    0    0 -0.12895256828E+00 -0.54300735958E+00  0.21548471866E+00  0.11125481659E+01  0.93800000000E+00 0.  1.
         22    1    1    2    0    0  0.11345167442E+00  0.46951236392E+00  0.32688136089E+01  0.33043086345E+01  0.00000000000E+00 0. -1.
</event>
<event>
 5    1  0.3005426E+001  0.1599677E+01  0.7818608E-02  0.3353714E+00
         11   -1    0    0    0    0  0.00000000000E+00  0.00000000000E+00  0.39999999674E+01  0.40000000000E+01  0.51100000000E-03 0. -1.
    9000002   -1    0    0    0    0 -0.00000000000E+00 -0.00000000000E+00  0.00000000000E+00  0.93800000000E+00  0.93800000000E+00 0. -1.
         11    1    1    2    0    0  0.20417724084E+00 -0.72997458340E-03  0.12395367593E+01  0.12562406288E+01  0.51100000000E-03 0.  1.
    9000002    1    1    2    0    0 -0.61495524779E+00  0.26281289306E-02  0.26471348601E+00  0.11524296480E+01  0.93800000000E+00 0. -1.
         22    1    1    2    0    0  0.41077800695E+00 -0.18981543472E-02  0.24957497220E+01  0.25293297232E+01  0.00000000000E+00 0. -1.
</event>
<event>
 5    1  0.3005426E+001  0.1536615E+01  0.7818608E-02  0.3425169E+00
         11   -1    0    0    0    0  0.00000000000E+00  0.00000000000E+00  0.39999999674E+01  0.40000000000E+01  0.51100000000E-03 0. -1.
    9000002   -1    0    0    0    0 -0.00000000000E+00 -0.00000000000E+00  0.00000000000E+00  0.93800000000E+00  0.93800000000E+00 0.  1.
         11    1    1    2    0    0 -0.26995082332E+00  0.33259023440E-01  0.99256929314E+00  0.10291616357E+01  0.51100000000E-03 0. -1.
    9000002    1    1    2    0    0  0.33746548180E-01 -0.28413245664E+00  0.10528162499E+00  0.98630538019E+00  0.93800000000E+00 0.  1.
         22    1    1    2    0    0  0.23620427514E+00  0.25087343320E+00  0.29021490492E+01  0.29225329841E+01  0.00000000000E+00 0. -1.
</event>
<event>
 5    1  0.3005426E+001  0.1599674E+01  0.7818608E-02  0.3353717E+00
         11   -1    0    0    0    0  0.00000000000E+00  0.00000000000E+00  0.39999999674E+01  0.40000000000E+01  0.51100000000E-03 0.  1.
    9000002   -1    0    0    0    0 -0.00000000000E+00 -0.00000000000E+00  0.00000000000E+00  0.93800000000E+00  0.93800000000E+00 0.  1.
         11    1    1    2    0    0 -0.46641350856E-01  0.25804411685E-01  0.55254815693E+00  0.55511351102E+00  0.51100000000E-03 0.  1.
    9000002    1    1    2    0    0  0.32045517451E+00 -0.17902538985E+00  0.90523120010E-01  0.10113258843E+01  0.93800000000E+00 0.  1.
         22    1    1    2    0    0 -0.27381382365E+00  0.15322097816E+00  0.33569286904E+01  0.33715606046E+01  0.00000000000E+00 0.  1.
</event>
<event>
 5    1  0.3005426E+001  0.1465748E+01  0.7818608E-02  0.3513343E+00
         11   -1    0    0    0    0  0.00000000000E+00  0.00000000000E+00  0.39999999674E+01  0.40000000000E+01  0.51100000000E-03 0.  1.
    9000002   -1    0    0    0    0 -0.00000000000E+00 -0.00000000000E+00  0.00000000000E+00  0.93800000000E+00  0.93800000000E+00 0. -1.
         11    1    1    2    0    0  0.26454859038E+00  0.49629449882E+00  0.71219789034E+00  0.90748018290E+00  0.51100000000E-03 0.  1.
    9000002    1    1    2    0    0 -0.24309160984E-01 -0.72353911627E+00  0.61057381941E+00  0.13329456767E+01  0.93800000000E+00 0. -1.
         22    1    1    2    0    0 -0.24023942940E+00  0.22724461744E+00  0.26772282576E+01  0.26975741404E+01  0.00000000000E+00 0.  1.
</event>
<event>
 5    1  0.3005426E+001  0.1598964E+01  0.7818608E-02  0.3354488E+00
         11   -1    0    0    0    0  0.00000000000E+00  0.00000000000E+00  0.39999999674E+01  0.40000000000E+01  0.51100000000E-03 0.  1.
    9000002   -1    0    0    0    0 -0.00000000000E+00 -0.00000000000E+00  0.00000000000E+00  0.93800000000E+00  0.93800000000E+00 0. -1.
         11    1    1    2    0    0 -0.28466116067E-01 -0.10816081706E+00  0.63211429875E+00  0.64193288584E+00  0.51100000000E-03 0.  1.
    9000002    1    1    2    0    0  0.26639486717E-01  0.62085679509E+00  0.27142626170E+00  0.11574493673E+01  0.93800000000E+00 0. -1.
         22    1    1    2    0    0  0.18266293496E-02 -0.51269597804E+00  0.30964594069E+01  0.31386177469E+01  0.00000000000E+00 0.  1.
</event>
<event>
 5    1  0.3005426E+001  0.1589374E+01  0.7818608E-02  0.3364977E+00
         11   -1    0    0    0    0  0.00000000000E+00  0.00000000000E+00  0.39999999674E+01  0.40000000000E+01  0.51100000000E-03 0.  1.
    9000002   -1    0    0    0    0 -0.00000000000E+00 -0.00000000000E+00  0.00000000000E+00  0.93800000000E+00  0.93800000000E+00 0. -1.
         11    1    1    2    0    0  0.33891217153E-02 -0.42461293753E-01  0.50405582564E-01  0.65995692948E-01  0.51100000000E-03 0.  1.
    9000002    1    1    2    0    0 -0.48553892895E+00  0.69677038965E+00  0.55541763173E+00  0.13818718367E+01  0.93800000000E+00 0. -1.
         22    1    1    2    0    0  0.48214980723E+00 -0.65430909590E+00  0.33941767531E+01  0.34901324704E+01  0.00000000000E+00 0.  1.
</event>
<event>
 5    1  0.3005426E+001  0.1598914E+01  0.7818608E-02  0.3354543E+00
         11   -1    0    0    0    0  0.00000000000E+00  0.00000000000E+00  0.39999999674E+01  0.40000000000E+01  0.51100000000E-03 0.  1.
    9000002   -1    0    0    0    0 -0.00000000000E+00 -0.00000000000E+00  0.00000000000E+00  0.93800000000E+00  0.93800000000E+00 0. -1.
         11    1    1    2    0    0 -0.51834661645E-01  0.77415892849E-03  0.60785513134E+00  0.61006192578E+00  0.51100000000E-03 0.  1.
    9000002    1    1    2    0    0  0.38640701735E+00 -0.14923757465E+00  0.11659297217E+00  0.10319981385E+01  0.93800000000E+00 0. -1.
         22    1    1    2    0    0 -0.33457235570E+00  0.14846341572E+00  0.32755518639E+01  0.32959399357E+01  0.00000000000E+00 0.  1.
</event>
<event>
 5    1  0.3005426E+001  0.1599335E+01  0.7818608E-02  0.3354085E+00
         11   -1    0    0    0    0  0.00000000000E+00  0.00000000000E+00  0.39999999674E+01  0.40000000000E+01  0.51100000000E-03 0. -1.
    9000002   -1    0    0    0    0 -0.00000000000E+00 -0.00000000000E+00  0.00000000000E+00  0.93800000000E+00  0.93800000000E+00 0.  1.
         11    1    1    2    0    0  0.20724116251E-01  0.77815342276E-01  0.69897826568E+00  0.70360187144E+00  0.51100000000E-03 0. -1.
    9000002    1    1    2    0    0 -0.16582301035E+00 -0.35284165399E+00  0.10267453710E+00  0.10209704032E+01  0.93800000000E+00 0.  1.
         22    1    1    2    0    0  0.14509889410E+00  0.27502631171E+00  0.31983471646E+01  0.32134277254E+01  0.00000000000E+00 0. -1.
</event>
<event>
 5    1  0.3005426E+001  0.1599677E+01  0.7818608E-02  0.3353714E+00
         11   -1    0    0    0    0  0.00000000000E+00  0.00000000000E+00  0.39999999674E+01  0.40000000000E+01  0.51100000000E-03 0. -1.
    9000002   -1    0    0    0    0 -0.00000000000E+00 -0.00000000000E+00  0.00000000000E+00  0.93800000000E+00  0.93800000000E+00 0.  1.
         11    1    1    2    0    0  0.13703369974E+00  0.59543032881E-01  0.12016166460E+01  0.12108701138E+01  0.51100000000E-03 0. -1.
    9000002    1    1    2    0    0 -0.43792304994E+00 -0.18859042759E+00  0.15504187909E+00  0.10635905844E+01  0.93800000000E+00 0.  1.
         22    1    1    2    0    0  0.30088935020E+00  0.12904739471E+00  0.26433414423E+01  0.26635393017E+01  0.00000000000E+00 0. -1.
</event>
<event>
 5    1  0.3005426E+001  0.1587889E+01  0.7818608E-02  0.3366615E+00
         11   -1    0    0    0    0  0.00000000000E+00  0.00000000000E+00  0.39999999674E+01  0.40000000000E+01  0.51100000000E-03 0. -1.
    9000002   -1    0    0    0    0 -0.00000000000E+00 -0.00000000000E+00  0.00000000000E+00  0.93800000000E+00  0.93800000000E+00 0. -1.
         11    1    1    2    0    0 -0.38826402639E-01  0.25315486182E-01  0.23598577370E+00  0.24049513486E+00  0.51100000000E-03 0. -1.
    9000002    1    1    2    0    0 -0.35218066178E+00 -0.14438245413E+00  0.10723020806E+00  0.10179488342E+01  0.93800000000E+00 0. -1.
         22    1    1    2    0    0  0.39100706441E+00  0.11906696795E+00  0.36567839856E+01  0.36795560309E+01  0.00000000000E+00 0. -1.
</event>
<event>
 5    1  0.3005426E+001  0.1599657E+01  0.7818608E-02  0.3353735E+00
         11   -1    0    0    0    0  0.00000000000E+00  0.00000000000E+00  0.39999999674E+01  0.40000000000E+01  0.51100000000E-03 0.  1.
    9000002   -1    0    0    0    0 -0.00000000000E+00 -0.00000000000E+00  0.00000000000E+00  0.93800000000E+00  0.93800000000E+00 0. -1.
         11    1    1    2    0    0 -0.44116328335E-01  0.27790167852E-01  0.47286267205E+00  0.47572882149E+00  0.51100000000E-03 0.  1.
    9000002    1    1    2    0    0  0.38238384441E+00 -0.20861919497E+00  0.12861640362E+00  0.10421734751E+01  0.93800000000E+00 0. -1.
         22    1    1    2    0    0 -0.33826751608E+00  0.18082902711E+00  0.33985208917E+01  0.34200977034E+01  0.00000000000E+00 0.  1.
</event>
<event>
 5    1  0.3005426E+001  0.1552710E+01  0.7818608E-02  0.3406346E+00
         11   -1    0    0    0    0  0.00000000000E+00  0.00000000000E+00  0.39999999674E+01  0.40000000000E+01  0.51100000000E-03 0.  1.
    9000002   -1    0    0    0    0 -0.00000000000E+00 -0.00000000000E+00  0.00000000000E+00  0.93800000000E+00  0.93800000000E+00 0.  1.
         11    1    1    2    0    0  0.37025915584E-01 -0.38000614786E-01  0.21020408923E-01  0.57070867010E-01  0.51100000000E-03 0.  1.
    9000002    1    1    2    0    0  0.25760139410E+00  0.38388793949E+00  0.18761569246E+00  0.10624368576E+01  0.93800000000E+00 0.  1.
         22    1    1    2    0    0 -0.29462730968E+00 -0.34588732471E+00  0.37913638660E+01  0.38184922754E+01  0.00000000000E+00 0.  1.
</event>
<event>
 5    1  0.3005426E+001  0.1592604E+01  0.7818608E-02  0.3361430E+00
         11   -1    0    0    0    0  0.00000000000E+00  0.00000000000E+00  0.39999999674E+01  0.40000000000E+01  0.51100000000E-03 0.  1.
    9000002   -1    0    0    0    0 -0.00000000000E+00 -0.00000000000E+00  0.00000000000E+00  0.93800000000E+00  0.93800000000E+00 0.  1.
         11    1    1    2    0    0  0.15315494205E+00 -0.10396950660E+00  0.11865258499E+01  0.12008788233E+01  0.51100000000E-03 0.  1.
    9000002    1    1    2    0    0 -0.32792816374E+00  0.57715456064E+00  0.31959730999E+00  0.11927408386E+01  0.93800000000E+00 0.  1.
         22    1    1    2    0    0  0.17477322169E+00 -0.47318505404E+00  0.24938768074E+01  0.25443803381E+01  0.00000000000E+00 0.  1.
</event>
<event>
 5    1  0.3005426E+001  0.1626600E+01  0.7818608E-02  0.3324990E+00
         11   -1    0    0    0    0  0.00000000000E+00  0.00000000000E+00  0.39999999674E+01  0.40000000000E+01  0.51100000000E-03 0. -1.
    9000002   -1    0    0    0    0 -0.00000000000E+00 -0.00000000000E+00  0.00000000000E+00  0.93800000000E+00  0.93800000000E+00 0.  1.
         11    1    1    2    0    0 -0.15859355503E+00 -0.32071063325E+00  0.19058627728E+00  0.40537712835E+00  0.51100000000E-03 0. -1.
    9000002    1    1    2    0    0  0.12276190346E-01 -0.21580337923E+00  0.34297425733E+00  0.10218596501E+01  0.93800000000E+00 0.  1.
         22    1    1    2    0    0  0.14631736468E+00  0.53651401248E+00  0.34664394328E+01  0.35107632215E+01  0.00000000000E+00 0. -1.
</event>
<event>
 5    1  0.3005426E+001  0.1599664E+01  0.7818608E-02  0.3353728E+00
         11   -1    0    0    0    0  0.00000000000E+00  0.00000000000E+00  0.39999999674E+01  0.40000000000E+01  0.51100000000E-03 0. -1.
    9000002   -1    0    0    0    0 -0.00000000000E+00 -0.00000000000E+00  0.00000000000E+00  0.93800000000E+00  0.93800000000E+00 0.  1.
         11    1    1    2    0    0 -0.22988236117E-01 -0.10080213210E+00  0.93535623467E+00  0.94105317368E+00  0.51100000000E-03 0. -1.
    9000002    1    1    2    0    0  0.83476293207E-01  0.40891872475E+00  0.11776908714E+00  0.10333907165E+01  0.93800000000E+00 0.  1.
         22    1    1    2    0    0 -0.60488057091E-01 -0.30811659264E+00  0.29468746456E+01  0.29635561099E+01  0.00000000000E+00 0. -1.
</event>
<event>
 5    1  0.3005426E+001  0.1599677E+01  0.7818608E-02  0.3353714E+00
         11   -1    0    0    0    0  0.00000000000E+00  0.00000000000E+00  0.39999999674E+01  0.40000000000E+01  0.51100000000E-03 0. -1.
    9000002   -1    0    0    0    0 -0.00000000000E+00 -0.00000000000E+00  0.00000000000E+00  0.93800000000E+00  0.93800000000E+00 0.  1.
         11    1    1    2    0    0 -0.13969277874E+00 -0.23544118875E-01  0.70388940422E+00  0.71800344878E+00  0.51100000000E-03 0.  1.
    9000002    1    1    2    0    0  0.71725216236E+00  0.12019577282E+00  0.38086026540E+00  0.12465136301E+01  0.93800000000E+00 0.  1.
         22    1    1    2    0    0 -0.57755938362E+00 -0.96651653947E-01  0.29152502977E+01  0.29734829211E+01  0.00000000000E+00 0. -1.
</event>
<event>
 5    1  0.3005426E+001  0.1599262E+01  0.7818608E-02  0.3354165E+00
         11   -1    0    0    0    0  0.00000000000E+00  0.00000000000E+00  0.39999999674E+01  0.40000000000E+01  0.51100000000E-03 0. -1.
    9000002   -1    0    0    0    0 -0.00000000000E+00 -0.00000000000E+00  0.00000000000E+00  0.93800000000E+00  0.93800000000E+00 0.  1.
         11    1    1    2    0    0  0.12102296028E+00  0.11745943687E+00  0.11495780317E+01  0.11618834659E+01  0.51100000000E-03 0. -1.
    9000002    1    1    2    0    0 -0.37294104497E+00 -0.32271485641E+00  0.16668725406E+00  0.10727807522E+01  0.93800000000E+00 0.  1.
         22    1    1    2    0    0  0.25191808469E+00  0.20525541954E+00  0.26837346816E+01  0.27033357819E+01  0.00000000000E+00 0. -1.
</event>
<event>
 5    1  0.3005426E+001  0.1599677E+01  0.7818608E-02  0.3353714E+00
         11   -1    0    0    0    0  0.00000000000E+00  0.00000000000E+00  0.39999999674E+01  0.40000000000E+01  0.51100000000E-03 0.  1.
    9000002   -1    0    0    0    0 -0.00000000000E+00 -0.00000000000E+00  0.00000000000E+00  0.93800000000E+00  0.93800000000E+00 0.  1.
         11    1    1    2    0    0  0.10583054433E-01  0.94416377070E-01  0.97345872409E+00  0.97808414870E+00  0.51100000000E-03 0. -1.
    9000002    1    1    2    0    0 -0.43231546991E-01 -0.37686559405E+00  0.96811904066E-01  0.10164217567E+01  0.93800000000E+00 0.  1.
         22    1    1    2    0    0  0.32648492558E-01  0.28244921698E+00  0.29297293392E+01  0.29434940946E+01  0.00000000000E+00 0.  1.
</event>
<event>
 5    1  0.3005426E+001  0.1599501E+01  0.7818608E-02  0.3353906E+00
         11   -1    0    0    0    0  0.00000000000E+00  0.00000000000E+00  0.39999999674E+01  0.40000000000E+01  0.51100000000E-03 0.  1.
    9000002   -1    0    0    0    0 -0.00000000000E+00 -0.00000000000E+00  0.00000000000E+00  0.93800000000E+00  0.93800000000E+00 0.  1.
         11    1    1    2    0    0 -0.10854283601E+00  0.91381679144E-01  0.82004965876E+00  0.83223425938E+00  0.51100000000E-03 0.  1.
    9000002    1    1    2    0    0  0.45843375887E+00 -0.46340309123E+00  0.30015218927E+00  0.11810331380E+01  0.93800000000E+00 0.  1.
         22    1    1    2    0    0 -0.34989092286E+00  0.37202141209E+00  0.28797981193E+01  0.29247326027E+01  0.00000000000E+00 0.  1.
</event>
<event>
 5    1  0.3005426E+001  0.1599655E+01  0.7818608E-02  0.3353738E+00
         11   -1    0    0    0    0  0.00000000000E+00  0.00000000000E+00  0.39999999674E+01  0.40000000000E+01  0.51100000000E-03 0. -1.
    9000002   -1    0    0    0    0 -0.00000000000E+00 -0.00000000000E+00  0.00000000000E+00  0.93800000000E+00  0.93800000000E+00 0. -1.
         11    1    1    2    0    0  0.15696115030E+00 -0.72190746050E-01  0.13410509901E+01  0.13521339895E+01  0.51100000000E-03 0. -1.
    9000002    1    1    2    0    0 -0.44312940466E+00  0.19261021156E+00  0.15939648068E+00  0.10671052436E+01  0.93800000000E+00 0. -1.
         22    1    1    2    0    0  0.28616825436E+00 -0.12041946551E+00  0.24995524966E+01  0.25187607669E+01  0.00000000000E+00 0. -1.
</event>
<event>
 5    1  0.3005426E+001  0.1599673E+01  0.7818608E-02  0.3353718E+00
         11   -1    0    0    0    0  0.00000000000E+00  0.00000000000E+00  0.39999999674E+01  0.40000000000E+01  0.51100000000E-03 0.  1.
    9000002   -1    0    0    0    0 -0.00000000000E+00 -0.00000000000E+00  0.00000000000E+00  0.93800000000E+00  0.93800000000E+00 0.  1.
         11    1    1    2    0    0  0.24437110593E+00 -0.79879689005E-01  0.11737329359E+01  0.12015603472E+01  0.51100000000E-03 0.  1.
    9000002    1    1    2    0    0 -0.73521170742E+00  0.24449117241E+00  0.43855426705E+00  0.12932463158E+01  0.93800000000E+00 0.  1.
         22    1    1    2    0    0  0.49084060149E+00 -0.16461148340E+00  0.23877127645E+01  0.24431933370E+01  0.00000000000E+00 0. -1.
</event>
<event>
 5    1  0.3005426E+001  0.1599524E+01  0.7818608E-02  0.3353880E+00
         11   -1    0    0    0    0  0.00000000000E+00  0.00000000000E+00  0.39999999674E+01  0.40000000000E+01  0.51100000000E-03 0. -1.
    9000002   -1    0    0    0    0 -0.00000000000E+00 -0.00000000000E+00  0.00000000000E+00  0.93800000000E+00  0.93800000000E+00 0.  1.
         11    1    1    2    0    0 -0.78500432218E-02  0.11326984904E-01  0.16507531285E+00  0.16565036613E+00  0.51100000000E-03 0. -1.
    9000002    1    1    2    0    0  0.92736289136E-01 -0.37429028482E+00  0.10024150458E+00  0.10191101981E+01  0.93800000000E+00 0.  1.
         22    1    1    2    0    0 -0.84886245914E-01  0.36296329991E+00  0.37346831499E+01  0.37532394358E+01  0.00000000000E+00 0. -1.
</event>
<event>
 5    1  0.3005426E+001  0.1599377E+01  0.7818608E-02  0.3354040E+00
         11   -1    0    0    0    0  0.00000000000E+00  0.00000000000E+00  0.39999999674E+01  0.40000000000E+01  0.51100000000E-03 0. -1.
    9000002   -1    0    0    0    0 -0.00000000000E+00 -0.00000000000E+00  0.00000000000E+00  0.93800000000E+00  0.93800000000E+00 0.  1.
         11    1    1    2    0    0  0.23249886444E-01  0.42401233890E-01  0.73709741499E+00  0.73868212525E+00  0.51100000000E-03 0. -1.
    9000002    1    1    2    0    0 -0.14826008628E+00 -0.30893023487E+00  0.78908459338E-01  0.10017432247E+01  0.93800000000E+00 0.  1.
         22    1    1    2    0    0  0.12501019984E+00  0.26652900098E+00  0.31839940930E+01  0.31975746501E+01  0.00000000000E+00 0. -1.
</event>
<event>
 5    1  0.3005426E+001  0.1496576E+01  0.7818608E-02  0.3473880E+00
         11   -1    0    0    0    0  0.00000000000E+00  0.00000000000E+00  0.39999999674E+01  0.40000000000E+01  0.51100000000E-03 0.  1.
    9000002   -1    0    0    0    0 -0.00000000000E+00 -0.00000000000E+00  0.00000000000E+00  0.93800000000E+00  0.93800000000E+00 0.  1.
         11    1    1    2    0    0 -0.68585613688E-01 -0.16053368149E+00  0.38837027857E-01  0.17883966325E+00  0.51100000000E-03 0.  1.
    9000002    1    1    2    0    0 -0.59324984135E+00 -0.68434209614E-01  0.48496811720E+00  0.12131227020E+01  0.93800000000E+00 0.  1.
         22    1    1    2    0    0  0.66183545504E+00  0.22896789111E+00  0.34761948223E+01  0.35460376348E+01  0.00000000000E+00 0.  1.
</event>
<event>
 5    1  0.3005426E+001  0.1599247E+01  0.7818608E-02  0.3354181E+00
         11   -1    0    0    0    0  0.00000000000E+00  0.00000000000E+00  0.39999999674E+01  0.40000000000E+01  0.51100000000E-03 0.  1.
    9000002   -1    0    0    0    0 -0.00000000000E+00 -0.00000000000E+00  0.00000000000E+00  0.93800000000E+00  0.93800000000E+00 0.  1.
         11    1    1    2    0    0 -0.72902306662E-01 -0.10640180000E+00  0.90620692152E+00  0.91534001064E+00  0.51100000000E-03 0.  1.
    9000002    1    1    2    0    0  0.22502890961E+00  0.41907275378E+00  0.15465476385E+00  0.10630249664E+01  0.93800000000E+00 0.  1.
         22    1    1    2    0    0 -0.15212660295E+00 -0.31267095378E+00  0.29391382820E+01  0.29596350230E+01  0.00000000000E+00 0.  1.
</event>
<event>
 5    1  0.3005426E+001  0.1599603E+01  0.7818608E-02  0.3353794E+00
         11   -1    0    0    0    0  0.00000000000E+00  0.00000000000E+00  0.39999999674E+01  0.40000000000E+01  0.51100000000E-03 0. -1.
    9000002   -1    0    0    0    0 -0.00000000000E+00 -0.00000000000E+00  0.00000000000E+00  0.93800000000E+00  0.93800000000E+00 0. -1.
         11    1    1    2    0    0 -0.15758658855E-01 -0.19194013585E+00  0.10626479872E+01  0.10799584978E+01  0.51100000000E-03 0. -1.
    9000002    1    1    2    0    0  0.76591714688E-01  0.68512452049E+00  0.33878279086E+00  0.12123859446E+01  0.93800000000E+00 0. -1.
         22    1    1    2    0    0 -0.60833055833E-01 -0.49318438464E+00  0.25985691893E+01  0.26456555576E+01  0.00000000000E+00 0. -1.
</event>
<event>
 5    1  0.3204508E+001  0.1593786E+01  0.7818608E-02  0.3360136E+00
         11   -1    0    0    0    0  0.00000000000E+00  0.00000000000E+00  0.39999999674E+01  0.40000000000E+01  0.51100000000E-03 0.  1.
    9000002   -1    0    0    0    0 -0.00000000000E+00 -0.00000000000E+00  0.00000000000E+00  0.93800000000E+00  0.93800000000E+00 0. -1.
         11    1    1    2    0    0 -0.15149645131E-01  0.81253980215E-01  0.13094220942E+01  0.13120282782E+01  0.51100000000E-03 0.  1.
    9000002    1    1    2    0    0 -0.20879468326E+00 -0.18189728168E+00  0.55621742873E-01  0.97960176558E+00  0.93800000000E+00 0. -1.
         22    1    1    2    0    0  0.22394432839E+00  0.10064330147E+00  0.26349561303E+01  0.26463699562E+01  0.00000000000E+00 0.  1.
</event>
<event>
 5    1  0.3005426E+001  0.1588512E+01  0.7818608E-02  0.3365927E+00
         11   -1    0    0    0    0  0.00000000000E+00  0.00000000000E+00  0.39999999674E+01  0.40000000000E+01  0.51100000000E-03 0. -1.
    9000002   -1    0    0    0    0 -0.00000000000E+00 -0.00000000000E+00  0.00000000000E+00  0.93800000000E+00  0.93800000000E+00 0.  1.
         11    1    1    2    0    0 -0.26670711536E-01  0.12048579697E-01  0.96517520048E-01  0.10085825660E+00  0.51100000000E-03 0. -1.
    9000002    1    1    2    0    0 -0.35218604524E+00  0.24340116934E+00  0.13363387036E+00  0.10397024339E+01  0.93800000000E+00 0.  1.
         22    1    1    2    0    0  0.37885675677E+00 -0.25544974904E+00  0.37698485769E+01  0.37974393095E+01  0.00000000000E+00 0. -1.
</event>
<event>
 5    1  0.3005426E+001  0.1599671E+01  0.7818608E-02  0.3353720E+00
         11   -1    0    0    0    0  0.00000000000E+00  0.00000000000E+00  0.39999999674E+01  0.40000000000E+01  0.51100000000E-03 0. -1.
    9000002   -1    0    0    0    0 -0.00000000000E+00 -0.00000000000E+00  0.00000000000E+00  0.93800000000E+00  0.93800000000E+00 0. -1.
         11    1    1    2    0    0 -0.11271627745E+00  0.69274822662E-01  0.12129530276E+01  0.12201472323E+01  0.51100000000E-03 0. -1.
    9000002    1    1    2    0    0  0.35693971257E+00 -0.22925315123E+00  0.12178478685E+00  0.10366477223E+01  0.93800000000E+00 0. -1.
         22    1    1    2    0    0 -0.24422343511E+00  0.15997832857E+00  0.26652621529E+01  0.26812050454E+01  0.00000000000E+00 0. -1.
</event>
<event>
 5    1  0.3005426E+001  0.1599677E+01  0.7818608E-02  0.3353714E+00
         11   -1    0    0    0    0  0.00000000000E+00  0.00000000000E+00  0.39999999674E+01  0.40000000000E+01  0.51100000000E-03 0. -1.
    9000002   -1    0    0    0    0 -0.00000000000E+00 -0.00000000000E+00  0.00000000000E+00  0.93800000000E+00  0.93800000000E+00 0.  1.
         11    1    1    2    0    0 -0.51270377349E-01  0.16169951373E+00  0.13120494467E+01  0.13229699150E+01  0.51100000000E-03 0. -1.
    9000002    1    1    2    0    0  0.14943092529E+00 -0.47076631854E+00  0.16682880158E+00  0.10731385638E+01  0.93800000000E+00 0.  1.
         22    1    1    2    0    0 -0.98160547940E-01  0.30906680481E+00  0.25211217191E+01  0.25418915212E+01  0.00000000000E+00 0. -1.
</event>
<event>
 5    1  0.3005426E+001  0.1599296E+01  0.7818608E-02  0.3354128E+00
         11   -1    0    0    0    0  0.00000000000E+00  0.00000000000E+00  0.39999999674E+01  0.40000000000E+01  0.51100000000E-03 0. -1.
    9000002   -1    0    0    0    0 -0.00000000000E+00 -0.00000000000E+00  0.00000000000E+00  0.93800000000E+00  0.93800000000E+00 0. -1.
         11    1    1    2    0    0 -0.67968526684E-01  0.39625600745E-01  0.73645401107E+00  0.74064477342E+00  0.51100000000E-03 0. -1.
    9000002    1    1    2    0    0  0.44309958697E+00 -0.16669698000E+00  0.15310129784E+00  0.10617952413E+01  0.93800000000E+00 0. -1.
         22    1    1    2    0    0 -0.37513106029E+00  0.12707137926E+00  0.31104446584E+01  0.31355599852E+01  0.00000000000E+00 0. -1.
</event>
<event>
 5    1  0.3005426E+001  0.1505903E+01  0.7818608E-02  0.3462284E+00
         11   -1    0    0    0    0  0.00000000000E+00  0.00000000000E+00  0.39999999674E+01  0.40000000000E+01  0.51100000000E-03 0.  1.
    9000002   -1    0    0    0    0 -0.00000000000E+00 -0.00000000000E+00  0.00000000000E+00  0.93800000000E+00  0.93800000000E+00 0.  1.
         11    1    1    2    0    0  0.11842131195E+00 -0.31498114539E+00  0.48833311650E+00  0.59304824666E+00  0.51100000000E-03 0.  1.
    9000002    1    1    2    0    0  0.24967763632E+00 -0.26845952812E+00  0.28682606498E+00  0.10471497657E+01  0.93800000000E+00 0.  1.
         22    1    1    2    0    0 -0.36809894827E+00  0.58344067351E+00  0.32248407859E+01  0.32978019876E+01  0.00000000000E+00 0.  1.
</event>
<event>
 5    1  0.3005426E+001  0.1599573E+01  0.7818608E-02  0.3353827E+00
         11   -1    0    0    0    0  0.00000000000E+00  0.00000000000E+00  0.39999999674E+01  0.40000000000E+01  0.51100000000E-03 0. -1.
    9000002   -1    0    0    0    0 -0.00000000000E+00 -0.00000000000E+00  0.00000000000E+00  0.93800000000E+00  0.93800000000E+00 0. -1.
         11    1    1    2    0    0  0.14947358447E+00  0.30542224116E-01  0.12837363878E+01  0.12927701088E+01  0.51100000000E-03 0. -1.
    9000002    1    1    2    0    0 -0.47529210268E+00 -0.11124996042E+00  0.16288826307E+00  0.10698858457E+01  0.93800000000E+00 0. -1.
         22    1    1    2    0    0  0.32581851821E+00  0.80707736302E-01  0.25533753165E+01  0.25753440455E+01  0.00000000000E+00 0. -1.
</event>
<event>
 5    1  0.3005426E+001  0.1599667E+01  0.7818608E-02  0.3353725E+00
         11   -1    0    0    0    0  0.00000000000E+00  0.00000000000E+00  0.39999999674E+01  0.40000000000E+01  0.51100000000E-03 0.  1.
    9000002   -1    0    0    0    0 -0.00000000000E+00 -0.00000000000E+00  0.00000000000E+00  0.93800000000E+00  0.93800000000E+00 0.  1.
         11    1    1    2    0    0 -0.21406368298E-01  0.39164213950E-01  0.38371078186E+00  0.38629819245E+00  0.51100000000E-03 0.  1.
    9000002    1    1    2    0    0  0.20705789590E+00 -0.37432062174E+00  0.12389721865E+00  0.10383561147E+01  0.93800000000E+00 0.  1.
         22    1    1    2    0    0 -0.18565152760E+00  0.33515640779E+00  0.34923919669E+01  0.35133456929E+01  0.00000000000E+00 0.  1.
</event>
<event>
 5    1  0.3469274E+001  0.1594797E+01  0.7818608E-02  0.3359030E+00
         11   -1    0    0    0    0  0.00000000000E+00  0.00000000000E+00  0.39999999674E+01  0.40000000000E+01  0.51100000000E-03 0.  1.
    9000002   -1    0    0    0    0 -0.00000000000E+00 -0.00000000000E+00  0.00000000000E+00  0.93800000000E+00  0.93800000000E+00 0.  1.
         11    1    1    2    0    0  0.42581527291E-01 -0.41773515645E-01  0.14130844701E+01  0.14143430255E+01  0.51100000000E-03 0.  1.
    9000002    1    1    2    0    0 -0.27390993011E+00 -0.46766306741E-01  0.55195464143E-01  0.97984910906E+00  0.93800000000E+00 0.  1.
         22    1    1    2    0    0  0.23132840282E+00  0.88539822385E-01  0.25317200331E+01  0.25438078654E+01  0.00000000000E+00 0.  1.
</event>
<event>
 5    1  0.3005426E+001  0.1599666E+01  0.7818608E-02  0.3353725E+00
         11   -1    0    0    0    0  0.00000000000E+00  0.00000000000E+00  0.39999999674E+01  0.40000000000E+01  0.51100000000E-03 0.  1.
    9000002   -1    0    0    0    0 -0.00000000000E+00 -0.00000000000E+00  0.00000000000E+00  0.93800000000E+00  0.93800000000E+00 0. -1.
         11    1    1    2    0    0 -0.52060096315E-02  0.22626900760E-01  0.16022726471E+00  0.16190156470E+00  0.51100000000E-03 0.  1.
    9000002    1    1    2    0    0  0.88241048784E-01 -0.53207527055E+00  0.20052725656E+00  0.11004298055E+01  0.93800000000E+00 0. -1.
         22    1    1    2    0    0 -0.83035039153E-01  0.50944836979E+00  0.36392454461E+01  0.36756686298E+01  0.00000000000E+00 0.  1.
</event>
<event>
 5    1  0.3005426E+001  0.1599676E+01  0.7818608E-02  0.3353715E+00
         11   -1    0    0    0    0  0.00000000000E+00  0.00000000000E+00  0.39999999674E+01  0.40000000000E+01  0.51100000000E-03 0.  1.
    9000002   -1    0    0    0    0 -0.00000000000E+00 -0.00000000000E+00  0.00000000000E+00  0.93800000000E+00  0.93800000000E+00 0. -1.
         11    1    1    2    0    0 -0.29719114555E-01  0.14021137975E-03  0.27049251732E+00  0.27212076084E+00  0.51100000000E-03 0.  1.
    9000002    1    1    2    0    0  0.42699600442E+00 -0.95100840257E-02  0.12349012634E+00  0.10380317147E+01  0.93800000000E+00 0. -1.
         22    1    1    2    0    0 -0.39727688987E+00  0.93698726459E-02  0.36060173237E+01  0.36278475244E+01  0.00000000000E+00 0.  1.
</event>
<event>
 5    1  0.3005426E+001  0.1599676E+01  0.7818608E-02  0.3353715E+00
         11   -1    0    0    0    0  0.00000000000E+00  0.00000000000E+00  0.39999999674E+01  0.40000000000E+01  0.51100000000E-03 0.  1.
    9000002   -1    0    0    0    0 -0.00000000000E+00 -0.00000000000E+00  0.00000000000E+00  0.93800000000E+00  0.93800000000E+00 0.  1.
         11    1    1    2    0    0 -0.21317118554E+00  0.67183378684E-01  0.13719545709E+01  0.13900414262E+01  0.51100000000E-03 0.  1.
    9000002    1    1    2    0    0  0.57901236581E+00 -0.18066731528E+00  0.25704390375E+00  0.11462161956E+01  0.93800000000E+00 0.  1.
         22    1    1    2    0    0 -0.36584118028E+00  0.11348393660E+00  0.23710014927E+01  0.24017423783E+01  0.00000000000E+00 0.  1.
</event>
<event>
 5    1  0.3005426E+001  0.1599677E+01  0.7818608E-02  0.3353714E+00
         11   -1    0    0    0    0  0.00000000000E+00  0.00000000000E+00  0.39999999674E+01  0.40000000000E+01  0.51100000000E-03 0.  1.
    9000002   -1    0    0    0    0 -0.00000000000E+00 -0.00000000000E+00  0.00000000000E+00  0.93800000000E+00  0.93800000000E+00 0.  1.
         11    1    1    2    0    0  0.32178429764E-01  0.16439895036E+00  0.10316119394E+01  0.10451248351E+01  0.51100000000E-03 0. -1.
    9000002    1    1    2    0    0 -0.11677489414E+00 -0.59625269633E+00  0.25797938463E+00  0.11469747236E+01  0.93800000000E+00 0.  1.
         22    1    1    2    0    0  0.84596464373E-01  0.43185374597E+00  0.27104086433E+01  0.27459004413E+01  0.00000000000E+00 0.  1.
</event>
<event>
 5    1  0.3005426E+001  0.1599497E+01  0.7818608E-02  0.3353909E+00
         11   -1    0    0    0    0  0.00000000000E+00  0.00000000000E+00  0.39999999674E+01  0.40000000000E+01  0.51100000000E-03 0.  1.
    9000002   -1    0    0    0    0 -0.00000000000E+00 -0.00000000000E+00  0.00000000000E+00  0.93800000000E+00  0.93800000000E+00 0. -1.
         11    1    1    2    0    0  0.10709455308E+00 -0.69108223392E-01  0.11109496818E+01  0.11182372943E+01  0.51100000000E-03 0.  1.
    9000002    1    1    2    0    0 -0.35172208920E+00  0.19639738122E+00  0.10965119591E+00  0.10267169737E+01  0.93800000000E+00 0. -1.
         22    1    1    2    0    0  0.24462753612E+00 -0.12728915782E+00  0.27793990897E+01  0.27930457320E+01  0.00000000000E+00 0.  1.
</event>
<event>
 5    1  0.3005426E+001  0.1599661E+01  0.7818608E-02  0.3353731E+00
         11   -1    0    0    0    0  0.00000000000E+00  0.00000000000E+00  0.39999999674E+01  0.40000000000E+01  0.51100000000E-03 0. -1.
    9000002   -1    0    0    0    0 -0.00000000000E+00 -0.00000000000E+00  0.00000000000E+00  0.93800000000E+00  0.93800000000E+00 0. -1.
         11    1    1    2    0    0  0.47888303571E-02  0.17096580644E-01  0.72799016183E-01  0.74934530386E-01  0.51100000000E-03 0. -1.
    9000002    1    1    2    0    0 -0.27878014884E+00 -0.83163143277E+00  0.58323822774E+00  0.14104396625E+01  0.93800000000E+00 0. -1.
         22    1    1    2    0    0  0.27399131848E+00  0.81453485213E+00  0.33439627234E+01  0.34526258071E+01  0.00000000000E+00 0. -1.
</event>
<event>
 5    1  0.3005426E+001  0.1579059E+01  0.7818608E-02  0.3376411E+00
         11   -1    0    0    0    0  0.00000000000E+00  0.00000000000E+00  0.39999999674E+01  0.40000000000E+01  0.51100000000E-03 0. -1.
    9000002   -1    0    0    0    0 -0.00000000000E+00 -0.00000000000E+00  0.00000000000E+00  0.93800000000E+00  0.93800000000E+00 0. -1.
         11    1    1    2    0    0 -0.87927560704E-01  0.99716341681E-01  0.16891349471E+00  0.21495728540E+00  0.51100000000E-03 0. -1.
    9000002    1    1    2    0    0  0.25134768646E+00 -0.10043149525E+01  0.92615090000E+00  0.16761335487E+01  0.93800000000E+00 0. -1.
         22    1    1    2    0    0 -0.16342012575E+00  0.90459861085E+00  0.29049355727E+01  0.30469091659E+01  0.00000000000E+00 0. -1.
</event>
<event>
 5    1  0.3005426E+001  0.1599674E+01  0.7818608E-02  0.3353717E+00
         11   -1    0    0    0    0  0.00000000000E+00  0.00000000000E+00  0.39999999674E+01  0.40000000000E+01  0.51100000000E-03 0.  1.
    9000002   -1    0    0    0    0 -0.00000000000E+00 -0.00000000000E+00  0.00000000000E+00  0.93800000000E+00  0.93800000000E+00 0. -1.
         11    1    1    2    0    0  0.65282656062E-01  0.82588659688E-01  0.11602606329E+01  0.11650269135E+01  0.51100000000E-03 0.  1.
    9000002    1    1    2    0    0 -0.22671006441E+00 -0.27836135988E+00  0.86506648773E-01  0.10080723686E+01  0.93800000000E+00 0. -1.
         22    1    1    2    0    0  0.16142740834E+00  0.19577270019E+00  0.27532326857E+01  0.27649007179E+01  0.00000000000E+00 0.  1.
</event>
<event>
 5    1  0.3005426E+001  0.1599415E+01  0.7818608E-02  0.3353999E+00
         11   -1    0    0    0    0  0.00000000000E+00  0.00000000000E+00  0.39999999674E+01  0.40000000000E+01  0.51100000000E-03 0.  1.
    9000002   -1    0    0    0    0 -0.00000000000E+00 -0.00000000000E+00  0.00000000000E+00  0.93800000000E+00  0.93800000000E+00 0. -1.
         11    1    1    2    0    0 -0.29423216000E-01  0.46674631859E-01  0.44163395540E+00  0.44506747644E+00  0.51100000000E-03 0.  1.
    9000002    1    1    2    0    0  0.25649752593E+00 -0.30220437503E+00  0.10614829615E+00  0.10238310045E+01  0.93800000000E+00 0. -1.
         22    1    1    2    0    0 -0.22707430993E+00  0.25552974317E+00  0.34522177158E+01  0.34691015190E+01  0.00000000000E+00 0.  1.
</event>
<event>
 5    1  0.3005426E+001  0.1599675E+01  0.7818608E-02  0.3353717E+00
         11   -1    0    0    0    0  0.00000000000E+00  0.00000000000E+00  0.39999999674E+01  0.40000000000E+01  0.51100000000E-03 0.  1.
    9000002   -1    0    0    0    0 -0.00000000000E+00 -0.00000000000E+00  0.00000000000E+00  0.93800000000E+00  0.93800000000E+00 0. -1.
         11    1    1    2    0    0 -0.13857411818E+00  0.44918638598E-01  0.14890987588E+01  0.14962071530E+01  0.51100000000E-03 0.  1.
    9000002    1    1    2    0    0  0.36397482634E+00 -0.11307164289E+00  0.97754075895E-01  0.10171837248E+01  0.93800000000E+00 0. -1.
         22    1    1    2    0    0 -0.22540070816E+00  0.68153004295E-01  0.24131471327E+01  0.24246091222E+01  0.00000000000E+00 0.  1.
</event>
<event>
 5    1  0.3005426E+001  0.1599588E+01  0.7818608E-02  0.3353810E+00
         11   -1    0    0    0    0  0.00000000000E+00  0.00000000000E+00  0.39999999674E+01  0.40000000000E+01  0.51100000000E-03 0.  1.
    9000002   -1    0    0    0    0 -0.00000000000E+00 -0.00000000000E+00  0.00000000000E+00  0.93800000000E+00  0.93800000000E+00 0. -1.
         11    1    1    2    0    0  0.43507286603E-01 -0.64495278237E-01  0.71239252678E+00  0.71662814502E+00  0.51100000000E-03 0.  1.
    9000002    1    1    2    0    0 -0.28169578068E+00  0.33559334728E+00  0.13023843754E+00  0.10434469120E+01  0.93800000000E+00 0. -1.
         22    1    1    2    0    0  0.23818849407E+00 -0.27109806904E+00  0.31573690030E+01  0.31779249430E+01  0.00000000000E+00 0.  1.
</event>
<event>
 5    1  0.3005426E+001  0.1599640E+01  0.7818608E-02  0.3353755E+00
         11   -1    0    0    0    0  0.00000000000E+00  0.00000000000E+00  0.39999999674E+01  0.40000000000E+01  0.51100000000E-03 0. -1.
    9000002   -1    0    0    0    0 -0.00000000000E+00 -0.00000000000E+00  0.00000000000E+00  0.93800000000E+00  0.93800000000E+00 0. -1.
         11    1    1    2    0    0  0.13829086642E+00  0.29118370297E-02  0.10313683561E+01  0.10406026089E+01  0.51100000000E-03 0. -1.
    9000002    1    1    2    0    0 -0.52739325678E+00  0.67876002705E-02  0.19138105354E+00  0.10930052271E+01  0.93800000000E+00 0. -1.
         22    1    1    2    0    0  0.38910239036E+00 -0.96994373001E-02  0.27772505577E+01  0.28043921640E+01  0.00000000000E+00 0. -1.
</event>
<event>
 5    1  0.3005426E+001  0.1572486E+01  0.7818608E-02  0.3383778E+00
         11   -1    0    0    0    0  0.00000000000E+00  0.00000000000E+00  0.39999999674E+01  0.40000000000E+01  0.51100000000E-03 0.  1.
    9000002   -1    0    0    0    0 -0.00000000000E+00 -0.00000000000E+00  0.00000000000E+00  0.93800000000E+00  0.93800000000E+00 0. -1.
         11    1    1    2    0    0 -0.52246807630E-01  0.85769649151E-01  0.51295260055E+00  0.52269187210E+00  0.51100000000E-03 0.  1.
    9000002    1    1    2    0    0 -0.19772804461E+00  0.17544515804E+00  0.67685022838E-01  0.97688415148E+00  0.93800000000E+00 0. -1.
         22    1    1    2    0    0  0.24997485224E+00 -0.26121480719E+00  0.34193623440E+01  0.34384239764E+01  0.00000000000E+00 0.  1.
</event>
<event>
 5    1  0.3005426E+001  0.1598227E+01  0.7818608E-02  0.3355290E+00
         11   -1    0    0    0    0  0.00000000000E+00  0.00000000000E+00  0.39999999674E+01  0.40000000000E+01  0.51100000000E-03 0. -1.
    9000002   -1    0    0    0    0 -0.00000000000E+00 -0.00000000000E+00  0.00000000000E+00  0.93800000000E+00  0.93800000000E+00 0.  1.
         11    1    1    2    0    0 -0.64660024556E-01  0.43177003180E-01  0.12397096040E+01  0.12421454567E+01  0.51100000000E-03 0. -1.
    9000002    1    1    2    0    0  0.33810850822E+00 -0.12131433626E+00  0.87783093484E-01  0.10082581034E+01  0.93800000000E+00 0.  1.
         22    1    1    2    0    0 -0.27344848367E+00  0.78137333081E-01  0.26725072699E+01  0.26875964399E+01  0.00000000000E+00 0. -1.
</event>
<event>
 5    1  0.3005426E+001  0.1599657E+01  0.7818608E-02  0.3353736E+00
         11   -1    0    0    0    0  0.00000000000E+00  0.00000000000E+00  0.39999999674E+01  0.40000000000E+01  0.51100000000E-03 0.  1.
    9000002   -1    0    0    0    0 -0.00000000000E+00 -0.00000000000E+00  0.00000000000E+00  0.93800000000E+00  0.93800000000E+00 0. -1.
         11    1    1    2    0    0  0.14447801686E+00 -0.13298269250E+00  0.11988772438E+01  0.12148519254E+01  0.51100000000E-03 0.  1.
    9000002    1    1    2    0    0 -0.43597047544E+00  0.41888917163E+00  0.25530764853E+00  0.11447988421E+01  0.93800000000E+00 0. -1.
         22    1    1    2    0    0  0.29149245858E+00 -0.28590647913E+00  0.25458150751E+01  0.25783492325E+01  0.00000000000E+00 0.  1.
</event>
<event>
 5    1  0.3005426E+001  0.1599664E+01  0.7818608E-02  0.3353728E+00
         11   -1    0    0    0    0  0.00000000000E+00  0.00000000000E+00  0.39999999674E+01  0.40000000000E+01  0.51100000000E-03 0.  1.
    9000002   -1    0    0    0    0 -0.00000000000E+00 -0.00000000000E+00  0.00000000000E+00  0.93800000000E+00  0.93800000000E+00 0.  1.
         11    1    1    2    0    0  0.53624354324E-01 -0.30378820748E-01  0.37987722093E+00  0.38484465468E+00  0.51100000000E-03 0.  1.
    9000002    1    1    2    0    0 -0.54473991863E+00  0.31489352158E+00  0.27802186201E+00  0.11632023318E+01  0.93800000000E+00 0.  1.
         22    1    1    2    0    0  0.49111556431E+00 -0.28451470083E+00  0.33421008844E+01  0.33899530136E+01  0.00000000000E+00 0.  1.
</event>
<event>
 5    1  0.3005426E+001  0.1599426E+01  0.7818608E-02  0.3353987E+00
         11   -1    0    0    0    0  0.00000000000E+00  0.00000000000E+00  0.39999999674E+01  0.40000000000E+01  0.51100000000E-03 0. -1.
    9000002   -1    0    0    0    0 -0.00000000000E+00 -0.00000000000E+00  0.00000000000E+00  0.93800000000E+00  0.93800000000E+00 0.  1.
         11    1    1    2    0    0  0.30555444144E-01 -0.10759261733E+00  0.71948942714E+00  0.72813124048E+00  0.51100000000E-03 0. -1.
    9000002    1    1    2    0    0 -0.81691602236E-01  0.56650001210E+00  0.22750194877E+00  0.11221394380E+01  0.93800000000E+00 0.  1.
         22    1    1    2    0    0  0.51136158092E-01 -0.45890739477E+00  0.30530085915E+01  0.30877293215E+01  0.00000000000E+00 0. -1.
</event>
<event>
 5    1  0.3005426E+001  0.1599677E+01  0.7818608E-02  0.3353714E+00
         11   -1    0    0    0    0  0.00000000000E+00  0.00000000000E+00  0.39999999674E+01  0.40000000000E+01  0.51100000000E-03 0.  1.
    9000002   -1    0    0    0    0 -0.00000000000E+00 -0.00000000000E+00  0.00000000000E+00  0.93800000000E+00  0.93800000000E+00 0.  1.
         11    1    1    2    0    0 -0.10547914531E+00  0.12690204333E+00  0.11208953278E+01  0.11329768645E+01  0.51100000000E-03 0.  1.
    9000002    1    1    2    0    0  0.35818748611E+00 -0.42870673936E+00  0.21591753117E+00  0.11129025671E+01  0.93800000000E+00 0.  1.
         22    1    1    2    0    0 -0.25270834080E+00  0.30180469603E+00  0.26631871084E+01  0.26921205684E+01  0.00000000000E+00 0.  1.
</event>
<event>
 5    1  0.3005426E+001  0.1585122E+01  0.7818608E-02  0.3369672E+00
         11   -1    0    0    0    0  0.00000000000E+00  0.00000000000E+00  0.39999999674E+01  0.40000000000E+01  0.51100000000E-03 0. -1.
    9000002   -1    0    0    0    0 -0.00000000000E+00 -0.00000000000E+00  0.00000000000E+00  0.93800000000E+00  0.93800000000E+00 0.  1.
         11    1    1    2    0    0 -0.20936158098E+00 -0.31458249072E-01  0.13718007557E+01  0.13880415943E+01  0.51100000000E-03 0. -1.
    9000002    1    1    2    0    0  0.35330193249E+00 -0.22324887447E+00  0.13046265273E+00  0.10351457961E+01  0.93800000000E+00 0.  1.
         22    1    1    2    0    0 -0.14394035151E+00  0.25470712354E+00  0.24977365590E+01  0.25148126096E+01  0.00000000000E+00 0. -1.
</event>
<event>
 5    1  0.3005426E+001  0.1559971E+01  0.7818608E-02  0.3397989E+00
         11   -1    0    0    0    0  0.00000000000E+00  0.00000000000E+00  0.39999999674E+01  0.40000000000E+01  0.51100000000E-03 0.  1.
    9000002   -1    0    0    0    0 -0.00000000000E+00 -0.00000000000E+00  0.00000000000E+00  0.93800000000E+00  0.93800000000E+00 0.  1.
         11    1    1    2    0    0 -0.38275499545E-01 -0.14901447338E+00  0.13901450608E+01  0.13986328604E+01  0.51100000000E-03 0.  1.
    9000002    1    1    2    0    0 -0.16686500418E+00 -0.16579122969E+00  0.67501731591E-01  0.96939731031E+00  0.93800000000E+00 0.  1.
         22    1    1    2    0    0  0.20514050372E+00  0.31480570307E+00  0.25423531750E+01  0.25699698293E+01  0.00000000000E+00 0.  1.
</event>
<event>
 5    1  0.3005426E+001  0.1597667E+01  0.7818608E-02  0.3355899E+00
         11   -1    0    0    0    0  0.00000000000E+00  0.00000000000E+00  0.39999999674E+01  0.40000000000E+01  0.51100000000E-03 0.  1.
    9000002   -1    0    0    0    0 -0.00000000000E+00 -0.00000000000E+00  0.00000000000E+00  0.93800000000E+00  0.93800000000E+00 0.  1.
         11    1    1    2    0    0  0.53142764642E-01 -0.46760106557E-02  0.12446940420E+01  0.12458368825E+01  0.51100000000E-03 0.  1.
    9000002    1    1    2    0    0 -0.30398124660E+00  0.96533529166E-01  0.69575506358E-01  0.99318078496E+00  0.93800000000E+00 0.  1.
         22    1    1    2    0    0  0.25083848196E+00 -0.91857518510E-01  0.26857304190E+01  0.26989823325E+01  0.00000000000E+00 0.  1.
</event>
<event>
 5    1  0.3005426E+001  0.1599677E+01  0.7818608E-02  0.3353714E+00
         11   -1    0    0    0    0  0.00000000000E+00  0.00000000000E+00  0.39999999674E+01  0.40000000000E+01  0.51100000000E-03 0.  1.
    9000002   -1    0    0    0    0 -0.00000000000E+00 -0.00000000000E+00  0.00000000000E+00  0.93800000000E+00  0.93800000000E+00 0.  1.
         11    1    1    2    0    0  0.49543420076E-01 -0.11471901057E+00  0.10136088942E+01  0.10212826510E+01  0.51100000000E-03 0.  1.
    9000002    1    1    2    0    0 -0.18802366282E+00  0.43645639483E+00  0.15398334559E+00  0.10627332464E+01  0.93800000000E+00 0.  1.
         22    1    1    2    0    0  0.13848024274E+00 -0.32173738426E+00  0.28324077276E+01  0.28539841025E+01  0.00000000000E+00 0.  1.
</event>
<event>
 5    1  0.3005426E+001  0.1599675E+01  0.7818608E-02  0.3353717E+00
         11   -1    0    0    0    0  0.00000000000E+00  0.00000000000E+00  0.39999999674E+01  0.40000000000E+01  0.51100000000E-03 0.  1.
    9000002   -1    0    0    0    0 -0.00000000000E+00 -0.00000000000E+00  0.00000000000E+00  0.93800000000E+00  0.93800000000E+00 0.  1.
         11    1    1    2    0    0  0.14095933447E-01 -0.14965597789E+00  0.10336955818E+01  0.10445680562E+01  0.51100000000E-03 0.  1.
    9000002    1    1    2    0    0 -0.55483583438E-01  0.54437566261E+00  0.20670451235E+00  0.11054383952E+01  0.93800000000E+00 0.  1.
         22    1    1    2    0    0  0.41387649991E-01 -0.39471968472E+00  0.27595998732E+01  0.27879935486E+01  0.00000000000E+00 0.  1.
</event>
<event>
 5    1  0.3005426E+001  0.1599435E+01  0.7818608E-02  0.3353976E+00
         11   -1    0    0    0    0  0.00000000000E+00  0.00000000000E+00  0.39999999674E+01  0.40000000000E+01  0.51100000000E-03 0. -1.
    9000002   -1    0    0    0    0 -0.00000000000E+00 -0.00000000000E+00  0.00000000000E+00  0.93800000000E+00  0.93800000000E+00 0. -1.
         11    1    1    2    0    0  0.70880421591E-01  0.37421798408E-01  0.72677331140E+00  0.73117995900E+00  0.51100000000E-03 0. -1.
    9000002    1    1    2    0    0 -0.40763780020E+00 -0.12759230667E+00  0.12371660411E+00  0.10380742608E+01  0.93800000000E+00 0. -1.
         22    1    1    2    0    0  0.33675737861E+00  0.90170508265E-01  0.31495100518E+01  0.31687457802E+01  0.00000000000E+00 0. -1.
</event>
<event>
 5    1  0.3005426E+001  0.1599677E+01  0.7818608E-02  0.3353714E+00
         11   -1    0    0    0    0  0.00000000000E+00  0.00000000000E+00  0.39999999674E+01  0.40000000000E+01  0.51100000000E-03 0.  1.
    9000002   -1    0    0    0    0 -0.00000000000E+00 -0.00000000000E+00  0.00000000000E+00  0.93800000000E+00  0.93800000000E+00 0. -1.
         11    1    1    2    0    0 -0.34924028417E-01 -0.11605078165E+00  0.13052622064E+01  0.13108764855E+01  0.51100000000E-03 0. -1.
    9000002    1    1    2    0    0  0.10503859592E+00  0.34668170146E+00  0.88106591396E-01  0.10093701403E+01  0.93800000000E+00 0. -1.
         22    1    1    2    0    0 -0.70114567506E-01 -0.23063091981E+00  0.26066311696E+01  0.26177533741E+01  0.00000000000E+00 0.  1.
</event>
<event>
 5    1  0.3005426E+001  0.1599574E+01  0.7818608E-02  0.3353825E+00
         11   -1    0    0    0    0  0.00000000000E+00  0.00000000000E+00  0.39999999674E+01  0.40000000000E+01  0.51100000000E-03 0.  1.
    9000002   -1    0    0    0    0 -0.00000000000E+00 -0.00000000000E+00  0.00000000000E+00  0.93800000000E+00  0.93800000000E+00 0.  1.
         11    1    1    2    0    0  0.48981719714E-01 -0.23899625559E-01  0.52177415767E+00  0.52461312765E+00  0.51100000000E-03 0.  1.
    9000002    1    1    2    0    0 -0.31165388496E+00  0.20771648410E+00  0.94404126410E-01  0.10144113667E+01  0.93800000000E+00 0.  1.
         22    1    1    2    0    0  0.26267216525E+00 -0.18381685854E+00  0.33838216833E+01  0.33989755057E+01  0.00000000000E+00 0.  1.
</event>
<event>
 5    1  0.3005426E+001  0.1597363E+01  0.7818608E-02  0.3356231E+00
         11   -1    0    0    0    0  0.00000000000E+00  0.00000000000E+00  0.39999999674E+01  0.40000000000E+01  0.51100000000E-03 0.  1.
    9000002   -1    0    0    0    0 -0.00000000000E+00 -0.00000000000E+00  0.00000000000E+00  0.93800000000E+00  0.93800000000E+00 0.  1.
         11    1    1    2    0    0 -0.53075668900E-02 -0.86698451400E-01  0.10039486270E+01  0.10076993095E+01  0.51100000000E-03 0.  1.
    9000002    1    1    2    0    0 -0.17540606879E+00  0.35112141947E+00  0.10573132439E+00  0.10222899066E+01  0.93800000000E+00 0.  1.
         22    1    1    2    0    0  0.18071363568E+00 -0.26442296807E+00  0.28903200160E+01  0.29080107839E+01  0.00000000000E+00 0.  1.
</event>
<event>
 5    1  0.3005426E+001  0.1599669E+01  0.7818608E-02  0.3353723E+00
         11   -1    0    0    0    0  0.00000000000E+00  0.00000000000E+00  0.39999999674E+01  0.40000000000E+01  0.51100000000E-03 0. -1.
    9000002   -1    0    0    0    0 -0.00000000000E+00 -0.00000000000E+00  0.00000000000E+00  0.93800000000E+00  0.93800000000E+00 0.  1.
         11    1    1    2    0    0  0.19834918240E+00 -0.32673428490E+00  0.67075114609E+00  0.77201363472E+00  0.51100000000E-03 0. -1.
    9000002    1    1    2    0    0 -0.65615242350E+00  0.10850280530E+01  0.17545768352E+01  0.23592807694E+01  0.93800000000E+00 0.  1.
         22    1    1    2    0    0  0.45780324109E+00 -0.75829376806E+00  0.15746719861E+01  0.18067055958E+01  0.00000000000E+00 0. -1.
</event>
<event>
 5    1  0.3005426E+001  0.1599667E+01  0.7818608E-02  0.3353725E+00
         11   -1    0    0    0    0  0.00000000000E+00  0.00000000000E+00  0.39999999674E+01  0.40000000000E+01  0.51100000000E-03 0.  1.
    9000002   -1    0    0    0    0 -0.00000000000E+00 -0.00000000000E+00  0.00000000000E+00  0.93800000000E+00  0.93800000000E+00 0.  1.
         11    1    1    2    0    0  0.12734280199E+00  0.59263175848E-01  0.73320429476E+00  0.74653674538E+00  0.51100000000E-03 0.  1.
    9000002    1    1    2    0    0 -0.63078596633E+00 -0.28108130208E+00  0.33998459893E+00  0.12133965391E+01  0.93800000000E+00 0.  1.
         22    1    1    2    0    0  0.50344316434E+00  0.22181812623E+00  0.29268110737E+01  0.29780667155E+01  0.00000000000E+00 0.  1.
</event>
<event>
 5    1  0.3005426E+001  0.1484064E+01  0.7818608E-02  0.3489682E+00
         11   -1    0    0    0    0  0.00000000000E+00  0.00000000000E+00  0.39999999674E+01  0.40000000000E+01  0.51100000000E-03 0.  1.
    9000002   -1    0    0    0    0 -0.00000000000E+00 -0.00000000000E+00  0.00000000000E+00  0.93800000000E+00  0.93800000000E+00 0.  1.
         11    1    1    2    0    0  0.92836111523E-01  0.11762327836E+00  0.13518763375E+00  0.20181609613E+00  0.51100000000E-03 0.  1.
    9000002    1    1    2    0    0 -0.18492302799E-01  0.55948450292E+00  0.33690380220E+00  0.11431154999E+01  0.93800000000E+00 0.  1.
         22    1    1    2    0    0 -0.74343808724E-01 -0.67710778128E+00  0.35279085314E+01  0.35930684039E+01  0.00000000000E+00 0.  1.
</event>
<event>
 5    1  0.3005426E+001  0.1599676E+01  0.7818608E-02  0.3353715E+00
         11   -1    0    0    0    0  0.00000000000E+00  0.00000000000E+00  0.39999999674E+01  0.40000000000E+01  0.51100000000E-03 0. -1.
    9000002   -1    0    0    0    0 -0.00000000000E+00 -0.00000000000E+00  0.00000000000E+00  0.93800000000E+00  0.93800000000E+00 0. -1.
         11    1    1    2    0    0 -0.21836655389E+00  0.25917822265E-01  0.92551285469E+00  0.95127808273E+00  0.51100000000E-03 0. -1.
    9000002    1    1    2    0    0  0.82175395089E+00 -0.10030597964E+00  0.50978903452E+00  0.13509514074E+01  0.93800000000E+00 0. -1.
         22    1    1    2    0    0 -0.60338739699E+00  0.74388157374E-01  0.25646980781E+01  0.26357705099E+01  0.00000000000E+00 0. -1.
</event>
<event>
 5    1  0.3005426E+001  0.1599588E+01  0.7818608E-02  0.3353810E+00
         11   -1    0    0    0    0  0.00000000000E+00  0.00000000000E+00  0.39999999674E+01  0.40000000000E+01  0.51100000000E-03 0.  1.
    9000002   -1    0    0    0    0 -0.00000000000E+00 -0.00000000000E+00  0.00000000000E+00  0.93800000000E+00  0.93800000000E+00 0.  1.
         11    1    1    2    0    0  0.11523443274E+00 -0.91932606301E-01  0.12128547977E+01  0.12217805040E+01  0.51100000000E-03 0.  1.
    9000002    1    1    2    0    0 -0.38642222973E+00  0.26552472897E+00  0.14980619110E+00  0.10592976051E+01  0.93800000000E+00 0.  1.
         22    1    1    2    0    0  0.27118779699E+00 -0.17359212267E+00  0.26373389786E+01  0.26569218909E+01  0.00000000000E+00 0.  1.
</event>
<event>
 5    1  0.3005426E+001  0.1599668E+01  0.7818608E-02  0.3353723E+00
         11   -1    0    0    0    0  0.00000000000E+00  0.00000000000E+00  0.39999999674E+01  0.40000000000E+01  0.51100000000E-03 0. -1.
    9000002   -1    0    0    0    0 -0.00000000000E+00 -0.00000000000E+00  0.00000000000E+00  0.93800000000E+00  0.93800000000E+00 0.  1.
         11    1    1    2    0    0 -0.42642204802E-01  0.20191541923E+00  0.11762847663E+01  0.11942505209E+01  0.51100000000E-03 0. -1.
    9000002    1    1    2    0    0  0.12850780627E+00 -0.64327682399E+00  0.30410297435E+00  0.11843318570E+01  0.93800000000E+00 0.  1.
         22    1    1    2    0    0 -0.85865601469E-01  0.44136140476E+00  0.25196122267E+01  0.25594176220E+01  0.00000000000E+00 0. -1.
</event>
<event>
 5    1  0.3005426E+001  0.1599672E+01  0.7818608E-02  0.3353719E+00
         11   -1    0    0    0    0  0.00000000000E+00  0.00000000000E+00  0.39999999674E+01  0.40000000000E+01  0.51100000000E-03 0. -1.
    9000002   -1    0    0    0    0 -0.00000000000E+00 -0.00000000000E+00  0.00000000000E+00  0.93800000000E+00  0.93800000000E+00 0. -1.
         11    1    1    2    0    0  0.83533786750E-02  0.49436872923E-02  0.60862848916E-01  0.61634134037E-01  0.51100000000E-03 0. -1.
    9000002    1    1    2    0    0 -0.52115053727E+00 -0.32891971587E+00  0.26592161999E+00  0.11534055531E+01  0.93800000000E+00 0. -1.
         22    1    1    2    0    0  0.51279715859E+00  0.32397602857E+00  0.36732154985E+01  0.37229603128E+01  0.00000000000E+00 0. -1.
</event>
<event>
 5    1  0.3005426E+001  0.1563143E+01  0.7818608E-02  0.3394365E+00
         11   -1    0    0    0    0  0.00000000000E+00  0.00000000000E+00  0.39999999674E+01  0.40000000000E+01  0.51100000000E-03 0. -1.
    9000002   -1    0    0    0    0 -0.00000000000E+00 -0.00000000000E+00  0.00000000000E+00  0.93800000000E+00  0.93800000000E+00 0.  1.
         11    1    1    2    0    0 -0.25640961799E-02  0.86438070883E-01  0.22224342232E+00  0.23847539616E+00  0.51100000000E-03 0. -1.
    9000002    1    1    2    0    0 -0.12377984475E+00  0.36578561548E+00  0.13116046786E+00  0.10228233644E+01  0.93800000000E+00 0.  1.
         22    1    1    2    0    0  0.12634394093E+00 -0.45222368637E+00  0.36465960772E+01  0.36767012394E+01  0.00000000000E+00 0. -1.
</event>
<event>
 5    1  0.3005426E+001  0.1582649E+01  0.7818608E-02  0.3372413E+00
         11   -1    0    0    0    0  0.00000000000E+00  0.00000000000E+00  0.39999999674E+01  0.40000000000E+01  0.51100000000E-03 0. -1.
    9000002   -1    0    0    0    0 -0.00000000000E+00 -0.00000000000E+00  0.00000000000E+00  0.93800000000E+00  0.93800000000E+00 0.  1.
         11    1    1    2    0    0 -0.55877078293E-02 -0.12753840564E+00  0.84743401196E+00  0.85699587697E+00  0.51100000000E-03 0. -1.
    9000002    1    1    2    0    0  0.31216318724E+00  0.64641866139E-01  0.81504978408E-01  0.99403797102E+00  0.93800000000E+00 0.  1.
         22    1    1    2    0    0 -0.30657547941E+00  0.62896539501E-01  0.30710609770E+01  0.30869661520E+01  0.00000000000E+00 0. -1.
</event>
<event>
 5    1  0.3005426E+001  0.1555399E+01  0.7818608E-02  0.3403241E+00
         11   -1    0    0    0    0  0.00000000000E+00  0.00000000000E+00  0.39999999674E+01  0.40000000000E+01  0.51100000000E-03 0. -1.
    9000002   -1    0    0    0    0 -0.00000000000E+00 -0.00000000000E+00  0.00000000000E+00  0.93800000000E+00  0.93800000000E+00 0.  1.
         11    1    1    2    0    0 -0.15299702369E+00 -0.46582845973E-01  0.63836103464E+00  0.65809051236E+00  0.51100000000E-03 0. -1.
    9000002    1    1    2    0    0 -0.17928146405E+00  0.22551156330E-01  0.55317103628E-01  0.95684605865E+00  0.93800000000E+00 0.  1.
         22    1    1    2    0    0  0.33227848774E+00  0.24031689642E-01  0.33063218291E+01  0.33230634290E+01  0.00000000000E+00 0. -1.
</event>
<event>
 5    1  0.3005426E+001  0.1599673E+01  0.7818608E-02  0.3353719E+00
         11   -1    0    0    0    0  0.00000000000E+00  0.00000000000E+00  0.39999999674E+01  0.40000000000E+01  0.51100000000E-03 0.  1.
    9000002   -1    0    0    0    0 -0.00000000000E+00 -0.00000000000E+00  0.00000000000E+00  0.93800000000E+00  0.93800000000E+00 0.  1.
         11    1    1    2    0    0  0.15359517082E+00  0.12103716035E+00  0.13271248987E+01  0.13414552652E+01  0.51100000000E-03 0.  1.
    9000002    1    1    2    0    0 -0.44452771034E+00 -0.34428561774E+00  0.21887713177E+00  0.11152975705E+01  0.93800000000E+00 0.  1.
         22    1    1    2    0    0  0.29093253953E+00  0.22324845739E+00  0.24539979369E+01  0.24812471643E+01  0.00000000000E+00 0.  1.
</event>
<event>
 5    1  0.3005426E+001  0.1585402E+01  0.7818608E-02  0.3369361E+00
         11   -1    0    0    0    0  0.00000000000E+00  0.00000000000E+00  0.39999999674E+01  0.40000000000E+01  0.51100000000E-03 0.  1.
    9000002   -1    0    0    0    0 -0.00000000000E+00 -0.00000000000E+00  0.00000000000E+00  0.93800000000E+00  0.93800000000E+00 0.  1.
         11    1    1    2    0    0  0.37294272526E-01 -0.39699252099E-01  0.73624414159E+00  0.73825645309E+00  0.51100000000E-03 0.  1.
    9000002    1    1    2    0    0  0.30925462387E+00 -0.10437099789E+00  0.82674457570E-01  0.99659961545E+00  0.93800000000E+00 0.  1.
         22    1    1    2    0    0 -0.34654889640E+00  0.14407024999E+00  0.31810813682E+01  0.32031439315E+01  0.00000000000E+00 0.  1.
</event>
<event>
 5    1  0.3005426E+001  0.1599658E+01  0.7818608E-02  0.3353735E+00
         11   -1    0    0    0    0  0.00000000000E+00  0.00000000000E+00  0.39999999674E+01  0.40000000000E+01  0.51100000000E-03 0. -1.
    9000002   -1    0    0    0    0 -0.00000000000E+00 -0.00000000000E+00  0.00000000000E+00  0.93800000000E+00  0.93800000000E+00 0. -1.
         11    1    1    2    0    0  0.32158761245E-02 -0.13864102218E-01  0.16662286219E+00  0.16723036362E+00  0.51100000000E-03 0. -1.
    9000002    1    1    2    0    0 -0.43653706742E-01  0.36208510296E+00  0.89349076266E-01  0.10103655404E+01  0.93800000000E+00 0. -1.
         22    1    1    2    0    0  0.40437830617E-01 -0.34822100074E+00  0.37440280289E+01  0.37604040959E+01  0.00000000000E+00 0. -1.
</event>
<event>
 5    1  0.3005426E+001  0.1598690E+01  0.7818608E-02  0.3354786E+00
         11   -1    0    0    0    0  0.00000000000E+00  0.00000000000E+00  0.39999999674E+01  0.40000000000E+01  0.51100000000E-03 0. -1.
    9000002   -1    0    0    0    0 -0.00000000000E+00 -0.00000000000E+00  0.00000000000E+00  0.93800000000E+00  0.93800000000E+00 0.  1.
         11    1    1    2    0    0  0.19257077454E+00 -0.94561029726E-02  0.13577968196E+01  0.13714172908E+01  0.51100000000E-03 0. -1.
    9000002    1    1    2    0    0 -0.52957111746E+00  0.12734838042E+00  0.20562668372E+00  0.11039880033E+01  0.93800000000E+00 0.  1.
         22    1    1    2    0    0  0.33700034292E+00 -0.11789227744E+00  0.24365764640E+01  0.24625947059E+01  0.00000000000E+00 0. -1.
</event>
<event>
 5    1  0.3005426E+001  0.1599651E+01  0.7818608E-02  0.3353742E+00
         11   -1    0    0    0    0  0.00000000000E+00  0.00000000000E+00  0.39999999674E+01  0.40000000000E+01  0.51100000000E-03 0.  1.
    9000002   -1    0    0    0    0 -0.00000000000E+00 -0.00000000000E+00  0.00000000000E+00  0.93800000000E+00  0.93800000000E+00 0.  1.
         11    1    1    2    0    0  0.51554362376E-03  0.21596122097E-01  0.13551352784E+00  0.13722549189E+00  0.51100000000E-03 0.  1.
    9000002    1    1    2    0    0 -0.72738801846E-01 -0.57975587968E+00  0.23744147668E+00  0.11303230813E+01  0.93800000000E+00 0.  1.
         22    1    1    2    0    0  0.72223258222E-01  0.55815975758E+00  0.36270449628E+01  0.36704514268E+01  0.00000000000E+00 0.  1.
</event>
<event>
 5    1  0.3005426E+001  0.1599677E+01  0.7818608E-02  0.3353714E+00
         11   -1    0    0    0    0  0.00000000000E+00  0.00000000000E+00  0.39999999674E+01  0.40000000000E+01  0.51100000000E-03 0. -1.
    9000002   -1    0    0    0    0 -0.00000000000E+00 -0.00000000000E+00  0.00000000000E+00  0.93800000000E+00  0.93800000000E+00 0. -1.
         11    1    1    2    0    0  0.14309858351E+00 -0.11683702708E-01  0.12690240684E+01  0.12771202218E+01  0.51100000000E-03 0. -1.
    9000002    1    1    2    0    0 -0.43625012337E+00  0.33509181652E-01  0.12978651118E+00  0.10431325773E+01  0.93800000000E+00 0. -1.
         22    1    1    2    0    0  0.29315153986E+00 -0.21825478943E-01  0.26011893878E+01  0.26177472009E+01  0.00000000000E+00 0. -1.
</event>
<event>
 5    1  0.3005426E+001  0.1596706E+01  0.7818608E-02  0.3356946E+00
         11   -1    0    0    0    0  0.00000000000E+00  0.00000000000E+00  0.39999999674E+01  0.40000000000E+01  0.51100000000E-03 0. -1.
    9000002   -1    0    0    0    0 -0.00000000000E+00 -0.00000000000E+00  0.00000000000E+00  0.93800000000E+00  0.93800000000E+00 0. -1.
         11    1    1    2    0    0  0.94804600655E-01 -0.34682426423E-01  0.54172618066E+00  0.55105199296E+00  0.51100000000E-03 0. -1.
    9000002    1    1    2    0    0 -0.36378691534E+00  0.35461105138E+00  0.17961743264E+00  0.10817561369E+01  0.93800000000E+00 0. -1.
         22    1    1    2    0    0  0.26898231468E+00 -0.31992862496E+00  0.32786563541E+01  0.33051918702E+01  0.00000000000E+00 0. -1.
</event>
<event>
 5    1  0.3005426E+001  0.1599457E+01  0.7818608E-02  0.3353953E+00
         11   -1    0    0    0    0  0.00000000000E+00  0.00000000000E+00  0.39999999674E+01  0.40000000000E+01  0.51100000000E-03 0.  1.
    9000002   -1    0    0    0    0 -0.00000000000E+00 -0.00000000000E+00  0.00000000000E+00  0.93800000000E+00  0.93800000000E+00 0. -1.
         11    1    1    2    0    0 -0.51654530585E-01 -0.38640721858E-01  0.82058734669E+00  0.82311915941E+00  0.51100000000E-03 0.  1.
    9000002    1    1    2    0    0  0.25009498966E+00  0.25362760943E+00  0.85306984167E-01  0.10069735596E+01  0.93800000000E+00 0. -1.
         22    1    1    2    0    0 -0.19844045907E+00 -0.21498688757E+00  0.30941056365E+01  0.31079072810E+01  0.00000000000E+00 0.  1.
</event>
<event>
 5    1  0.3005426E+001  0.1594161E+01  0.7818608E-02  0.3359725E+00
         11   -1    0    0    0    0  0.00000000000E+00  0.00000000000E+00  0.39999999674E+01  0.40000000000E+01  0.51100000000E-03 0. -1.
    9000002   -1    0    0    0    0 -0.00000000000E+00 -0.00000000000E+00  0.00000000000E+00  0.93800000000E+00  0.93800000000E+00 0.  1.
         11    1    1    2    0    0 -0.34653649330E-01  0.14000043718E+00  0.66753282754E+00  0.68293582040E+00  0.51100000000E-03 0. -1.
    9000002    1    1    2    0    0 -0.35867824663E-01 -0.48869633847E+00  0.16903830120E+00  0.10716942471E+01  0.93800000000E+00 0.  1.
         22    1    1    2    0    0  0.70521473992E-01  0.34869590129E+00  0.31634288386E+01  0.31833699325E+01  0.00000000000E+00 0. -1.
</event>
<event>
 5    1  0.3655734E+001  0.1591055E+01  0.7818608E-02  0.3363130E+00
         11   -1    0    0    0    0  0.00000000000E+00  0.00000000000E+00  0.39999999674E+01  0.40000000000E+01  0.51100000000E-03 0.  1.
    9000002   -1    0    0    0    0 -0.00000000000E+00 -0.00000000000E+00  0.00000000000E+00  0.93800000000E+00  0.93800000000E+00 0.  1.
         11    1    1    2    0    0 -0.39845934219E-01  0.39943264685E-01  0.14304447880E+01  0.14315570948E+01  0.51100000000E-03 0.  1.
    9000002    1    1    2    0    0  0.10865991138E+00  0.18677830283E+00  0.37470471923E-01  0.96329701910E+00  0.93800000000E+00 0.  1.
         22    1    1    2    0    0 -0.68813977157E-01 -0.22672156752E+00  0.25320847074E+01  0.25431458861E+01  0.00000000000E+00 0.  1.
</event>
<event>
 5    1  0.3005426E+001  0.1578457E+01  0.7818608E-02  0.3377083E+00
         11   -1    0    0    0    0  0.00000000000E+00  0.00000000000E+00  0.39999999674E+01  0.40000000000E+01  0.51100000000E-03 0.  1.
    9000002   -1    0    0    0    0 -0.00000000000E+00 -0.00000000000E+00  0.00000000000E+00  0.93800000000E+00  0.93800000000E+00 0. -1.
         11    1    1    2    0    0 -0.63602883365E-01 -0.11581374328E+00  0.14760088524E+01  0.14819111119E+01  0.51100000000E-03 0.  1.
    9000002    1    1    2    0    0 -0.18918149890E+00  0.32597920373E-01  0.40415354476E-01  0.95829518668E+00  0.93800000000E+00 0. -1.
         22    1    1    2    0    0  0.25278438226E+00  0.83215822904E-01  0.24835757605E+01  0.24977937015E+01  0.00000000000E+00 0.  1.
</event>
<event>
 5    1  0.3005426E+001  0.1599675E+01  0.7818608E-02  0.3353716E+00
         11   -1    0    0    0    0  0.00000000000E+00  0.00000000000E+00  0.39999999674E+01  0.40000000000E+01  0.51100000000E-03 0. -1.
    9000002   -1    0    0    0    0 -0.00000000000E+00 -0.00000000000E+00  0.00000000000E+00  0.93800000000E+00  0.93800000000E+00 0. -1.
         11    1    1    2    0    0 -0.29184075264E-02 -0.10718691635E+00  0.11295838332E+01  0.11346618216E+01  0.51100000000E-03 0. -1.
    9000002    1    1    2    0    0  0.82093918966E-02  0.37577963757E+00  0.95011919742E-01  0.10149625584E+01  0.93800000000E+00 0. -1.
         22    1    1    2    0    0 -0.52909843702E-02 -0.26859272122E+00  0.27754042144E+01  0.27883756200E+01  0.00000000000E+00 0. -1.
</event>
<event>
 5    1  0.3005426E+001  0.1570881E+01  0.7818608E-02  0.3385588E+00
         11   -1    0    0    0    0  0.00000000000E+00  0.00000000000E+00  0.39999999674E+01  0.40000000000E+01  0.51100000000E-03 0. -1.
    9000002   -1    0    0    0    0 -0.00000000000E+00 -0.00000000000E+00  0.00000000000E+00  0.93800000000E+00  0.93800000000E+00 0. -1.
         11    1    1    2    0    0  0.15814644352E+00  0.11665037700E+00  0.12501593668E+01  0.12655102969E+01  0.51100000000E-03 0. -1.
    9000002    1    1    2    0    0  0.99739959165E-01 -0.40895134641E+00  0.14458942550E+00  0.10382385878E+01  0.93800000000E+00 0. -1.
         22    1    1    2    0    0 -0.25788640268E+00  0.29230096940E+00  0.26052511751E+01  0.26342511153E+01  0.00000000000E+00 0. -1.
</event>
<event>
 5    1  0.3005426E+001  0.1599173E+01  0.7818608E-02  0.3354261E+00
         11   -1    0    0    0    0  0.00000000000E+00  0.00000000000E+00  0.39999999674E+01  0.40000000000E+01  0.51100000000E-03 0.  1.
    9000002   -1    0    0    0    0 -0.00000000000E+00 -0.00000000000E+00  0.00000000000E+00  0.93800000000E+00  0.93800000000E+00 0. -1.
         11    1    1    2    0    0 -0.10977909432E+00  0.91939585041E-01  0.10765798947E+01  0.10860611713E+01  0.51100000000E-03 0.  1.
    9000002    1    1    2    0    0  0.33749352894E+00 -0.26489485773E+00  0.12507100607E+00  0.10390177690E+01  0.93800000000E+00 0. -1.
         22    1    1    2    0    0 -0.22771443462E+00  0.17295527269E+00  0.27983490665E+01  0.28129210597E+01  0.00000000000E+00 0.  1.
</event>
<event>
 5    1  0.3005426E+001  0.1596492E+01  0.7818608E-02  0.3357180E+00
         11   -1    0    0    0    0  0.00000000000E+00  0.00000000000E+00  0.39999999674E+01  0.40000000000E+01  0.51100000000E-03 0. -1.
    9000002   -1    0    0    0    0 -0.00000000000E+00 -0.00000000000E+00  0.00000000000E+00  0.93800000000E+00  0.93800000000E+00 0. -1.
         11    1    1    2    0    0 -0.14055821413E+00 -0.19269947492E-01  0.62823820583E+00  0.64405857406E+00  0.51100000000E-03 0. -1.
    9000002    1    1    2    0    0  0.58520028436E+00  0.29478236912E+00  0.30674004597E+00  0.11846051974E+01  0.93800000000E+00 0. -1.
         22    1    1    2    0    0 -0.44464207023E+00 -0.27551242163E+00  0.30650217156E+01  0.31093362285E+01  0.00000000000E+00 0. -1.
</event>
<event>
 5    1  0.3005426E+001  0.1599677E+01  0.7818608E-02  0.3353714E+00
         11   -1    0    0    0    0  0.00000000000E+00  0.00000000000E+00  0.39999999674E+01  0.40000000000E+01  0.51100000000E-03 0. -1.
    9000002   -1    0    0    0    0 -0.00000000000E+00 -0.00000000000E+00  0.00000000000E+00  0.93800000000E+00  0.93800000000E+00 0. -1.
         11    1    1    2    0    0  0.16794617160E+00  0.79676867091E-01  0.14670937127E+01  0.14788233642E+01  0.51100000000E-03 0. -1.
    9000002    1    1    2    0    0 -0.43887709958E+00 -0.20666765922E+00  0.16069835454E+00  0.10681725474E+01  0.93800000000E+00 0. -1.
         22    1    1    2    0    0  0.27093092798E+00  0.12699079213E+00  0.23722079002E+01  0.23910040884E+01  0.00000000000E+00 0. -1.
</event>
<event>
 5    1  0.3005426E+001  0.1599676E+01  0.7818608E-02  0.3353715E+00
         11   -1    0    0    0    0  0.00000000000E+00  0.00000000000E+00  0.39999999674E+01  0.40000000000E+01  0.51100000000E-03 0. -1.
    9000002   -1    0    0    0    0 -0.00000000000E+00 -0.00000000000E+00  0.00000000000E+00  0.93800000000E+00  0.93800000000E+00 0. -1.
         11    1    1    2    0    0 -0.13016860063E+00  0.13552627800E+00  0.75803061795E+00  0.78097497751E+00  0.51100000000E-03 0. -1.
    9000002    1    1    2    0    0  0.59524534182E+00 -0.61347876585E+00  0.54901814957E+00  0.13827285134E+01  0.93800000000E+00 0. -1.
         22    1    1    2    0    0 -0.46507674120E+00  0.47795248786E+00  0.26929511998E+01  0.27742965091E+01  0.00000000000E+00 0. -1.
</event>
<event>
 5    1  0.3005426E+001  0.1569523E+01  0.7818608E-02  0.3387121E+00
         11   -1    0    0    0    0  0.00000000000E+00  0.00000000000E+00  0.39999999674E+01  0.40000000000E+01  0.51100000000E-03 0.  1.
    9000002   -1    0    0    0    0 -0.00000000000E+00 -0.00000000000E+00  0.00000000000E+00  0.93800000000E+00  0.93800000000E+00 0.  1.
         11    1    1    2    0    0  0.36699610183E-01  0.27132639658E+00  0.13354777089E+01  0.13632556059E+01  0.51100000000E-03 0.  1.
    9000002    1    1    2    0    0 -0.33483983533E+00 -0.25564842164E+00  0.14598203248E+00  0.10385704524E+01  0.93800000000E+00 0.  1.
         22    1    1    2    0    0  0.29814022515E+00 -0.15677974932E-01  0.25185402259E+01  0.25361739417E+01  0.00000000000E+00 0. -1.
</event>
<event>
 5    1  0.3005426E+001  0.1599499E+01  0.7818608E-02  0.3353908E+00
         11   -1    0    0    0    0  0.00000000000E+00  0.00000000000E+00  0.39999999674E+01  0.40000000000E+01  0.51100000000E-03 0. -1.
    9000002   -1    0    0    0    0 -0.00000000000E+00 -0.00000000000E+00  0.00000000000E+00  0.93800000000E+00  0.93800000000E+00 0.  1.
         11    1    1    2    0    0 -0.11386744535E+00 -0.84751745727E-01  0.10828680539E+01  0.10921319228E+01  0.51100000000E-03 0. -1.
    9000002    1    1    2    0    0  0.37534180602E+00  0.25999763329E+00  0.14189038924E+00  0.10528329037E+01  0.93800000000E+00 0.  1.
         22    1    1    2    0    0 -0.26147436067E+00 -0.17524588756E+00  0.27752415243E+01  0.27930351735E+01  0.00000000000E+00 0. -1.
</event>
<event>
 5    1  0.3005426E+001  0.1598990E+01  0.7818608E-02  0.3354460E+00
         11   -1    0    0    0    0  0.00000000000E+00  0.00000000000E+00  0.39999999674E+01  0.40000000000E+01  0.51100000000E-03 0.  1.
    9000002   -1    0    0    0    0 -0.00000000000E+00 -0.00000000000E+00  0.00000000000E+00  0.93800000000E+00  0.93800000000E+00 0.  1.
         11    1    1    2    0    0  0.96322767624E-01  0.89064079496E-01  0.13699644930E+01  0.13762316154E+01  0.51100000000E-03 0.  1.
    9000002    1    1    2    0    0 -0.35614116749E+00 -0.26528300235E+00  0.13441750015E+00  0.10464815655E+01  0.93800000000E+00 0.  1.
         22    1    1    2    0    0  0.25981839987E+00  0.17621892286E+00  0.24956179742E+01  0.25152868192E+01  0.00000000000E+00 0.  1.
</event>
<event>
 5    1  0.3005426E+001  0.1595199E+01  0.7818608E-02  0.3358590E+00
         11   -1    0    0    0    0  0.00000000000E+00  0.00000000000E+00  0.39999999674E+01  0.40000000000E+01  0.51100000000E-03 0. -1.
    9000002   -1    0    0    0    0 -0.00000000000E+00 -0.00000000000E+00  0.00000000000E+00  0.93800000000E+00  0.93800000000E+00 0. -1.
         11    1    1    2    0    0 -0.80744114394E-01 -0.16124097787E+00  0.13167875114E+01  0.13290778293E+01  0.51100000000E-03 0. -1.
    9000002    1    1    2    0    0  0.30957504467E+00  0.26213406469E+00  0.11482394816E+00  0.10283868510E+01  0.93800000000E+00 0. -1.
         22    1    1    2    0    0 -0.22883093028E+00 -0.10089308682E+00  0.25683885078E+01  0.25805353198E+01  0.00000000000E+00 0. -1.
</event>
<event>
 5    1  0.3005426E+001  0.1586712E+01  0.7818608E-02  0.3367913E+00
         11   -1    0    0    0    0  0.00000000000E+00  0.00000000000E+00  0.39999999674E+01  0.40000000000E+01  0.51100000000E-03 0. -1.
    9000002   -1    0    0    0    0 -0.00000000000E+00 -0.00000000000E+00  0.00000000000E+00  0.93800000000E+00  0.93800000000E+00 0. -1.
         11    1    1    2    0    0 -0.11794208161E+00  0.54921034584E-01  0.82071783752E+00  0.83096611519E+00  0.51100000000E-03 0. -1.
    9000002    1    1    2    0    0  0.66484176260E-01 -0.45870781794E+00  0.15761585615E+00  0.10580736109E+01  0.93800000000E+00 0. -1.
         22    1    1    2    0    0  0.51457905345E-01  0.40378678336E+00  0.30216662737E+01  0.30489602739E+01  0.00000000000E+00 0. -1.
</event>
<event>
 5    1  0.3005426E+001  0.1599671E+01  0.7818608E-02  0.3353721E+00
         11   -1    0    0    0    0  0.00000000000E+00  0.00000000000E+00  0.39999999674E+01  0.40000000000E+01  0.51100000000E-03 0. -1.
    9000002   -1    0    0    0    0 -0.00000000000E+00 -0.00000000000E+00  0.00000000000E+00  0.93800000000E+00  0.93800000000E+00 0.  1.
         11    1    1    2    0    0 -0.30639461735E-01 -0.27993045572E-01  0.37172187774E+00  0.37403182047E+00  0.51100000000E-03 0. -1.
    9000002    1    1    2    0    0  0.32864165007E+00  0.27605417319E+00  0.12474617665E+00  0.10390461247E+01  0.93800000000E+00 0.  1.
         22    1    1    2    0    0 -0.29800218833E+00 -0.24806112762E+00  0.35035319130E+01  0.35249220548E+01  0.00000000000E+00 0. -1.
</event>
<event>
 5    1  0.3005426E+001  0.1592560E+01  0.7818608E-02  0.3361478E+00
         11   -1    0    0    0    0  0.00000000000E+00  0.00000000000E+00  0.39999999674E+01  0.40000000000E+01  0.51100000000E-03 0. -1.
    9000002   -1    0    0    0    0 -0.00000000000E+00 -0.00000000000E+00  0.00000000000E+00  0.93800000000E+00  0.93800000000E+00 0.  1.
         11    1    1    2    0    0  0.78058924653E-02  0.19755493821E+00  0.89324428199E+00  0.91486310123E+00  0.51100000000E-03 0. -1.
    9000002    1    1    2    0    0  0.26440484334E-01 -0.48028079308E+00  0.16422483980E+00  0.10668563809E+01  0.93800000000E+00 0.  1.
         22    1    1    2    0    0 -0.34246376799E-01  0.28272585487E+00  0.29425308456E+01  0.29562805179E+01  0.00000000000E+00 0. -1.
</event>
<event>
 5    1  0.3005426E+001  0.1599578E+01  0.7818608E-02  0.3353822E+00
         11   -1    0    0    0    0  0.00000000000E+00  0.00000000000E+00  0.39999999674E+01  0.40000000000E+01  0.51100000000E-03 0.  1.
    9000002   -1    0    0    0    0 -0.00000000000E+00 -0.00000000000E+00  0.00000000000E+00  0.93800000000E+00  0.93800000000E+00 0. -1.
         11    1    1    2    0    0  0.39606615962E-01 -0.60207267493E-01  0.60396888885E+00  0.60825346601E+00  0.51100000000E-03 0.  1.
    9000002    1    1    2    0    0 -0.19855265193E+00  0.39419627322E+00  0.13223349693E+00  0.10450567234E+01  0.93800000000E+00 0. -1.
         22    1    1    2    0    0  0.15894603597E+00 -0.33398900573E+00  0.32637975816E+01  0.32846898106E+01  0.00000000000E+00 0.  1.
</event>
<event>
 5    1  0.3005426E+001  0.1599539E+01  0.7818608E-02  0.3353864E+00
         11   -1    0    0    0    0  0.00000000000E+00  0.00000000000E+00  0.39999999674E+01  0.40000000000E+01  0.51100000000E-03 0.  1.
    9000002   -1    0    0    0    0 -0.00000000000E+00 -0.00000000000E+00  0.00000000000E+00  0.93800000000E+00  0.93800000000E+00 0.  1.
         11    1    1    2    0    0 -0.10814572069E+00 -0.21231139951E-01  0.87045089927E+00  0.87740030053E+00  0.51100000000E-03 0.  1.
    9000002    1    1    2    0    0  0.45562889032E+00  0.14120279920E+00  0.15530020681E+00  0.10637189809E+01  0.93800000000E+00 0.  1.
         22    1    1    2    0    0 -0.34748316963E+00 -0.11997165925E+00  0.29742488613E+01  0.29968807185E+01  0.00000000000E+00 0.  1.
</event>
<event>
 5    1  0.3005426E+001  0.1598977E+01  0.7818608E-02  0.3354474E+00
         11   -1    0    0    0    0  0.00000000000E+00  0.00000000000E+00  0.39999999674E+01  0.40000000000E+01  0.51100000000E-03 0. -1.
    9000002   -1    0    0    0    0 -0.00000000000E+00 -0.00000000000E+00  0.00000000000E+00  0.93800000000E+00  0.93800000000E+00 0. -1.
         11    1    1    2    0    0 -0.11196669154E+00  0.84196012832E-01  0.39917756863E+00  0.42304668892E+00  0.51100000000E-03 0. -1.
    9000002    1    1    2    0    0  0.78373854231E+00 -0.56589563803E+00  0.73949429247E+00  0.15366130887E+01  0.93800000000E+00 0. -1.
         22    1    1    2    0    0 -0.67177185078E+00  0.48169962520E+00  0.28613281063E+01  0.29783402224E+01  0.00000000000E+00 0. -1.
</event>
<event>
 5    1  0.3005426E+001  0.1590695E+01  0.7818608E-02  0.3363525E+00
         11   -1    0    0    0    0  0.00000000000E+00  0.00000000000E+00  0.39999999674E+01  0.40000000000E+01  0.51100000000E-03 0.  1.
    9000002   -1    0    0    0    0 -0.00000000000E+00 -0.00000000000E+00  0.00000000000E+00  0.93800000000E+00  0.93800000000E+00 0.  1.
         11    1    1    2    0    0  0.50705662708E-01  0.15005559380E+00  0.11948416239E+01  0.12052943677E+01  0.51100000000E-03 0.  1.
    9000002    1    1    2    0    0 -0.40492155308E+00 -0.24432848386E+00  0.16038181743E+00  0.10626496128E+01  0.93800000000E+00 0.  1.
         22    1    1    2    0    0  0.35421589037E+00  0.94272890061E-01  0.26447765260E+01  0.26700560195E+01  0.00000000000E+00 0.  1.
</event>
<event>
 5    1  0.3005426E+001  0.1587858E+01  0.7818608E-02  0.3366649E+00
         11   -1    0    0    0    0  0.00000000000E+00  0.00000000000E+00  0.39999999674E+01  0.40000000000E+01  0.51100000000E-03 0. -1.
    9000002   -1    0    0    0    0 -0.00000000000E+00 -0.00000000000E+00  0.00000000000E+00  0.93800000000E+00  0.93800000000E+00 0.  1.
         11    1    1    2    0    0  0.54676481678E-01  0.29710994339E-01  0.10901356436E+01  0.10919103641E+01  0.51100000000E-03 0. -1.
    9000002    1    1    2    0    0  0.55065526237E-01  0.23235292946E+00  0.46890030563E-01  0.96905251198E+00  0.93800000000E+00 0.  1.
         22    1    1    2    0    0 -0.10974200791E+00 -0.26206392380E+00  0.28629742932E+01  0.28770371239E+01  0.00000000000E+00 0.  1.
</event>
<event>
 5    1  0.3005426E+001  0.1592499E+01  0.7818608E-02  0.3361545E+00
         11   -1    0    0    0    0  0.00000000000E+00  0.00000000000E+00  0.39999999674E+01  0.40000000000E+01  0.51100000000E-03 0.  1.
    9000002   -1    0    0    0    0 -0.00000000000E+00 -0.00000000000E+00  0.00000000000E+00  0.93800000000E+00  0.93800000000E+00 0.  1.
         11    1    1    2    0    0  0.91958705920E-01  0.54248132659E-01  0.13462727619E+01  0.13504998608E+01  0.51100000000E-03 0.  1.
    9000002    1    1    2    0    0 -0.30063908655E+00  0.12217495735E+00  0.76136988274E-01  0.99546542961E+00  0.93800000000E+00 0.  1.
         22    1    1    2    0    0  0.20868038063E+00 -0.17642309001E+00  0.25775902172E+01  0.25920347096E+01  0.00000000000E+00 0.  1.
</event>
<event>
 5    1  0.3005426E+001  0.1599669E+01  0.7818608E-02  0.3353722E+00
         11   -1    0    0    0    0  0.00000000000E+00  0.00000000000E+00  0.39999999674E+01  0.40000000000E+01  0.51100000000E-03 0.  1.
    9000002   -1    0    0    0    0 -0.00000000000E+00 -0.00000000000E+00  0.00000000000E+00  0.93800000000E+00  0.93800000000E+00 0.  1.
         11    1    1    2    0    0  0.17337183070E+00 -0.10782237057E+00  0.88698830798E+00  0.91018238551E+00  0.51100000000E-03 0.  1.
    9000002    1    1    2    0    0 -0.67829393752E+00  0.42563984416E+00  0.47249488227E+00  0.13207374290E+01  0.93800000000E+00 0.  1.
         22    1    1    2    0    0  0.50492210681E+00 -0.31781747359E+00  0.26405167771E+01  0.27070801855E+01  0.00000000000E+00 0.  1.
</event>
<event>
 5    1  0.3005426E+001  0.1599671E+01  0.7818608E-02  0.3353721E+00
         11   -1    0    0    0    0  0.00000000000E+00  0.00000000000E+00  0.39999999674E+01  0.40000000000E+01  0.51100000000E-03 0. -1.
    9000002   -1    0    0    0    0 -0.00000000000E+00 -0.00000000000E+00  0.00000000000E+00  0.93800000000E+00  0.93800000000E+00 0. -1.
         11    1    1    2    0    0  0.10082026518E+00  0.95669310181E-01  0.13359895856E+01  0.13431998275E+01  0.51100000000E-03 0. -1.
    9000002    1    1    2    0    0 -0.28568600488E+00 -0.28090986349E+00  0.10829289986E+00  0.10257183809E+01  0.93800000000E+00 0. -1.
         22    1    1    2    0    0  0.18486573970E+00  0.18524055331E+00  0.25557174819E+01  0.25690817916E+01  0.00000000000E+00 0. -1.
</event>
<event>
 5    1  0.3005426E+001  0.1599436E+01  0.7818608E-02  0.3353976E+00
         11   -1    0    0    0    0  0.00000000000E+00  0.00000000000E+00  0.39999999674E+01  0.40000000000E+01  0.51100000000E-03 0.  1.
    9000002   -1    0    0    0    0 -0.00000000000E+00 -0.00000000000E+00  0.00000000000E+00  0.93800000000E+00  0.93800000000E+00 0. -1.
         11    1    1    2    0    0  0.89249590574E-01 -0.54425794617E-01  0.58144290066E+00  0.59076540554E+00  0.51100000000E-03 0.  1.
    9000002    1    1    2    0    0 -0.49728025285E+00  0.39478043188E+00  0.28371500022E+00  0.11676803675E+01  0.93800000000E+00 0. -1.
         22    1    1    2    0    0  0.40803066227E+00 -0.34035463727E+00  0.31348420665E+01  0.31795542270E+01  0.00000000000E+00 0.  1.
</event>
<event>
 5    1  0.3005426E+001  0.1599676E+01  0.7818608E-02  0.3353715E+00
         11   -1    0    0    0    0  0.00000000000E+00  0.00000000000E+00  0.39999999674E+01  0.40000000000E+01  0.51100000000E-03 0. -1.
    9000002   -1    0    0    0    0 -0.00000000000E+00 -0.00000000000E+00  0.00000000000E+00  0.93800000000E+00  0.93800000000E+00 0.  1.
         11    1    1    2    0    0  0.51403896076E-01  0.15676464140E+00  0.13715918603E+01  0.13814781959E+01  0.51100000000E-03 0. -1.
    9000002    1    1    2    0    0 -0.14187626308E+00 -0.44058466968E+00  0.14579263239E+00  0.10560981095E+01  0.93800000000E+00 0.  1.
         22    1    1    2    0    0  0.90472367004E-01  0.28382002828E+00  0.24826154747E+01  0.25004236946E+01  0.00000000000E+00 0. -1.
</event>
<event>
 5    1  0.3005426E+001  0.1599434E+01  0.7818608E-02  0.3353978E+00
         11   -1    0    0    0    0  0.00000000000E+00  0.00000000000E+00  0.39999999674E+01  0.40000000000E+01  0.51100000000E-03 0. -1.
    9000002   -1    0    0    0    0 -0.00000000000E+00 -0.00000000000E+00  0.00000000000E+00  0.93800000000E+00  0.93800000000E+00 0.  1.
         11    1    1    2    0    0  0.20433096854E-01  0.59058105168E-01  0.70361403062E+00  0.70638398653E+00  0.51100000000E-03 0. -1.
    9000002    1    1    2    0    0 -0.15698662406E+00 -0.39226906261E+00  0.12098078176E+00  0.10358572137E+01  0.93800000000E+00 0.  1.
         22    1    1    2    0    0  0.13655352721E+00  0.33321095745E+00  0.31754051550E+01  0.31957587998E+01  0.00000000000E+00 0. -1.
</event>
<event>
 5    1  0.3005426E+001  0.1540705E+01  0.7818608E-02  0.3420347E+00
         11   -1    0    0    0    0  0.00000000000E+00  0.00000000000E+00  0.39999999674E+01  0.40000000000E+01  0.51100000000E-03 0. -1.
    9000002   -1    0    0    0    0 -0.00000000000E+00 -0.00000000000E+00  0.00000000000E+00  0.93800000000E+00  0.93800000000E+00 0. -1.
         11    1    1    2    0    0 -0.14628624410E-02 -0.38049438634E+00  0.68082081059E+00  0.77993291715E+00  0.51100000000E-03 0. -1.
    9000002    1    1    2    0    0  0.28379070565E+00  0.73123443933E+00  0.52979818587E+00  0.13325806121E+01  0.93800000000E+00 0. -1.
         22    1    1    2    0    0 -0.28232784321E+00 -0.35074005299E+00  0.27893809709E+01  0.28254864708E+01  0.00000000000E+00 0. -1.
</event>
<event>
 5    1  0.3005426E+001  0.1599405E+01  0.7818608E-02  0.3354009E+00
         11   -1    0    0    0    0  0.00000000000E+00  0.00000000000E+00  0.39999999674E+01  0.40000000000E+01  0.51100000000E-03 0.  1.
    9000002   -1    0    0    0    0 -0.00000000000E+00 -0.00000000000E+00  0.00000000000E+00  0.93800000000E+00  0.93800000000E+00 0. -1.
         11    1    1    2    0    0 -0.13861142849E-02 -0.13182937136E+00  0.10998684142E+01  0.11077417091E+01  0.51100000000E-03 0.  1.
    9000002    1    1    2    0    0  0.50558654605E-01  0.42109557047E+00  0.12195086275E+00  0.10366260994E+01  0.93800000000E+00 0. -1.
         22    1    1    2    0    0 -0.49172540320E-01 -0.28926619910E+00  0.27781806904E+01  0.27936321915E+01  0.00000000000E+00 0.  1.
</event>
<event>
 5    1  0.3005426E+001  0.1596996E+01  0.7818608E-02  0.3356630E+00
         11   -1    0    0    0    0  0.00000000000E+00  0.00000000000E+00  0.39999999674E+01  0.40000000000E+01  0.51100000000E-03 0. -1.
    9000002   -1    0    0    0    0 -0.00000000000E+00 -0.00000000000E+00  0.00000000000E+00  0.93800000000E+00  0.93800000000E+00 0.  1.
         11    1    1    2    0    0 -0.64449253896E-01  0.20781554144E-01  0.13352255136E+01  0.13369416639E+01  0.51100000000E-03 0. -1.
    9000002    1    1    2    0    0  0.34106188668E+00 -0.14342163883E+00  0.94186127361E-01  0.10127230636E+01  0.93800000000E+00 0.  1.
         22    1    1    2    0    0 -0.27661263279E+00  0.12264008469E+00  0.25705883264E+01  0.25883352725E+01  0.00000000000E+00 0. -1.
</event>
<event>
 5    1  0.3005426E+001  0.1599675E+01  0.7818608E-02  0.3353716E+00
         11   -1    0    0    0    0  0.00000000000E+00  0.00000000000E+00  0.39999999674E+01  0.40000000000E+01  0.51100000000E-03 0. -1.
    9000002   -1    0    0    0    0 -0.00000000000E+00 -0.00000000000E+00  0.00000000000E+00  0.93800000000E+00  0.93800000000E+00 0.  1.
         11    1    1    2    0    0 -0.15325036257E+00 -0.68039032895E-01  0.10887112522E+01  0.11015477454E+01  0.51100000000E-03 0. -1.
    9000002    1    1    2    0    0  0.53215216372E+00  0.23066464819E+00  0.23372382301E+00  0.11273255655E+01  0.93800000000E+00 0.  1.
         22    1    1    2    0    0 -0.37890180115E+00 -0.16262561529E+00  0.26775648921E+01  0.27091266890E+01  0.00000000000E+00 0. -1.
</event>
<event>
 5    1  0.3005426E+001  0.1597789E+01  0.7818608E-02  0.3355766E+00
         11   -1    0    0    0    0  0.00000000000E+00  0.00000000000E+00  0.39999999674E+01  0.40000000000E+01  0.51100000000E-03 0. -1.
    9000002   -1    0    0    0    0 -0.00000000000E+00 -0.00000000000E+00  0.00000000000E+00  0.93800000000E+00  0.93800000000E+00 0.  1.
         11    1    1    2    0    0 -0.10006492897E+00 -0.15968477987E+00  0.11025383143E+01  0.11185272525E+01  0.51100000000E-03 0. -1.
    9000002    1    1    2    0    0  0.36086625387E+00  0.38728954426E+00  0.19455656424E+00  0.10944925313E+01  0.93800000000E+00 0.  1.
         22    1    1    2    0    0 -0.26080132490E+00 -0.22760476439E+00  0.27029050888E+01  0.27249802162E+01  0.00000000000E+00 0. -1.
</event>
<event>
 5    1  0.3005426E+001  0.1599671E+01  0.7818608E-02  0.3353720E+00
         11   -1    0    0    0    0  0.00000000000E+00  0.00000000000E+00  0.39999999674E+01  0.40000000000E+01  0.51100000000E-03 0. -1.
    9000002   -1    0    0    0    0 -0.00000000000E+00 -0.00000000000E+00  0.00000000000E+00  0.93800000000E+00  0.93800000000E+00 0. -1.
         11    1    1    2    0    0  0.63513771474E-01  0.72359753008E-01  0.58749411852E+00  0.59533144839E+00  0.51100000000E-03 0. -1.
    9000002    1    1    2    0    0 -0.40125205095E+00 -0.47250722128E+00  0.26927703527E+00  0.11561230057E+01  0.93800000000E+00 0. -1.
         22    1    1    2    0    0  0.33773827948E+00  0.40014746827E+00  0.31432288136E+01  0.31865455459E+01  0.00000000000E+00 0. -1.
</event>
<event>
 5    1  0.3005426E+001  0.1596384E+01  0.7818608E-02  0.3357298E+00
         11   -1    0    0    0    0  0.00000000000E+00  0.00000000000E+00  0.39999999674E+01  0.40000000000E+01  0.51100000000E-03 0. -1.
    9000002   -1    0    0    0    0 -0.00000000000E+00 -0.00000000000E+00  0.00000000000E+00  0.93800000000E+00  0.93800000000E+00 0. -1.
         11    1    1    2    0    0 -0.21425259288E+00 -0.18618872011E+00  0.14640245488E+01  0.14912875489E+01  0.51100000000E-03 0. -1.
    9000002    1    1    2    0    0  0.41137469979E+00  0.37722012063E+00  0.21864641380E+00  0.11131821133E+01  0.93800000000E+00 0. -1.
         22    1    1    2    0    0 -0.19712210691E+00 -0.19103140052E+00  0.23173290048E+01  0.23335303378E+01  0.00000000000E+00 0. -1.
</event>
<event>
 5    1  0.3005426E+001  0.1599676E+01  0.7818608E-02  0.3353715E+00
         11   -1    0    0    0    0  0.00000000000E+00  0.00000000000E+00  0.39999999674E+01  0.40000000000E+01  0.51100000000E-03 0.  1.
    9000002   -1    0    0    0    0 -0.00000000000E+00 -0.00000000000E+00  0.00000000000E+00  0.93800000000E+00  0.93800000000E+00 0.  1.
         11    1    1    2    0    0 -0.69413916983E-01  0.13058615241E+00  0.13621618524E+01  0.13701664892E+01  0.51100000000E-03 0.  1.
    9000002    1    1    2    0    0  0.19910986658E+00 -0.37397933210E+00  0.12146178763E+00  0.10363890417E+01  0.93800000000E+00 0.  1.
         22    1    1    2    0    0 -0.12969594960E+00  0.24339317969E+00  0.25163763274E+01  0.25314444691E+01  0.00000000000E+00 0.  1.
</event>
<event>
 5    1  0.3005426E+001  0.1560937E+01  0.7818608E-02  0.3396884E+00
         11   -1    0    0    0    0  0.00000000000E+00  0.00000000000E+00  0.39999999674E+01  0.40000000000E+01  0.51100000000E-03 0.  1.
    9000002   -1    0    0    0    0 -0.00000000000E+00 -0.00000000000E+00  0.00000000000E+00  0.93800000000E+00  0.93800000000E+00 0.  1.
         11    1    1    2    0    0 -0.78448725151E-01 -0.50275143136E-01  0.17094985342E+00  0.19469439129E+00  0.51100000000E-03 0.  1.
    9000002    1    1    2    0    0 -0.28580174233E+00  0.22370563935E+00  0.12059705425E+00  0.10129730986E+01  0.93800000000E+00 0.  1.
         22    1    1    2    0    0  0.36425046748E+00 -0.17343049621E+00  0.37084530597E+01  0.37303325101E+01  0.00000000000E+00 0.  1.
</event>
<event>
 5    1  0.3005426E+001  0.1599636E+01  0.7818608E-02  0.3353759E+00
         11   -1    0    0    0    0  0.00000000000E+00  0.00000000000E+00  0.39999999674E+01  0.40000000000E+01  0.51100000000E-03 0. -1.
    9000002   -1    0    0    0    0 -0.00000000000E+00 -0.00000000000E+00  0.00000000000E+00  0.93800000000E+00  0.93800000000E+00 0. -1.
         11    1    1    2    0    0 -0.24192422049E-01  0.55753314411E-01  0.51682158941E+00  0.52038305291E+00  0.51100000000E-03 0. -1.
    9000002    1    1    2    0    0  0.21354502786E+00 -0.43440918937E+00  0.16001685010E+00  0.10675964664E+01  0.93800000000E+00 0. -1.
         22    1    1    2    0    0 -0.18935260582E+00  0.37865587496E+00  0.33231615278E+01  0.33500204807E+01  0.00000000000E+00 0. -1.
</event>
<event>
 5    1  0.3005426E+001  0.1595468E+01  0.7818608E-02  0.3358297E+00
         11   -1    0    0    0    0  0.00000000000E+00  0.00000000000E+00  0.39999999674E+01  0.40000000000E+01  0.51100000000E-03 0.  1.
    9000002   -1    0    0    0    0 -0.00000000000E+00 -0.00000000000E+00  0.00000000000E+00  0.93800000000E+00  0.93800000000E+00 0.  1.
         11    1    1    2    0    0  0.18725106918E-01  0.80814949412E-02  0.79599913013E-01  0.82172668584E-01  0.51100000000E-03 0.  1.
    9000002    1    1    2    0    0 -0.17570984733E+00  0.40119038137E+00  0.13366941483E+00  0.10438099372E+01  0.93800000000E+00 0.  1.
         22    1    1    2    0    0  0.15698474041E+00 -0.40927187631E+00  0.37867306395E+01  0.38120173942E+01  0.00000000000E+00 0.  1.
</event>
<event>
 5    1  0.3005426E+001  0.1599656E+01  0.7818608E-02  0.3353737E+00
         11   -1    0    0    0    0  0.00000000000E+00  0.00000000000E+00  0.39999999674E+01  0.40000000000E+01  0.51100000000E-03 0.  1.
    9000002   -1    0    0    0    0 -0.00000000000E+00 -0.00000000000E+00  0.00000000000E+00  0.93800000000E+00  0.93800000000E+00 0.  1.
         11    1    1    2    0    0  0.59314584634E-02  0.31806758784E-01  0.31083481307E+00  0.31251463044E+00  0.51100000000E-03 0.  1.
    9000002    1    1    2    0    0 -0.77061686075E-01 -0.43298222133E+00  0.13118550785E+00  0.10442536784E+01  0.93800000000E+00 0.  1.
         22    1    1    2    0    0  0.71130227612E-01  0.40117546254E+00  0.35579796464E+01  0.35812316911E+01  0.00000000000E+00 0.  1.
</event>
<event>
 5    1  0.3005426E+001  0.1599674E+01  0.7818608E-02  0.3353717E+00
         11   -1    0    0    0    0  0.00000000000E+00  0.00000000000E+00  0.39999999674E+01  0.40000000000E+01  0.51100000000E-03 0.  1.
    9000002   -1    0    0    0    0 -0.00000000000E+00 -0.00000000000E+00  0.00000000000E+00  0.93800000000E+00  0.93800000000E+00 0. -1.
         11    1    1    2    0    0 -0.70495354774E-01  0.67275921535E-01  0.10412889590E+01  0.10458387075E+01  0.51100000000E-03 0.  1.
    9000002    1    1    2    0    0  0.27002768081E+00 -0.25569807876E+00  0.92963291377E-01  0.10133028320E+01  0.93800000000E+00 0. -1.
         22    1    1    2    0    0 -0.19953232604E+00  0.18842215722E+00  0.28657477169E+01  0.28788584605E+01  0.00000000000E+00 0. -1.
</event>
<event>
 5    1  0.3005426E+001  0.1599673E+01  0.7818608E-02  0.3353718E+00
         11   -1    0    0    0    0  0.00000000000E+00  0.00000000000E+00  0.39999999674E+01  0.40000000000E+01  0.51100000000E-03 0.  1.
    9000002   -1    0    0    0    0 -0.00000000000E+00 -0.00000000000E+00  0.00000000000E+00  0.93800000000E+00  0.93800000000E+00 0. -1.
         11    1    1    2    0    0  0.61336922132E-01 -0.17838587815E-01  0.66461784147E+00  0.66768073924E+00  0.51100000000E-03 0.  1.
    9000002    1    1    2    0    0 -0.35602854805E+00  0.11425969923E+00  0.94005502647E-01  0.10141462619E+01  0.93800000000E+00 0. -1.
         22    1    1    2    0    0  0.29469162592E+00 -0.96421111420E-01  0.32413766232E+01  0.32561729989E+01  0.00000000000E+00 0.  1.
</event>
<event>
 5    1  0.3005426E+001  0.1590734E+01  0.7818608E-02  0.3363482E+00
         11   -1    0    0    0    0  0.00000000000E+00  0.00000000000E+00  0.39999999674E+01  0.40000000000E+01  0.51100000000E-03 0.  1.
    9000002   -1    0    0    0    0 -0.00000000000E+00 -0.00000000000E+00  0.00000000000E+00  0.93800000000E+00  0.93800000000E+00 0.  1.
         11    1    1    2    0    0  0.47674626039E-02  0.92411836224E-01  0.28973616798E+00  0.30415454021E+00  0.51100000000E-03 0.  1.
    9000002    1    1    2    0    0  0.36909108374E+00 -0.51807864496E+00  0.29391247826E+00  0.11708382704E+01  0.93800000000E+00 0.  1.
         22    1    1    2    0    0 -0.37385854634E+00  0.42566680874E+00  0.34163513211E+01  0.34630071894E+01  0.00000000000E+00 0.  1.
</event>
<event>
 5    1  0.3005426E+001  0.1592666E+01  0.7818608E-02  0.3361362E+00
         11   -1    0    0    0    0  0.00000000000E+00  0.00000000000E+00  0.39999999674E+01  0.40000000000E+01  0.51100000000E-03 0.  1.
    9000002   -1    0    0    0    0 -0.00000000000E+00 -0.00000000000E+00  0.00000000000E+00  0.93800000000E+00  0.93800000000E+00 0.  1.
         11    1    1    2    0    0 -0.52378998047E-01 -0.12337110044E-01  0.89402217470E+00  0.89564037074E+00  0.51100000000E-03 0.  1.
    9000002    1    1    2    0    0  0.88704171660E-01 -0.28927055409E+00  0.66601131652E-01  0.98783885035E+00  0.93800000000E+00 0.  1.
         22    1    1    2    0    0 -0.36325173613E-01  0.30160766413E+00  0.30393766610E+01  0.30545207789E+01  0.00000000000E+00 0.  1.
</event>
<event>
 5    1  0.3005426E+001  0.1599668E+01  0.7818608E-02  0.3353724E+00
         11   -1    0    0    0    0  0.00000000000E+00  0.00000000000E+00  0.39999999674E+01  0.40000000000E+01  0.51100000000E-03 0.  1.
    9000002   -1    0    0    0    0 -0.00000000000E+00 -0.00000000000E+00  0.00000000000E+00  0.93800000000E+00  0.93800000000E+00 0.  1.
         11    1    1    2    0    0 -0.13353887347E+00 -0.30047950643E+00  0.71340100178E+00  0.78553282234E+00  0.51100000000E-03 0.  1.
    9000002    1    1    2    0    0  0.49199342319E+00  0.11027430452E+01  0.14081642836E+01  0.20786703447E+01  0.93800000000E+00 0.  1.
         22    1    1    2    0    0 -0.35845454972E+00 -0.80226353881E+00  0.18784346820E+01  0.20737968330E+01  0.00000000000E+00 0.  1.
</event>
<event>
 5    1  0.3005426E+001  0.1599562E+01  0.7818608E-02  0.3353839E+00
         11   -1    0    0    0    0  0.00000000000E+00  0.00000000000E+00  0.39999999674E+01  0.40000000000E+01  0.51100000000E-03 0. -1.
    9000002   -1    0    0    0    0 -0.00000000000E+00 -0.00000000000E+00  0.00000000000E+00  0.93800000000E+00  0.93800000000E+00 0.  1.
         11    1    1    2    0    0  0.42844446821E-01 -0.13454200647E+00  0.90254709666E+00  0.91352543530E+00  0.51100000000E-03 0. -1.
    9000002    1    1    2    0    0 -0.15132657756E+00  0.59481865184E+00  0.26373234254E+00  0.11515675013E+01  0.93800000000E+00 0.  1.
         22    1    1    2    0    0  0.10848213074E+00 -0.46027664537E+00  0.28337205282E+01  0.28729070633E+01  0.00000000000E+00 0. -1.
</event>
<event>
 5    1  0.3005426E+001  0.1507216E+01  0.7818608E-02  0.3460664E+00
         11   -1    0    0    0    0  0.00000000000E+00  0.00000000000E+00  0.39999999674E+01  0.40000000000E+01  0.51100000000E-03 0. -1.
    9000002   -1    0    0    0    0 -0.00000000000E+00 -0.00000000000E+00  0.00000000000E+00  0.93800000000E+00  0.93800000000E+00 0. -1.
         11    1    1    2    0    0  0.28187546722E-01  0.11036834856E+00  0.82031171329E-01  0.14037479954E+00  0.51100000000E-03 0. -1.
    9000002    1    1    2    0    0  0.19773162896E+00  0.23141894285E+00  0.13828484243E+00  0.99580079426E+00  0.93800000000E+00 0. -1.
         22    1    1    2    0    0 -0.22591917569E+00 -0.34178729141E+00  0.37796839536E+01  0.38018244062E+01  0.00000000000E+00 0. -1.
</event>
<event>
 5    1  0.3005426E+001  0.1584476E+01  0.7818608E-02  0.3370387E+00
         11   -1    0    0    0    0  0.00000000000E+00  0.00000000000E+00  0.39999999674E+01  0.40000000000E+01  0.51100000000E-03 0. -1.
    9000002   -1    0    0    0    0 -0.00000000000E+00 -0.00000000000E+00  0.00000000000E+00  0.93800000000E+00  0.93800000000E+00 0. -1.
         11    1    1    2    0    0  0.41610600477E-01  0.11600356489E+00  0.35996459028E+00  0.38047737977E+00  0.51100000000E-03 0. -1.
    9000002    1    1    2    0    0 -0.46160204362E+00 -0.28937308027E+00  0.21922581250E+00  0.11066694100E+01  0.93800000000E+00 0. -1.
         22    1    1    2    0    0  0.41999144314E+00  0.17336951538E+00  0.34208095646E+01  0.34508532102E+01  0.00000000000E+00 0. -1.
</event>
<event>
 5    1  0.3005426E+001  0.1451368E+01  0.7818608E-02  0.3532373E+00
         11   -1    0    0    0    0  0.00000000000E+00  0.00000000000E+00  0.39999999674E+01  0.40000000000E+01  0.51100000000E-03 0. -1.
    9000002   -1    0    0    0    0 -0.00000000000E+00 -0.00000000000E+00  0.00000000000E+00  0.93800000000E+00  0.93800000000E+00 0.  1.
         11    1    1    2    0    0 -0.27075543499E+00 -0.53460514878E-01  0.32231098984E+00  0.42432436592E+00  0.51100000000E-03 0. -1.
    9000002    1    1    2    0    0  0.86737277018E-01 -0.21172453709E+00  0.15695504762E+00  0.97817663119E+00  0.93800000000E+00 0.  1.
         22    1    1    2    0    0  0.18401815797E+00  0.26518505197E+00  0.35207339299E+01  0.35354990029E+01  0.00000000000E+00 0. -1.
</event>
<event>
 5    1  0.3005426E+001  0.1599448E+01  0.7818608E-02  0.3353963E+00
         11   -1    0    0    0    0  0.00000000000E+00  0.00000000000E+00  0.39999999674E+01  0.40000000000E+01  0.51100000000E-03 0. -1.
    9000002   -1    0    0    0    0 -0.00000000000E+00 -0.00000000000E+00  0.00000000000E+00  0.93800000000E+00  0.93800000000E+00 0. -1.
         11    1    1    2    0    0 -0.12451366341E+00 -0.12957989850E+00  0.14668476220E+01  0.14778148767E+01  0.51100000000E-03 0. -1.
    9000002    1    1    2    0    0  0.28294370572E+00  0.35414128909E+00  0.13982095213E+00  0.10511265822E+01  0.93800000000E+00 0. -1.
         22    1    1    2    0    0 -0.15843004231E+00 -0.22456139060E+00  0.23933313932E+01  0.24090585411E+01  0.00000000000E+00 0. -1.
</event>
<event>
 5    1  0.3005426E+001  0.1599121E+01  0.7818608E-02  0.3354318E+00
         11   -1    0    0    0    0  0.00000000000E+00  0.00000000000E+00  0.39999999674E+01  0.40000000000E+01  0.51100000000E-03 0.  1.
    9000002   -1    0    0    0    0 -0.00000000000E+00 -0.00000000000E+00  0.00000000000E+00  0.93800000000E+00  0.93800000000E+00 0. -1.
         11    1    1    2    0    0 -0.53237446197E-01 -0.19041354137E+00  0.11858127341E+01  0.12021828662E+01  0.51100000000E-03 0.  1.
    9000002    1    1    2    0    0  0.12267281640E+00  0.53803587974E+00  0.21093934223E+00  0.11085443761E+01  0.93800000000E+00 0. -1.
         22    1    1    2    0    0 -0.69435370202E-01 -0.34762233836E+00  0.26032478911E+01  0.26272727576E+01  0.00000000000E+00 0.  1.
</event>
<event>
 5    1  0.3005426E+001  0.1599655E+01  0.7818608E-02  0.3353738E+00
         11   -1    0    0    0    0  0.00000000000E+00  0.00000000000E+00  0.39999999674E+01  0.40000000000E+01  0.51100000000E-03 0. -1.
    9000002   -1    0    0    0    0 -0.00000000000E+00 -0.00000000000E+00  0.00000000000E+00  0.93800000000E+00  0.93800000000E+00 0.  1.
         11    1    1    2    0    0 -0.24846089280E-01 -0.11180764346E+00  0.11400844847E+01  0.11458233592E+01  0.51100000000E-03 0. -1.
    9000002    1    1    2    0    0  0.72035316967E-01  0.39396986898E+00  0.10821959287E+00  0.10256494649E+01  0.93800000000E+00 0.  1.
         22    1    1    2    0    0 -0.47189227687E-01 -0.28216222552E+00  0.27516958898E+01  0.27665271759E+01  0.00000000000E+00 0. -1.
</event>
<event>
 5    1  0.3005426E+001  0.1599662E+01  0.7818608E-02  0.3353731E+00
         11   -1    0    0    0    0  0.00000000000E+00  0.00000000000E+00  0.39999999674E+01  0.40000000000E+01  0.51100000000E-03 0.  1.
    9000002   -1    0    0    0    0 -0.00000000000E+00 -0.00000000000E+00  0.00000000000E+00  0.93800000000E+00  0.93800000000E+00 0.  1.
         11    1    1    2    0    0 -0.43873784237E-02  0.35483589341E-03  0.53509860680E-01  0.53693028495E-01  0.51100000000E-03 0.  1.
    9000002    1    1    2    0    0  0.38816683138E+00 -0.47233672663E-01  0.10303281848E+00  0.10214520402E+01  0.93800000000E+00 0.  1.
         22    1    1    2    0    0 -0.38377945296E+00  0.46878836770E-01  0.38434572882E+01  0.38628549313E+01  0.00000000000E+00 0.  1.
</event>
<event>
 5    1  0.3005426E+001  0.1599667E+01  0.7818608E-02  0.3353725E+00
         11   -1    0    0    0    0  0.00000000000E+00  0.00000000000E+00  0.39999999674E+01  0.40000000000E+01  0.51100000000E-03 0.  1.
    9000002   -1    0    0    0    0 -0.00000000000E+00 -0.00000000000E+00  0.00000000000E+00  0.93800000000E+00  0.93800000000E+00 0. -1.
         11    1    1    2    0    0  0.25531810247E-01  0.13295352704E+00  0.14196301029E+01  0.14260709673E+01  0.51100000000E-03 0.  1.
    9000002    1    1    2    0    0 -0.79082443505E-01 -0.37082987883E+00  0.96732338412E-01  0.10163513060E+01  0.93800000000E+00 0. -1.
         22    1    1    2    0    0  0.53550633258E-01  0.23787635180E+00  0.24836375260E+01  0.24955777267E+01  0.00000000000E+00 0.  1.
</event>
<event>
 5    1  0.3005426E+001  0.1599677E+01  0.7818608E-02  0.3353714E+00
         11   -1    0    0    0    0  0.00000000000E+00  0.00000000000E+00  0.39999999674E+01  0.40000000000E+01  0.51100000000E-03 0. -1.
    9000002   -1    0    0    0    0 -0.00000000000E+00 -0.00000000000E+00  0.00000000000E+00  0.93800000000E+00  0.93800000000E+00 0.  1.
         11    1    1    2    0    0 -0.72383593596E-01  0.11728055291E+00  0.14445398447E+01  0.14510994924E+01  0.51100000000E-03 0. -1.
    9000002    1    1    2    0    0  0.19588268225E+00 -0.31835848754E+00  0.93940890608E-01  0.10140961704E+01  0.93800000000E+00 0.  1.
         22    1    1    2    0    0 -0.12349908866E+00  0.20107793463E+00  0.24615192320E+01  0.24728043372E+01  0.00000000000E+00 0. -1.
</event>
<event>
 5    1  0.3005426E+001  0.1578150E+01  0.7818608E-02  0.3377425E+00
         11   -1    0    0    0    0  0.00000000000E+00  0.00000000000E+00  0.39999999674E+01  0.40000000000E+01  0.51100000000E-03 0. -1.
    9000002   -1    0    0    0    0 -0.00000000000E+00 -0.00000000000E+00  0.00000000000E+00  0.93800000000E+00  0.93800000000E+00 0.  1.
         11    1    1    2    0    0  0.64139913552E-01  0.70816873782E-01  0.34720823180E+00  0.36011494759E+00  0.51100000000E-03 0. -1.
    9000002    1    1    2    0    0  0.24754701280E+00 -0.20484522106E+00  0.86259841318E-01  0.99525165077E+00  0.93800000000E+00 0.  1.
         22    1    1    2    0    0 -0.31168692635E+00  0.13402834728E+00  0.35665318942E+01  0.35826334016E+01  0.00000000000E+00 0. -1.
</event>
<event>
 5    1  0.3005426E+001  0.1599251E+01  0.7818608E-02  0.3354177E+00
         11   -1    0    0    0    0  0.00000000000E+00  0.00000000000E+00  0.39999999674E+01  0.40000000000E+01  0.51100000000E-03 0.  1.
    9000002   -1    0    0    0    0 -0.00000000000E+00 -0.00000000000E+00  0.00000000000E+00  0.93800000000E+00  0.93800000000E+00 0. -1.
         11    1    1    2    0    0  0.20182395280E-01 -0.19166652937E-01  0.15906775820E+00  0.16148530114E+00  0.51100000000E-03 0.  1.
    9000002    1    1    2    0    0 -0.39971071235E+00  0.24019443616E+00  0.14843360060E+00  0.10579879747E+01  0.93800000000E+00 0. -1.
         22    1    1    2    0    0  0.37952831707E+00 -0.22102778322E+00  0.36924986086E+01  0.37185267242E+01  0.00000000000E+00 0.  1.
</event>
<event>
 5    1  0.3005426E+001  0.1599677E+01  0.7818608E-02  0.3353714E+00
         11   -1    0    0    0    0  0.00000000000E+00  0.00000000000E+00  0.39999999674E+01  0.40000000000E+01  0.51100000000E-03 0.  1.
    9000002   -1    0    0    0    0 -0.00000000000E+00 -0.00000000000E+00  0.00000000000E+00  0.93800000000E+00  0.93800000000E+00 0. -1.
         11    1    1    2    0    0  0.17876256969E+00 -0.16265870801E+00  0.96180621462E+00  0.99170830752E+00  0.51100000000E-03 0.  1.
    9000002    1    1    2    0    0 -0.64080722562E+00  0.58115847185E+00  0.56459305987E+00  0.13953452594E+01  0.93800000000E+00 0. -1.
         22    1    1    2    0    0  0.46204465592E+00 -0.41849976383E+00  0.24736006929E+01  0.25509464330E+01  0.00000000000E+00 0.  1.
</event>
<event>
 5    1  0.3005426E+001  0.1596479E+01  0.7818608E-02  0.3357194E+00
         11   -1    0    0    0    0  0.00000000000E+00  0.00000000000E+00  0.39999999674E+01  0.40000000000E+01  0.51100000000E-03 0.  1.
    9000002   -1    0    0    0    0 -0.00000000000E+00 -0.00000000000E+00  0.00000000000E+00  0.93800000000E+00  0.93800000000E+00 0. -1.
         11    1    1    2    0    0 -0.16172739937E-01  0.89435884579E-01  0.12865272448E+01  0.12897336731E+01  0.51100000000E-03 0.  1.
    9000002    1    1    2    0    0 -0.11864307671E+00 -0.36890055822E+00  0.10377191906E+00  0.10201844993E+01  0.93800000000E+00 0. -1.
         22    1    1    2    0    0  0.13481581664E+00  0.27946467364E+00  0.26097008035E+01  0.26280818275E+01  0.00000000000E+00 0.  1.
</event>
<event>
 5    1  0.3005426E+001  0.1594748E+01  0.7818608E-02  0.3359083E+00
         11   -1    0    0    0    0  0.00000000000E+00  0.00000000000E+00  0.39999999674E+01  0.40000000000E+01  0.51100000000E-03 0. -1.
    9000002   -1    0    0    0    0 -0.00000000000E+00 -0.00000000000E+00  0.00000000000E+00  0.93800000000E+00  0.93800000000E+00 0. -1.
         11    1    1    2    0    0 -0.10177435225E-01  0.75199099643E-01  0.68338249680E+00  0.68758300068E+00  0.51100000000E-03 0. -1.
    9000002    1    1    2    0    0  0.30571885131E+00 -0.15919223888E+00  0.83580884644E-01  0.10028140153E+01  0.93800000000E+00 0. -1.
         22    1    1    2    0    0 -0.29554141608E+00  0.83993139235E-01  0.32330365859E+01  0.32476029840E+01  0.00000000000E+00 0. -1.
</event>
<event>
 5    1  0.3005426E+001  0.1599676E+01  0.7818608E-02  0.3353715E+00
         11   -1    0    0    0    0  0.00000000000E+00  0.00000000000E+00  0.39999999674E+01  0.40000000000E+01  0.51100000000E-03 0.  1.
    9000002   -1    0    0    0    0 -0.00000000000E+00 -0.00000000000E+00  0.00000000000E+00  0.93800000000E+00  0.93800000000E+00 0. -1.
         11    1    1    2    0    0  0.17996035705E+00  0.13806981956E+00  0.10639277568E+01  0.10878380109E+01  0.51100000000E-03 0.  1.
    9000002    1    1    2    0    0 -0.60418310049E+00 -0.46202661727E+00  0.42073763181E+00  0.12788158463E+01  0.93800000000E+00 0. -1.
         22    1    1    2    0    0  0.42422274344E+00  0.32395679771E+00  0.25153345788E+01  0.25713461428E+01  0.00000000000E+00 0.  1.
</event>
<event>
 5    1  0.3005426E+001  0.1599411E+01  0.7818608E-02  0.3354003E+00
         11   -1    0    0    0    0  0.00000000000E+00  0.00000000000E+00  0.39999999674E+01  0.40000000000E+01  0.51100000000E-03 0.  1.
    9000002   -1    0    0    0    0 -0.00000000000E+00 -0.00000000000E+00  0.00000000000E+00  0.93800000000E+00  0.93800000000E+00 0. -1.
         11    1    1    2    0    0  0.54094065095E-01 -0.25610164293E+00  0.10117428829E+01  0.10450541333E+01  0.51100000000E-03 0.  1.
    9000002    1    1    2    0    0 -0.12389124634E+00  0.85681158135E+00  0.56594724726E+00  0.13962862935E+01  0.93800000000E+00 0. -1.
         22    1    1    2    0    0  0.69797181249E-01 -0.60070993842E+00  0.24223098372E+01  0.24966595731E+01  0.00000000000E+00 0.  1.
</event>
<event>
 5    1  0.3005426E+001  0.1576063E+01  0.7818608E-02  0.3379760E+00
         11   -1    0    0    0    0  0.00000000000E+00  0.00000000000E+00  0.39999999674E+01  0.40000000000E+01  0.51100000000E-03 0.  1.
    9000002   -1    0    0    0    0 -0.00000000000E+00 -0.00000000000E+00  0.00000000000E+00  0.93800000000E+00  0.93800000000E+00 0.  1.
         11    1    1    2    0    0  0.83785874794E-01  0.12576681317E+00  0.41964072300E+00  0.44602237795E+00  0.51100000000E-03 0.  1.
    9000002    1    1    2    0    0  0.51827137613E-01 -0.45479578746E+00  0.16328799777E+00  0.10564242664E+01  0.93800000000E+00 0.  1.
         22    1    1    2    0    0 -0.13561301241E+00  0.32902897428E+00  0.34170712466E+01  0.34355533556E+01  0.00000000000E+00 0.  1.
</event>
<event>
 5    1  0.3005426E+001  0.1599677E+01  0.7818608E-02  0.3353714E+00
         11   -1    0    0    0    0  0.00000000000E+00  0.00000000000E+00  0.39999999674E+01  0.40000000000E+01  0.51100000000E-03 0.  1.
    9000002   -1    0    0    0    0 -0.00000000000E+00 -0.00000000000E+00  0.00000000000E+00  0.93800000000E+00  0.93800000000E+00 0. -1.
         11    1    1    2    0    0 -0.19901151691E+00 -0.18683167109E+00  0.13984854137E+01  0.14248766160E+01  0.51100000000E-03 0.  1.
    9000002    1    1    2    0    0  0.51891085399E+00  0.48601659005E+00  0.36233570617E+00  0.12315079229E+01  0.93800000000E+00 0. -1.
         22    1    1    2    0    0 -0.31989933708E+00 -0.29918491896E+00  0.22391788475E+01  0.22816154611E+01  0.00000000000E+00 0.  1.
</event>
<event>
 5    1  0.3005426E+001  0.1599588E+01  0.7818608E-02  0.3353811E+00
         11   -1    0    0    0    0  0.00000000000E+00  0.00000000000E+00  0.39999999674E+01  0.40000000000E+01  0.51100000000E-03 0. -1.
    9000002   -1    0    0    0    0 -0.00000000000E+00 -0.00000000000E+00  0.00000000000E+00  0.93800000000E+00  0.93800000000E+00 0.  1.
         11    1    1    2    0    0  0.11202945365E-01 -0.17692268490E-01  0.12313732073E+00  0.12490629778E+00  0.51100000000E-03 0. -1.
    9000002    1    1    2    0    0 -0.41242748030E+00  0.43877420624E+00  0.25320604356E+00  0.11430557865E+01  0.93800000000E+00 0.  1.
         22    1    1    2    0    0  0.40122453494E+00 -0.42108193775E+00  0.36236566031E+01  0.36700379157E+01  0.00000000000E+00 0. -1.
</event>
<event>
 5    1  0.3005426E+001  0.1594063E+01  0.7818608E-02  0.3359832E+00
         11   -1    0    0    0    0  0.00000000000E+00  0.00000000000E+00  0.39999999674E+01  0.40000000000E+01  0.51100000000E-03 0. -1.
    9000002   -1    0    0    0    0 -0.00000000000E+00 -0.00000000000E+00  0.00000000000E+00  0.93800000000E+00  0.93800000000E+00 0. -1.
         11    1    1    2    0    0  0.69412168852E-01  0.87324310588E-01  0.14939940427E+01  0.14981528778E+01  0.51100000000E-03 0. -1.
    9000002    1    1    2    0    0 -0.31604451521E+00 -0.42077378803E-01  0.72390027010E-01  0.99334734983E+00  0.93800000000E+00 0. -1.
         22    1    1    2    0    0  0.24663234636E+00 -0.45246931785E-01  0.24336158976E+01  0.24464997724E+01  0.00000000000E+00 0. -1.
</event>
<event>
 5    1  0.3005426E+001  0.1582218E+01  0.7818608E-02  0.3372893E+00
         11   -1    0    0    0    0  0.00000000000E+00  0.00000000000E+00  0.39999999674E+01  0.40000000000E+01  0.51100000000E-03 0. -1.
    9000002   -1    0    0    0    0 -0.00000000000E+00 -0.00000000000E+00  0.00000000000E+00  0.93800000000E+00  0.93800000000E+00 0. -1.
         11    1    1    2    0    0  0.85926953072E-01  0.55684164666E-01  0.12886383500E+01  0.12926999751E+01  0.51100000000E-03 0. -1.
    9000002    1    1    2    0    0 -0.18690102898E-01  0.21537506293E+00  0.44249801287E-01  0.96360665346E+00  0.93800000000E+00 0. -1.
         22    1    1    2    0    0 -0.67236850174E-01 -0.27105922760E+00  0.26671118161E+01  0.26816933714E+01  0.00000000000E+00 0. -1.
</event>
<event>
 5    1  0.3005426E+001  0.1587296E+01  0.7818608E-02  0.3367268E+00
         11   -1    0    0    0    0  0.00000000000E+00  0.00000000000E+00  0.39999999674E+01  0.40000000000E+01  0.51100000000E-03 0.  1.
    9000002   -1    0    0    0    0 -0.00000000000E+00 -0.00000000000E+00  0.00000000000E+00  0.93800000000E+00  0.93800000000E+00 0.  1.
         11    1    1    2    0    0  0.12148409965E+00 -0.11803690417E-01  0.95019212069E+00  0.95799949943E+00  0.51100000000E-03 0.  1.
    9000002    1    1    2    0    0 -0.18048210353E+00 -0.29983543500E+00  0.92156870238E-01  0.10053914494E+01  0.93800000000E+00 0.  1.
         22    1    1    2    0    0  0.58998003882E-01  0.31163912541E+00  0.29576509764E+01  0.29746090512E+01  0.00000000000E+00 0.  1.
</event>
<event>
 5    1  0.3005426E+001  0.1593876E+01  0.7818608E-02  0.3360038E+00
         11   -1    0    0    0    0  0.00000000000E+00  0.00000000000E+00  0.39999999674E+01  0.40000000000E+01  0.51100000000E-03 0.  1.
    9000002   -1    0    0    0    0 -0.00000000000E+00 -0.00000000000E+00  0.00000000000E+00  0.93800000000E+00  0.93800000000E+00 0. -1.
         11    1    1    2    0    0  0.72641675383E-02  0.12200321866E-01  0.69153867261E+00  0.69168461948E+00  0.51100000000E-03 0.  1.
    9000002    1    1    2    0    0  0.29292432786E+00  0.14448328651E+00  0.75974169026E-01  0.99614063078E+00  0.93800000000E+00 0. -1.
         22    1    1    2    0    0 -0.30018849540E+00 -0.15668360838E+00  0.32324871257E+01  0.32501747497E+01  0.00000000000E+00 0.  1.
</event>
<event>
 5    1  0.3005426E+001  0.1596988E+01  0.7818608E-02  0.3356639E+00
         11   -1    0    0    0    0  0.00000000000E+00  0.00000000000E+00  0.39999999674E+01  0.40000000000E+01  0.51100000000E-03 0.  1.
    9000002   -1    0    0    0    0 -0.00000000000E+00 -0.00000000000E+00  0.00000000000E+00  0.93800000000E+00  0.93800000000E+00 0. -1.
         11    1    1    2    0    0 -0.70198304917E-01 -0.78087091540E-01  0.10430209547E+01  0.10482930740E+01  0.51100000000E-03 0.  1.
    9000002    1    1    2    0    0  0.41973519464E+00  0.39882899963E+00  0.23549372486E+00  0.11271838799E+01  0.93800000000E+00 0. -1.
         22    1    1    2    0    0 -0.34953688972E+00 -0.32074190809E+00  0.27214852878E+01  0.27625230461E+01  0.00000000000E+00 0.  1.
</event>
<event>
 5    1  0.3005426E+001  0.1547209E+01  0.7818608E-02  0.3412733E+00
         11   -1    0    0    0    0  0.00000000000E+00  0.00000000000E+00  0.39999999674E+01  0.40000000000E+01  0.51100000000E-03 0.  1.
    9000002   -1    0    0    0    0 -0.00000000000E+00 -0.00000000000E+00  0.00000000000E+00  0.93800000000E+00  0.93800000000E+00 0. -1.
         11    1    1    2    0    0  0.22569388053E+00 -0.67802981034E-01  0.13538117286E+01  0.13741693598E+01  0.51100000000E-03 0.  1.
    9000002    1    1    2    0    0 -0.25497372982E+00 -0.44605163798E+00  0.23066960006E+00  0.10940868937E+01  0.93800000000E+00 0. -1.
         22    1    1    2    0    0  0.29279849284E-01  0.51385461901E+00  0.24155186387E+01  0.24697437464E+01  0.00000000000E+00 0.  1.
</event>
<event>
 5    1  0.3005426E+001  0.1599658E+01  0.7818608E-02  0.3353735E+00
         11   -1    0    0    0    0  0.00000000000E+00  0.00000000000E+00  0.39999999674E+01  0.40000000000E+01  0.51100000000E-03 0.  1.
    9000002   -1    0    0    0    0 -0.00000000000E+00 -0.00000000000E+00  0.00000000000E+00  0.93800000000E+00  0.93800000000E+00 0. -1.
         11    1    1    2    0    0 -0.14691458803E-01  0.10611746231E+00  0.92601966242E+00  0.93219602610E+00  0.51100000000E-03 0.  1.
    9000002    1    1    2    0    0  0.43102551842E-01 -0.43910917431E+00  0.13206725845E+00  0.10449691181E+01  0.93800000000E+00 0. -1.
         22    1    1    2    0    0 -0.28411093039E-01  0.33299171201E+00  0.29419130465E+01  0.29608348558E+01  0.00000000000E+00 0.  1.
</event>
<event>
 5    1  0.3197259E+001  0.1599674E+01  0.7818608E-02  0.3353717E+00
         11   -1    0    0    0    0  0.00000000000E+00  0.00000000000E+00  0.39999999674E+01  0.40000000000E+01  0.51100000000E-03 0.  1.
    9000002   -1    0    0    0    0 -0.00000000000E+00 -0.00000000000E+00  0.00000000000E+00  0.93800000000E+00  0.93800000000E+00 0. -1.
         11    1    1    2    0    0 -0.18546138342E+00 -0.88189366225E-01  0.13987181464E+01  0.14137135506E+01  0.51100000000E-03 0.  1.
    9000002    1    1    2    0    0  0.50676652407E+00  0.23893510559E+00  0.21724357539E+00  0.11139753434E+01  0.93800000000E+00 0. -1.
         22    1    1    2    0    0 -0.32130514065E+00 -0.15074573937E+00  0.23840382456E+01  0.24103111060E+01  0.00000000000E+00 0.  1.
</event>
<event>
 5    1  0.3005426E+001  0.1518248E+01  0.7818608E-02  0.3447173E+00
         11   -1    0    0    0    0  0.00000000000E+00  0.00000000000E+00  0.39999999674E+01  0.40000000000E+01  0.51100000000E-03 0.  1.
    9000002   -1    0    0    0    0 -0.00000000000E+00 -0.00000000000E+00  0.00000000000E+00  0.93800000000E+00  0.93800000000E+00 0.  1.
         11    1    1    2    0    0 -0.24752015464E+00 -0.16909870411E+00  0.14112907682E+01  0.14427759674E+01  0.51100000000E-03 0.  1.
    9000002    1    1    2    0    0 -0.43945754507E-01 -0.80999303021E-01  0.67499283733E-01  0.94492976974E+00  0.93800000000E+00 0.  1.
         22    1    1    2    0    0  0.29146590914E+00  0.25009800713E+00  0.25212099155E+01  0.25502942629E+01  0.00000000000E+00 0.  1.
</event>
<event>
 5    1  0.3005426E+001  0.1599675E+01  0.7818608E-02  0.3353716E+00
         11   -1    0    0    0    0  0.00000000000E+00  0.00000000000E+00  0.39999999674E+01  0.40000000000E+01  0.51100000000E-03 0.  1.
    9000002   -1    0    0    0    0 -0.00000000000E+00 -0.00000000000E+00  0.00000000000E+00  0.93800000000E+00  0.93800000000E+00 0. -1.
         11    1    1    2    0    0 -0.29124318329E-01 -0.22481934270E-01  0.31588877444E+00  0.31802459374E+00  0.51100000000E-03 0. -1.
    9000002    1    1    2    0    0  0.34829541911E+00  0.28112306780E+00  0.13602125921E+00  0.10481820744E+01  0.93800000000E+00 0. -1.
         22    1    1    2    0    0 -0.31917110078E+00 -0.25864113353E+00  0.35480899337E+01  0.35717933318E+01  0.00000000000E+00 0.  1.
</event>
<event>
 5    1  0.3005426E+001  0.1599673E+01  0.7818608E-02  0.3353718E+00
         11   -1    0    0    0    0  0.00000000000E+00  0.00000000000E+00  0.39999999674E+01  0.40000000000E+01  0.51100000000E-03 0.  1.
    9000002   -1    0    0    0    0 -0.00000000000E+00 -0.00000000000E+00  0.00000000000E+00  0.93800000000E+00  0.93800000000E+00 0. -1.
         11    1    1    2    0    0 -0.13836461062E+00 -0.51051046505E-01  0.14274204063E+01  0.14350192515E+01  0.51100000000E-03 0.  1.
    9000002    1    1    2    0    0  0.37671394070E+00  0.13313232047E+00  0.10767559293E+00  0.10252198014E+01  0.93800000000E+00 0. -1.
         22    1    1    2    0    0 -0.23834933008E+00 -0.82081273969E-01  0.24649039681E+01  0.24777609471E+01  0.00000000000E+00 0.  1.
</event>
<event>
 5    1  0.3005426E+001  0.1599651E+01  0.7818608E-02  0.3353743E+00
         11   -1    0    0    0    0  0.00000000000E+00  0.00000000000E+00  0.39999999674E+01  0.40000000000E+01  0.51100000000E-03 0.  1.
    9000002   -1    0    0    0    0 -0.00000000000E+00 -0.00000000000E+00  0.00000000000E+00  0.93800000000E+00  0.93800000000E+00 0.  1.
         11    1    1    2    0    0 -0.10894056254E+00 -0.16029098357E-01  0.84669061218E+00  0.85382096018E+00  0.51100000000E-03 0.  1.
    9000002    1    1    2    0    0  0.47516504700E+00  0.86181846895E-01  0.15922069304E+00  0.10669603375E+01  0.93800000000E+00 0.  1.
         22    1    1    2    0    0 -0.36622448446E+00 -0.70152748538E-01  0.29940886621E+01  0.30172187024E+01  0.00000000000E+00 0.  1.
</event>
<event>
 5    1  0.3005426E+001  0.1599673E+01  0.7818608E-02  0.3353719E+00
         11   -1    0    0    0    0  0.00000000000E+00  0.00000000000E+00  0.39999999674E+01  0.40000000000E+01  0.51100000000E-03 0.  1.
    9000002   -1    0    0    0    0 -0.00000000000E+00 -0.00000000000E+00  0.00000000000E+00  0.93800000000E+00  0.93800000000E+00 0. -1.
         11    1    1    2    0    0 -0.12945032885E+00  0.32774759555E-01  0.14437865248E+01  0.14499487449E+01  0.51100000000E-03 0.  1.
    9000002    1    1    2    0    0  0.34605475587E+00 -0.93265475523E-01  0.86213067276E-01  0.10078338335E+01  0.93800000000E+00 0. -1.
         22    1    1    2    0    0 -0.21660442702E+00  0.60490715968E-01  0.24700003753E+01  0.24802174216E+01  0.00000000000E+00 0.  1.
</event>
<event>
 5    1  0.3005426E+001  0.1598672E+01  0.7818608E-02  0.3354806E+00
         11   -1    0    0    0    0  0.00000000000E+00  0.00000000000E+00  0.39999999674E+01  0.40000000000E+01  0.51100000000E-03 0. -1.
    9000002   -1    0    0    0    0 -0.00000000000E+00 -0.00000000000E+00  0.00000000000E+00  0.93800000000E+00  0.93800000000E+00 0. -1.
         11    1    1    2    0    0 -0.14975905195E+00 -0.10762517094E-01  0.10610455494E+01  0.10716163140E+01  0.51100000000E-03 0. -1.
    9000002    1    1    2    0    0  0.43128122831E+00 -0.86738181189E-02  0.12689925470E+00  0.10402048615E+01  0.93800000000E+00 0. -1.
         22    1    1    2    0    0 -0.28152217636E+00  0.19436335213E-01  0.28120551633E+01  0.28261788245E+01  0.00000000000E+00 0. -1.
</event>
<event>
 5    1  0.3005426E+001  0.1571536E+01  0.7818608E-02  0.3384848E+00
         11   -1    0    0    0    0  0.00000000000E+00  0.00000000000E+00  0.39999999674E+01  0.40000000000E+01  0.51100000000E-03 0.  1.
    9000002   -1    0    0    0    0 -0.00000000000E+00 -0.00000000000E+00  0.00000000000E+00  0.93800000000E+00  0.93800000000E+00 0.  1.
         11    1    1    2    0    0  0.97064207539E-01  0.64190924953E-01  0.11160503282E+01  0.11221009453E+01  0.51100000000E-03 0.  1.
    9000002    1    1    2    0    0 -0.45053758717E-01  0.34149053561E+00  0.10244223078E+00  0.10044819748E+01  0.93800000000E+00 0.  1.
         22    1    1    2    0    0 -0.52010448822E-01 -0.40568146056E+00  0.27815074084E+01  0.28114170799E+01  0.00000000000E+00 0.  1.
</event>
<event>
 5    1  0.3005426E+001  0.1599677E+01  0.7818608E-02  0.3353714E+00
         11   -1    0    0    0    0  0.00000000000E+00  0.00000000000E+00  0.39999999674E+01  0.40000000000E+01  0.51100000000E-03 0. -1.
    9000002   -1    0    0    0    0 -0.00000000000E+00 -0.00000000000E+00  0.00000000000E+00  0.93800000000E+00  0.93800000000E+00 0.  1.
         11    1    1    2    0    0  0.57554660871E-01  0.20157563786E+00  0.14732643588E+01  0.14881039644E+01  0.51100000000E-03 0. -1.
    9000002    1    1    2    0    0 -0.15037755234E+00 -0.51939091173E+00  0.20159630148E+00  0.11013016827E+01  0.93800000000E+00 0.  1.
         22    1    1    2    0    0  0.92822891465E-01  0.31781527388E+00  0.23251393071E+01  0.23485943530E+01  0.00000000000E+00 0. -1.
</event>
<event>
 5    1  0.3005426E+001  0.1599676E+01  0.7818608E-02  0.3353715E+00
         11   -1    0    0    0    0  0.00000000000E+00  0.00000000000E+00  0.39999999674E+01  0.40000000000E+01  0.51100000000E-03 0. -1.
    9000002   -1    0    0    0    0 -0.00000000000E+00 -0.00000000000E+00  0.00000000000E+00  0.93800000000E+00  0.93800000000E+00 0.  1.
         11    1    1    2    0    0  0.40720130869E-01  0.73681263040E-01  0.88992382061E+00  0.89389693208E+00  0.51100000000E-03 0. -1.
    9000002    1    1    2    0    0 -0.18161456837E+00 -0.32105569131E+00  0.91426462057E-01  0.10120589935E+01  0.93800000000E+00 0.  1.
         22    1    1    2    0    0  0.14089443750E+00  0.24737442827E+00  0.30186496847E+01  0.30320440744E+01  0.00000000000E+00 0. -1.
</event>
<event>
 5    1  0.3005426E+001  0.1599358E+01  0.7818608E-02  0.3354060E+00
         11   -1    0    0    0    0  0.00000000000E+00  0.00000000000E+00  0.39999999674E+01  0.40000000000E+01  0.51100000000E-03 0.  1.
    9000002   -1    0    0    0    0 -0.00000000000E+00 -0.00000000000E+00  0.00000000000E+00  0.93800000000E+00  0.93800000000E+00 0.  1.
         11    1    1    2    0    0 -0.14825844355E+00  0.35101200350E-01  0.11904472810E+01  0.12001573440E+01  0.51100000000E-03 0.  1.
    9000002    1    1    2    0    0  0.48190165721E+00 -0.17625499605E+00  0.18093512543E+00  0.10843784166E+01  0.93800000000E+00 0.  1.
         22    1    1    2    0    0 -0.33364321366E+00  0.14115379570E+00  0.26286175609E+01  0.26534642394E+01  0.00000000000E+00 0.  1.
</event>
<event>
 5    1  0.3005426E+001  0.1593592E+01  0.7818608E-02  0.3360348E+00
         11   -1    0    0    0    0  0.00000000000E+00  0.00000000000E+00  0.39999999674E+01  0.40000000000E+01  0.51100000000E-03 0. -1.
    9000002   -1    0    0    0    0 -0.00000000000E+00 -0.00000000000E+00  0.00000000000E+00  0.93800000000E+00  0.93800000000E+00 0. -1.
         11    1    1    2    0    0  0.30157230763E-01 -0.42005997970E-01  0.14210614906E+01  0.14220021039E+01  0.51100000000E-03 0. -1.
    9000002    1    1    2    0    0 -0.26742331754E+00 -0.53635095611E-01  0.54221513782E-01  0.97835368186E+00  0.93800000000E+00 0. -1.
         22    1    1    2    0    0  0.23726608678E+00  0.95641093581E-01  0.25247169630E+01  0.25376442142E+01  0.00000000000E+00 0. -1.
</event>
<event>
 5    1  0.3005426E+001  0.1599543E+01  0.7818608E-02  0.3353860E+00
         11   -1    0    0    0    0  0.00000000000E+00  0.00000000000E+00  0.39999999674E+01  0.40000000000E+01  0.51100000000E-03 0.  1.
    9000002   -1    0    0    0    0 -0.00000000000E+00 -0.00000000000E+00  0.00000000000E+00  0.93800000000E+00  0.93800000000E+00 0. -1.
         11    1    1    2    0    0  0.14390773744E+00  0.86038277621E-01  0.11472000195E+01  0.11593878420E+01  0.51100000000E-03 0.  1.
    9000002    1    1    2    0    0 -0.50106149310E+00 -0.31216729869E+00  0.24279232567E+00  0.11345938285E+01  0.93800000000E+00 0. -1.
         22    1    1    2    0    0  0.35715375566E+00  0.22612902107E+00  0.26100076222E+01  0.26440183296E+01  0.00000000000E+00 0.  1.
</event>
<event>
 5    1  0.3005426E+001  0.1598838E+01  0.7818608E-02  0.3354625E+00
         11   -1    0    0    0    0  0.00000000000E+00  0.00000000000E+00  0.39999999674E+01  0.40000000000E+01  0.51100000000E-03 0.  1.
    9000002   -1    0    0    0    0 -0.00000000000E+00 -0.00000000000E+00  0.00000000000E+00  0.93800000000E+00  0.93800000000E+00 0.  1.
         11    1    1    2    0    0 -0.22142226943E+00 -0.11990753735E-01  0.11284506794E+01  0.11500316502E+01  0.51100000000E-03 0.  1.
    9000002    1    1    2    0    0  0.62399669056E+00  0.30714074089E-01  0.27466684356E+00  0.11600004738E+01  0.93800000000E+00 0.  1.
         22    1    1    2    0    0 -0.40257442113E+00 -0.18723320354E-01  0.25968824444E+01  0.26279678760E+01  0.00000000000E+00 0.  1.
</event>
<event>
 5    1  0.3005426E+001  0.1599482E+01  0.7818608E-02  0.3353926E+00
         11   -1    0    0    0    0  0.00000000000E+00  0.00000000000E+00  0.39999999674E+01  0.40000000000E+01  0.51100000000E-03 0. -1.
    9000002   -1    0    0    0    0 -0.00000000000E+00 -0.00000000000E+00  0.00000000000E+00  0.93800000000E+00  0.93800000000E+00 0. -1.
         11    1    1    2    0    0  0.86862703551E-01  0.70277637500E-01  0.13865567377E+01  0.13910513734E+01  0.51100000000E-03 0. -1.
    9000002    1    1    2    0    0 -0.27176819828E+00 -0.23524201160E+00  0.86877133770E-01  0.10082600825E+01  0.93800000000E+00 0. -1.
         22    1    1    2    0    0  0.18490549473E+00  0.16496437410E+00  0.25265660959E+01  0.25386885441E+01  0.00000000000E+00 0. -1.
</event>
<event>
 5    1  0.3005426E+001  0.1599661E+01  0.7818608E-02  0.3353732E+00
         11   -1    0    0    0    0  0.00000000000E+00  0.00000000000E+00  0.39999999674E+01  0.40000000000E+01  0.51100000000E-03 0. -1.
    9000002   -1    0    0    0    0 -0.00000000000E+00 -0.00000000000E+00  0.00000000000E+00  0.93800000000E+00  0.93800000000E+00 0.  1.
         11    1    1    2    0    0 -0.13798895144E-01 -0.12171330544E-02  0.13652141714E+00  0.13722335580E+00  0.51100000000E-03 0. -1.
    9000002    1    1    2    0    0  0.41848790485E+00  0.76259343179E-01  0.12247979255E+00  0.10372043740E+01  0.93800000000E+00 0.  1.
         22    1    1    2    0    0 -0.40468900970E+00 -0.75042210125E-01  0.37409987577E+01  0.37635722702E+01  0.00000000000E+00 0. -1.
</event>
<event>
 5    1  0.3005426E+001  0.1510062E+01  0.7818608E-02  0.3457163E+00
         11   -1    0    0    0    0  0.00000000000E+00  0.00000000000E+00  0.39999999674E+01  0.40000000000E+01  0.51100000000E-03 0. -1.
    9000002   -1    0    0    0    0 -0.00000000000E+00 -0.00000000000E+00  0.00000000000E+00  0.93800000000E+00  0.93800000000E+00 0. -1.
         11    1    1    2    0    0 -0.33583317190E-01 -0.17483962285E+00  0.19621220720E+00  0.26494570064E+00  0.51100000000E-03 0. -1.
    9000002    1    1    2    0    0  0.40993593664E+00  0.68596826556E-01  0.19647315711E+00  0.10446045655E+01  0.93800000000E+00 0. -1.
         22    1    1    2    0    0 -0.37635261945E+00  0.10624279630E+00  0.36073146030E+01  0.36284497339E+01  0.00000000000E+00 0. -1.
</event>
<event>
 5    1  0.3005426E+001  0.1574862E+01  0.7818608E-02  0.3381108E+00
         11   -1    0    0    0    0  0.00000000000E+00  0.00000000000E+00  0.39999999674E+01  0.40000000000E+01  0.51100000000E-03 0. -1.
    9000002   -1    0    0    0    0 -0.00000000000E+00 -0.00000000000E+00  0.00000000000E+00  0.93800000000E+00  0.93800000000E+00 0. -1.
         11    1    1    2    0    0  0.12299502085E+00 -0.40115605196E-01  0.99626271855E+00  0.10046276437E+01  0.51100000000E-03 0. -1.
    9000002    1    1    2    0    0  0.10376885086E+00  0.43127736116E+00  0.15516072236E+00  0.10491363050E+01  0.93800000000E+00 0. -1.
         22    1    1    2    0    0 -0.22676387171E+00 -0.39116175597E+00  0.28485765264E+01  0.28842360513E+01  0.00000000000E+00 0. -1.
</event>
<event>
 5    1  0.3005426E+001  0.1599607E+01  0.7818608E-02  0.3353790E+00
         11   -1    0    0    0    0  0.00000000000E+00  0.00000000000E+00  0.39999999674E+01  0.40000000000E+01  0.51100000000E-03 0.  1.
    9000002   -1    0    0    0    0 -0.00000000000E+00 -0.00000000000E+00  0.00000000000E+00  0.93800000000E+00  0.93800000000E+00 0.  1.
         11    1    1    2    0    0 -0.13985377170E+00  0.35558207628E-01  0.13604677165E+01  0.13680994599E+01  0.51100000000E-03 0.  1.
    9000002    1    1    2    0    0  0.42476384345E+00 -0.10637254364E+00  0.13005717549E+00  0.10433112238E+01  0.93800000000E+00 0.  1.
         22    1    1    2    0    0 -0.28491007175E+00  0.70814336008E-01  0.25094750754E+01  0.25265893163E+01  0.00000000000E+00 0. -1.
</event>
<event>
 5    1  0.3005426E+001  0.1599676E+01  0.7818608E-02  0.3353715E+00
         11   -1    0    0    0    0  0.00000000000E+00  0.00000000000E+00  0.39999999674E+01  0.40000000000E+01  0.51100000000E-03 0.  1.
    9000002   -1    0    0    0    0 -0.00000000000E+00 -0.00000000000E+00  0.00000000000E+00  0.93800000000E+00  0.93800000000E+00 0. -1.
         11    1    1    2    0    0  0.68878766860E-01  0.10358952858E-01  0.57006627255E+00  0.57430602352E+00  0.51100000000E-03 0.  1.
    9000002    1    1    2    0    0 -0.46431777215E+00 -0.66335424127E-01  0.14984597341E+00  0.10593815166E+01  0.93800000000E+00 0. -1.
         22    1    1    2    0    0  0.39543900529E+00  0.55976471269E-01  0.32800877214E+01  0.33043124599E+01  0.00000000000E+00 0.  1.
</event>
<event>
 5    1  0.3005426E+001  0.1599578E+01  0.7818608E-02  0.3353822E+00
         11   -1    0    0    0    0  0.00000000000E+00  0.00000000000E+00  0.39999999674E+01  0.40000000000E+01  0.51100000000E-03 0. -1.
    9000002   -1    0    0    0    0 -0.00000000000E+00 -0.00000000000E+00  0.00000000000E+00  0.93800000000E+00  0.93800000000E+00 0.  1.
         11    1    1    2    0    0  0.70469610566E-01 -0.10391706435E+00  0.11794273101E+01  0.11860918021E+01  0.51100000000E-03 0. -1.
    9000002    1    1    2    0    0 -0.22224724691E+00  0.30887345037E+00  0.97512852854E-01  0.10169313662E+01  0.93800000000E+00 0.  1.
         22    1    1    2    0    0  0.15177763634E+00 -0.20495638602E+00  0.27230598044E+01  0.27349768316E+01  0.00000000000E+00 0. -1.
</event>
<event>
 5    1  0.3005426E+001  0.1545404E+01  0.7818608E-02  0.3414838E+00
         11   -1    0    0    0    0  0.00000000000E+00  0.00000000000E+00  0.39999999674E+01  0.40000000000E+01  0.51100000000E-03 0.  1.
    9000002   -1    0    0    0    0 -0.00000000000E+00 -0.00000000000E+00  0.00000000000E+00  0.93800000000E+00  0.93800000000E+00 0. -1.
         11    1    1    2    0    0 -0.81211709067E-01  0.11245401135E+00  0.30228643657E+00  0.33259374200E+00  0.51100000000E-03 0.  1.
    9000002    1    1    2    0    0  0.39014258482E-01  0.23046293814E+00  0.78640133683E-01  0.96987811030E+00  0.93800000000E+00 0. -1.
         22    1    1    2    0    0  0.42197450585E-01 -0.34291694949E+00  0.36190733971E+01  0.36355281477E+01  0.00000000000E+00 0.  1.
</event>
<event>
 5    1  0.3005426E+001  0.1599675E+01  0.7818608E-02  0.3353717E+00
         11   -1    0    0    0    0  0.00000000000E+00  0.00000000000E+00  0.39999999674E+01  0.40000000000E+01  0.51100000000E-03 0.  1.
    9000002   -1    0    0    0    0 -0.00000000000E+00 -0.00000000000E+00  0.00000000000E+00  0.93800000000E+00  0.93800000000E+00 0. -1.
         11    1    1    2    0    0  0.11229919493E-01 -0.12776680521E-01  0.13736021973E+00  0.13841042497E+00  0.51100000000E-03 0.  1.
    9000002    1    1    2    0    0 -0.32824596366E+00  0.35492503341E+00  0.15955978826E+00  0.10672490422E+01  0.93800000000E+00 0. -1.
         22    1    1    2    0    0  0.31701604417E+00 -0.34214835289E+00  0.37030799594E+01  0.37323405328E+01  0.00000000000E+00 0.  1.
</event>
<event>
 5    1  0.3005426E+001  0.1597884E+01  0.7818608E-02  0.3355663E+00
         11   -1    0    0    0    0  0.00000000000E+00  0.00000000000E+00  0.39999999674E+01  0.40000000000E+01  0.51100000000E-03 0.  1.
    9000002   -1    0    0    0    0 -0.00000000000E+00 -0.00000000000E+00  0.00000000000E+00  0.93800000000E+00  0.93800000000E+00 0.  1.
         11    1    1    2    0    0  0.41664317919E-02  0.18588474085E-01  0.32006706462E+00  0.32063386830E+00  0.51100000000E-03 0.  1.
    9000002    1    1    2    0    0 -0.36516990629E+00 -0.94229109334E-01  0.97134018949E-01  0.10156314308E+01  0.93800000000E+00 0.  1.
         22    1    1    2    0    0  0.36100347450E+00  0.75640635249E-01  0.35827988838E+01  0.36017347009E+01  0.00000000000E+00 0.  1.
</event>
<event>
 5    1  0.3005426E+001  0.1599675E+01  0.7818608E-02  0.3353717E+00
         11   -1    0    0    0    0  0.00000000000E+00  0.00000000000E+00  0.39999999674E+01  0.40000000000E+01  0.51100000000E-03 0. -1.
    9000002   -1    0    0    0    0 -0.00000000000E+00 -0.00000000000E+00  0.00000000000E+00  0.93800000000E+00  0.93800000000E+00 0.  1.
         11    1    1    2    0    0 -0.15952748186E+00 -0.18356071998E+00  0.14790969021E+01  0.14989567913E+01  0.51100000000E-03 0. -1.
    9000002    1    1    2    0    0  0.40491388102E+00  0.45947752555E+00  0.26239828059E+00  0.11505527824E+01  0.93800000000E+00 0.  1.
         22    1    1    2    0    0 -0.24538639916E+00 -0.27591680557E+00  0.22585047847E+01  0.22884904263E+01  0.00000000000E+00 0. -1.
</event>
<event>
 5    1  0.3005426E+001  0.1573640E+01  0.7818608E-02  0.3382481E+00
         11   -1    0    0    0    0  0.00000000000E+00  0.00000000000E+00  0.39999999674E+01  0.40000000000E+01  0.51100000000E-03 0.  1.
    9000002   -1    0    0    0    0 -0.00000000000E+00 -0.00000000000E+00  0.00000000000E+00  0.93800000000E+00  0.93800000000E+00 0. -1.
         11    1    1    2    0    0 -0.14812513242E-01 -0.14027819803E+00  0.13830778677E+01  0.13902525068E+01  0.51100000000E-03 0.  1.
    9000002    1    1    2    0    0 -0.24384053151E+00 -0.44193725065E-01  0.60938072758E-01  0.97209502563E+00  0.93800000000E+00 0. -1.
         22    1    1    2    0    0  0.25865304476E+00  0.18447192310E+00  0.25559840269E+01  0.25756524676E+01  0.00000000000E+00 0.  1.
</event>
<event>
 5    1  0.3005426E+001  0.1599674E+01  0.7818608E-02  0.3353718E+00
         11   -1    0    0    0    0  0.00000000000E+00  0.00000000000E+00  0.39999999674E+01  0.40000000000E+01  0.51100000000E-03 0. -1.
    9000002   -1    0    0    0    0 -0.00000000000E+00 -0.00000000000E+00  0.00000000000E+00  0.93800000000E+00  0.93800000000E+00 0.  1.
         11    1    1    2    0    0 -0.69421975776E-01  0.17668993618E+00  0.14235505160E+01  0.14361528738E+01  0.51100000000E-03 0. -1.
    9000002    1    1    2    0    0  0.18082759858E+00 -0.47586101539E+00  0.17767368124E+00  0.10819215606E+01  0.93800000000E+00 0.  1.
         22    1    1    2    0    0 -0.11140562280E+00  0.29917107921E+00  0.23987757701E+01  0.24199255655E+01  0.00000000000E+00 0.  1.
</event>
<event>
 5    1  0.3005426E+001  0.1594499E+01  0.7818608E-02  0.3359355E+00
         11   -1    0    0    0    0  0.00000000000E+00  0.00000000000E+00  0.39999999674E+01  0.40000000000E+01  0.51100000000E-03 0.  1.
    9000002   -1    0    0    0    0 -0.00000000000E+00 -0.00000000000E+00  0.00000000000E+00  0.93800000000E+00  0.93800000000E+00 0.  1.
         11    1    1    2    0    0 -0.14765280902E+00 -0.43785353898E-01  0.99703957696E+00  0.10088640584E+01  0.51100000000E-03 0.  1.
    9000002    1    1    2    0    0  0.78658954639E+00  0.56690055877E-01  0.46300994561E+00  0.13100225520E+01  0.93800000000E+00 0.  1.
         22    1    1    2    0    0 -0.63893673737E+00 -0.12904701979E-01  0.25399504448E+01  0.26191133896E+01  0.00000000000E+00 0.  1.
</event>
<event>
 5    1  0.3005426E+001  0.1599639E+01  0.7818608E-02  0.3353755E+00
         11   -1    0    0    0    0  0.00000000000E+00  0.00000000000E+00  0.39999999674E+01  0.40000000000E+01  0.51100000000E-03 0. -1.
    9000002   -1    0    0    0    0 -0.00000000000E+00 -0.00000000000E+00  0.00000000000E+00  0.93800000000E+00  0.93800000000E+00 0. -1.
         11    1    1    2    0    0 -0.15853224948E+00  0.10022397820E+00  0.14582554862E+01  0.14702675417E+01  0.51100000000E-03 0. -1.
    9000002    1    1    2    0    0  0.41961597236E+00 -0.24507834712E+00  0.16131088748E+00  0.10686468841E+01  0.93800000000E+00 0. -1.
         22    1    1    2    0    0 -0.26108372287E+00  0.14485436893E+00  0.23804335937E+01  0.23990855742E+01  0.00000000000E+00 0. -1.
</event>
<event>
 5    1  0.3005426E+001  0.1592160E+01  0.7818608E-02  0.3361917E+00
         11   -1    0    0    0    0  0.00000000000E+00  0.00000000000E+00  0.39999999674E+01  0.40000000000E+01  0.51100000000E-03 0. -1.
    9000002   -1    0    0    0    0 -0.00000000000E+00 -0.00000000000E+00  0.00000000000E+00  0.93800000000E+00  0.93800000000E+00 0.  1.
         11    1    1    2    0    0 -0.14073913263E+00  0.26944319864E-01  0.55566712955E+00  0.57384642528E+00  0.51100000000E-03 0. -1.
    9000002    1    1    2    0    0  0.49862286882E+00  0.21989781200E-01  0.17729996319E+00  0.10772128818E+01  0.93800000000E+00 0.  1.
         22    1    1    2    0    0 -0.35788373618E+00 -0.48934101064E-01  0.32670328746E+01  0.32869406929E+01  0.00000000000E+00 0. -1.
</event>
<event>
 5    1  0.3005426E+001  0.1599656E+01  0.7818608E-02  0.3353737E+00
         11   -1    0    0    0    0  0.00000000000E+00  0.00000000000E+00  0.39999999674E+01  0.40000000000E+01  0.51100000000E-03 0. -1.
    9000002   -1    0    0    0    0 -0.00000000000E+00 -0.00000000000E+00  0.00000000000E+00  0.93800000000E+00  0.93800000000E+00 0.  1.
         11    1    1    2    0    0 -0.52436127898E-01  0.93961159492E-01  0.11069611849E+01  0.11121787505E+01  0.51100000000E-03 0. -1.
    9000002    1    1    2    0    0  0.19273517820E+00 -0.31585694582E+00  0.92027850262E-01  0.10125342386E+01  0.93800000000E+00 0.  1.
         22    1    1    2    0    0 -0.14029905030E+00  0.22189578633E+00  0.28010109322E+01  0.28132870109E+01  0.00000000000E+00 0. -1.
</event>
<event>
 5    1  0.3005426E+001  0.1599674E+01  0.7818608E-02  0.3353718E+00
         11   -1    0    0    0    0  0.00000000000E+00  0.00000000000E+00  0.39999999674E+01  0.40000000000E+01  0.51100000000E-03 0. -1.
    9000002   -1    0    0    0    0 -0.00000000000E+00 -0.00000000000E+00  0.00000000000E+00  0.93800000000E+00  0.93800000000E+00 0. -1.
         11    1    1    2    0    0 -0.35136888085E-01 -0.28646605896E-01  0.50033259278E+00  0.50238251706E+00  0.51100000000E-03 0. -1.
    9000002    1    1    2    0    0  0.26714011318E+00  0.23207540031E+00  0.84001968458E-01  0.10060433202E+01  0.93800000000E+00 0. -1.
         22    1    1    2    0    0 -0.23200322509E+00 -0.20342879441E+00  0.34156654061E+01  0.34295741627E+01  0.00000000000E+00 0. -1.
</event>
<event>
 5    1  0.3005426E+001  0.1599569E+01  0.7818608E-02  0.3353831E+00
         11   -1    0    0    0    0  0.00000000000E+00  0.00000000000E+00  0.39999999674E+01  0.40000000000E+01  0.51100000000E-03 0. -1.
    9000002   -1    0    0    0    0 -0.00000000000E+00 -0.00000000000E+00  0.00000000000E+00  0.93800000000E+00  0.93800000000E+00 0. -1.
         11    1    1    2    0    0 -0.10331343845E+00  0.10169518228E+00  0.83307803856E+00  0.84559733687E+00  0.51100000000E-03 0. -1.
    9000002    1    1    2    0    0  0.48945117915E+00 -0.41687527644E+00  0.29129983250E+00  0.11739024854E+01  0.93800000000E+00 0. -1.
         22    1    1    2    0    0 -0.38613774069E+00  0.31518009416E+00  0.28756220963E+01  0.29185001777E+01  0.00000000000E+00 0. -1.
</event>
<event>
 5    1  0.3005426E+001  0.1578189E+01  0.7818608E-02  0.3377382E+00
         11   -1    0    0    0    0  0.00000000000E+00  0.00000000000E+00  0.39999999674E+01  0.40000000000E+01  0.51100000000E-03 0. -1.
    9000002   -1    0    0    0    0 -0.00000000000E+00 -0.00000000000E+00  0.00000000000E+00  0.93800000000E+00  0.93800000000E+00 0.  1.
         11    1    1    2    0    0 -0.68838430545E-01  0.78730639931E-01  0.10073022724E+01  0.10127168273E+01  0.51100000000E-03 0. -1.
    9000002    1    1    2    0    0 -0.14601463533E+00  0.12772085080E+00  0.41150315819E-01  0.95873366372E+00  0.93800000000E+00 0.  1.
         22    1    1    2    0    0  0.21485306587E+00 -0.20645149073E+00  0.29515473792E+01  0.29665495090E+01  0.00000000000E+00 0. -1.
</event>
<event>
 5    1  0.3005426E+001  0.1599676E+01  0.7818608E-02  0.3353715E+00
         11   -1    0    0    0    0  0.00000000000E+00  0.00000000000E+00  0.39999999674E+01  0.40000000000E+01  0.51100000000E-03 0. -1.
    9000002   -1    0    0    0    0 -0.00000000000E+00 -0.00000000000E+00  0.00000000000E+00  0.93800000000E+00  0.93800000000E+00 0. -1.
         11    1    1    2    0    0 -0.98363645688E-01 -0.45801463988E-01  0.10863515851E+01  0.10917569365E+01  0.51100000000E-03 0. -1.
    9000002    1    1    2    0    0  0.35409960924E+00  0.16170257764E+00  0.10207492406E+00  0.10206848422E+01  0.93800000000E+00 0. -1.
         22    1    1    2    0    0 -0.25573596355E+00 -0.11590111365E+00  0.28115734582E+01  0.28255582213E+01  0.00000000000E+00 0.  1.
</event>
<event>
 5    1  0.3005426E+001  0.1598093E+01  0.7818608E-02  0.3355436E+00
         11   -1    0    0    0    0  0.00000000000E+00  0.00000000000E+00  0.39999999674E+01  0.40000000000E+01  0.51100000000E-03 0. -1.
    9000002   -1    0    0    0    0 -0.00000000000E+00 -0.00000000000E+00  0.00000000000E+00  0.93800000000E+00  0.93800000000E+00 0. -1.
         11    1    1    2    0    0 -0.89310072542E-01 -0.84828636570E-01  0.81194288920E+00  0.82123303823E+00  0.51100000000E-03 0. -1.
    9000002    1    1    2    0    0  0.26378910979E+00  0.31404721737E+00  0.11493959269E+00  0.10301773921E+01  0.93800000000E+00 0. -1.
         22    1    1    2    0    0 -0.17447903725E+00 -0.22921858080E+00  0.30731174855E+01  0.30865895697E+01  0.00000000000E+00 0. -1.
</event>
<event>
 5    1  0.3005426E+001  0.1599677E+01  0.7818608E-02  0.3353714E+00
         11   -1    0    0    0    0  0.00000000000E+00  0.00000000000E+00  0.39999999674E+01  0.40000000000E+01  0.51100000000E-03 0. -1.
    9000002   -1    0    0    0    0 -0.00000000000E+00 -0.00000000000E+00  0.00000000000E+00  0.93800000000E+00  0.93800000000E+00 0. -1.
         11    1    1    2    0    0  0.36478403304E+00  0.47984318165E-01  0.12057486472E+01  0.12606347397E+01  0.51100000000E-03 0. -1.
    9000002    1    1    2    0    0 -0.97594969001E+00 -0.12967383524E+00  0.77305685780E+00  0.15642103459E+01  0.93800000000E+00 0. -1.
         22    1    1    2    0    0  0.61116565697E+00  0.81689517070E-01  0.20211944624E+01  0.21131549144E+01  0.00000000000E+00 0. -1.
</event>
<event>
 5    1  0.3005426E+001  0.1599673E+01  0.7818608E-02  0.3353718E+00
         11   -1    0    0    0    0  0.00000000000E+00  0.00000000000E+00  0.39999999674E+01  0.40000000000E+01  0.51100000000E-03 0. -1.
    9000002   -1    0    0    0    0 -0.00000000000E+00 -0.00000000000E+00  0.00000000000E+00  0.93800000000E+00  0.93800000000E+00 0.  1.
         11    1    1    2    0    0 -0.14078553822E-01  0.28616308975E-02  0.11081750816E+00  0.11174603279E+00  0.51100000000E-03 0. -1.
    9000002    1    1    2    0    0  0.48580293937E+00 -0.12005569069E+00  0.17144048307E+00  0.10768721855E+01  0.93800000000E+00 0.  1.
         22    1    1    2    0    0 -0.47172438555E+00  0.11719405979E+00  0.37177419761E+01  0.37493817817E+01  0.00000000000E+00 0. -1.
</event>
<event>
 5    1  0.3005426E+001  0.1498292E+01  0.7818608E-02  0.3471735E+00
         11   -1    0    0    0    0  0.00000000000E+00  0.00000000000E+00  0.39999999674E+01  0.40000000000E+01  0.51100000000E-03 0. -1.
    9000002   -1    0    0    0    0 -0.00000000000E+00 -0.00000000000E+00  0.00000000000E+00  0.93800000000E+00  0.93800000000E+00 0.  1.
         11    1    1    2    0    0  0.47731002135E+00  0.58483446135E-02  0.77732454012E+00  0.91219118687E+00  0.51100000000E-03 0. -1.
    9000002    1    1    2    0    0 -0.14283984019E+00 -0.77165137703E-01  0.18601309409E+00  0.96994976653E+00  0.93800000000E+00 0.  1.
         22    1    1    2    0    0 -0.33447018116E+00  0.71316793090E-01  0.30366623332E+01  0.30558590466E+01  0.00000000000E+00 0. -1.
</event>
<event>
 5    1  0.3005426E+001  0.1599443E+01  0.7818608E-02  0.3353969E+00
         11   -1    0    0    0    0  0.00000000000E+00  0.00000000000E+00  0.39999999674E+01  0.40000000000E+01  0.51100000000E-03 0. -1.
    9000002   -1    0    0    0    0 -0.00000000000E+00 -0.00000000000E+00  0.00000000000E+00  0.93800000000E+00  0.93800000000E+00 0. -1.
         11    1    1    2    0    0  0.93554755224E-02  0.11419846288E+00  0.87605117923E+00  0.88351272974E+00  0.51100000000E-03 0. -1.
    9000002    1    1    2    0    0 -0.77794236695E-01 -0.55000269299E+00  0.21356473626E+00  0.11108594880E+01  0.93800000000E+00 0. -1.
         22    1    1    2    0    0  0.68438761173E-01  0.43580423011E+00  0.29103840519E+01  0.29436277822E+01  0.00000000000E+00 0. -1.
</event>
<event>
 5    1  0.3005426E+001  0.1599615E+01  0.7818608E-02  0.3353781E+00
         11   -1    0    0    0    0  0.00000000000E+00  0.00000000000E+00  0.39999999674E+01  0.40000000000E+01  0.51100000000E-03 0. -1.
    9000002   -1    0    0    0    0 -0.00000000000E+00 -0.00000000000E+00  0.00000000000E+00  0.93800000000E+00  0.93800000000E+00 0.  1.
         11    1    1    2    0    0 -0.22027118613E-01 -0.29585970855E-01  0.33106417487E+00  0.33311300280E+00  0.51100000000E-03 0. -1.
    9000002    1    1    2    0    0  0.24404063311E+00  0.40448695148E+00  0.15214190588E+00  0.10612052978E+01  0.93800000000E+00 0.  1.
         22    1    1    2    0    0 -0.22201351449E+00 -0.37490098063E+00  0.35167938866E+01  0.35436816994E+01  0.00000000000E+00 0. -1.
</event>
<event>
 5    1  0.3005426E+001  0.1510242E+01  0.7818608E-02  0.3456942E+00
         11   -1    0    0    0    0  0.00000000000E+00  0.00000000000E+00  0.39999999674E+01  0.40000000000E+01  0.51100000000E-03 0.  1.
    9000002   -1    0    0    0    0 -0.00000000000E+00 -0.00000000000E+00  0.00000000000E+00  0.93800000000E+00  0.93800000000E+00 0.  1.
         11    1    1    2    0    0 -0.30176650638E+00 -0.37545175314E+00  0.10521760021E+01  0.11571955945E+01  0.51100000000E-03 0.  1.
    9000002    1    1    2    0    0 -0.16724843904E+00  0.48520176911E-01  0.20081743108E+00  0.97493481246E+00  0.93800000000E+00 0.  1.
         22    1    1    2    0    0  0.46901494542E+00  0.32693157623E+00  0.27470065342E+01  0.28058695931E+01  0.00000000000E+00 0.  1.
</event>
<event>
 5    1  0.3005426E+001  0.1599667E+01  0.7818608E-02  0.3353725E+00
         11   -1    0    0    0    0  0.00000000000E+00  0.00000000000E+00  0.39999999674E+01  0.40000000000E+01  0.51100000000E-03 0.  1.
    9000002   -1    0    0    0    0 -0.00000000000E+00 -0.00000000000E+00  0.00000000000E+00  0.93800000000E+00  0.93800000000E+00 0.  1.
         11    1    1    2    0    0 -0.34030173475E-02 -0.15141250641E-02  0.23081728715E-01  0.23385902233E-01  0.51100000000E-03 0. -1.
    9000002    1    1    2    0    0  0.50651701652E+00  0.22958388174E+00  0.21387184140E+00  0.11112395832E+01  0.93800000000E+00 0.  1.
         22    1    1    2    0    0 -0.50311399918E+00 -0.22806975667E+00  0.37630463972E+01  0.38033745145E+01  0.00000000000E+00 0.  1.
</event>
<event>
 5    1  0.3005426E+001  0.1599593E+01  0.7818608E-02  0.3353805E+00
         11   -1    0    0    0    0  0.00000000000E+00  0.00000000000E+00  0.39999999674E+01  0.40000000000E+01  0.51100000000E-03 0.  1.
    9000002   -1    0    0    0    0 -0.00000000000E+00 -0.00000000000E+00  0.00000000000E+00  0.93800000000E+00  0.93800000000E+00 0.  1.
         11    1    1    2    0    0  0.22005448791E-02 -0.18590553647E-02  0.15053172025E-01  0.15334848993E-01  0.51100000000E-03 0.  1.
    9000002    1    1    2    0    0 -0.54640838928E+00  0.14120700180E+00  0.22068058093E+00  0.11167118984E+01  0.93800000000E+00 0.  1.
         22    1    1    2    0    0  0.54420784440E+00 -0.13934794644E+00  0.37642662144E+01  0.38059532526E+01  0.00000000000E+00 0.  1.
</event>
<event>
 5    1  0.3005426E+001  0.1545394E+01  0.7818608E-02  0.3414851E+00
         11   -1    0    0    0    0  0.00000000000E+00  0.00000000000E+00  0.39999999674E+01  0.40000000000E+01  0.51100000000E-03 0.  1.
    9000002   -1    0    0    0    0 -0.00000000000E+00 -0.00000000000E+00  0.00000000000E+00  0.93800000000E+00  0.93800000000E+00 0.  1.
         11    1    1    2    0    0 -0.24287969421E+00 -0.12081217815E-01  0.74316649882E+00  0.78194194654E+00  0.51100000000E-03 0.  1.
    9000002    1    1    2    0    0  0.15657617702E+00 -0.26954966725E+00  0.10895545316E+00  0.99442868678E+00  0.93800000000E+00 0.  1.
         22    1    1    2    0    0  0.86303517190E-01  0.28163088506E+00  0.31478780154E+01  0.31616293667E+01  0.00000000000E+00 0.  1.
</event>
<event>
 5    1  0.3005426E+001  0.1599672E+01  0.7818608E-02  0.3353719E+00
         11   -1    0    0    0    0  0.00000000000E+00  0.00000000000E+00  0.39999999674E+01  0.40000000000E+01  0.51100000000E-03 0.  1.
    9000002   -1    0    0    0    0 -0.00000000000E+00 -0.00000000000E+00  0.00000000000E+00  0.93800000000E+00  0.93800000000E+00 0. -1.
         11    1    1    2    0    0 -0.58421388786E-02  0.20748650065E+00  0.14152146819E+01  0.14303557724E+01  0.51100000000E-03 0.  1.
    9000002    1    1    2    0    0  0.87255590912E-02 -0.55563594945E+00  0.21353097432E+00  0.11109666605E+01  0.93800000000E+00 0. -1.
         22    1    1    2    0    0 -0.28834202126E-02  0.34814944880E+00  0.23712543111E+01  0.23966775671E+01  0.00000000000E+00 0.  1.
</event>
<event>
 5    1  0.3005426E+001  0.1574667E+01  0.7818608E-02  0.3381326E+00
         11   -1    0    0    0    0  0.00000000000E+00  0.00000000000E+00  0.39999999674E+01  0.40000000000E+01  0.51100000000E-03 0. -1.
    9000002   -1    0    0    0    0 -0.00000000000E+00 -0.00000000000E+00  0.00000000000E+00  0.93800000000E+00  0.93800000000E+00 0. -1.
         11    1    1    2    0    0 -0.10441421712E+00 -0.22344502293E-01  0.62630643259E+00  0.63534369766E+00  0.51100000000E-03 0. -1.
    9000002    1    1    2    0    0 -0.17470517385E+00 -0.13378388205E+00  0.51219538664E-01  0.96482509607E+00  0.93800000000E+00 0. -1.
         22    1    1    2    0    0  0.27911939097E+00  0.15612838435E+00  0.33224739961E+01  0.33378312063E+01  0.00000000000E+00 0. -1.
</event>
<event>
 5    1  0.3005426E+001  0.1599628E+01  0.7818608E-02  0.3353767E+00
         11   -1    0    0    0    0  0.00000000000E+00  0.00000000000E+00  0.39999999674E+01  0.40000000000E+01  0.51100000000E-03 0. -1.
    9000002   -1    0    0    0    0 -0.00000000000E+00 -0.00000000000E+00  0.00000000000E+00  0.93800000000E+00  0.93800000000E+00 0.  1.
         11    1    1    2    0    0  0.69870089614E-01 -0.94417861337E-01  0.47855957685E+00  0.49276372805E+00  0.51100000000E-03 0. -1.
    9000002    1    1    2    0    0 -0.47254459380E+00  0.70879770218E+00  0.54473049615E+00  0.13792272797E+01  0.93800000000E+00 0.  1.
         22    1    1    2    0    0  0.40267450419E+00 -0.61437984084E+00  0.29767098944E+01  0.30660089922E+01  0.00000000000E+00 0. -1.
</event>
<event>
 5    1  0.3005426E+001  0.1599674E+01  0.7818608E-02  0.3353717E+00
         11   -1    0    0    0    0  0.00000000000E+00  0.00000000000E+00  0.39999999674E+01  0.40000000000E+01  0.51100000000E-03 0.  1.
    9000002   -1    0    0    0    0 -0.00000000000E+00 -0.00000000000E+00  0.00000000000E+00  0.93800000000E+00  0.93800000000E+00 0. -1.
         11    1    1    2    0    0 -0.67476596225E-01  0.15439785506E-02  0.70064614002E+00  0.70388972827E+00  0.51100000000E-03 0.  1.
    9000002    1    1    2    0    0  0.37520835449E+00 -0.17347947165E-01  0.94878215901E-01  0.10148537512E+01  0.93800000000E+00 0. -1.
         22    1    1    2    0    0 -0.30773175827E+00  0.15803968614E-01  0.32044756114E+01  0.32192565205E+01  0.00000000000E+00 0.  1.
</event>
<event>
 5    1  0.3005426E+001  0.1599660E+01  0.7818608E-02  0.3353732E+00
         11   -1    0    0    0    0  0.00000000000E+00  0.00000000000E+00  0.39999999674E+01  0.40000000000E+01  0.51100000000E-03 0.  1.
    9000002   -1    0    0    0    0 -0.00000000000E+00 -0.00000000000E+00  0.00000000000E+00  0.93800000000E+00  0.93800000000E+00 0. -1.
         11    1    1    2    0    0 -0.15482331145E-01  0.15027739281E-01  0.21860382112E+00  0.21966662754E+00  0.51100000000E-03 0.  1.
    9000002    1    1    2    0    0  0.28170113824E+00 -0.22935575189E+00  0.88626209565E-01  0.10097812621E+01  0.93800000000E+00 0. -1.
         22    1    1    2    0    0 -0.26621880710E+00  0.21432801261E+00  0.36927699367E+01  0.37085521104E+01  0.00000000000E+00 0.  1.
</event>
<event>
 5    1  0.3005426E+001  0.1599672E+01  0.7818608E-02  0.3353719E+00
         11   -1    0    0    0    0  0.00000000000E+00  0.00000000000E+00  0.39999999674E+01  0.40000000000E+01  0.51100000000E-03 0.  1.
    9000002   -1    0    0    0    0 -0.00000000000E+00 -0.00000000000E+00  0.00000000000E+00  0.93800000000E+00  0.93800000000E+00 0.  1.
         11    1    1    2    0    0  0.17284061291E+00  0.15476722626E-01  0.14822190808E+01  0.14923428129E+01  0.51100000000E-03 0.  1.
    9000002    1    1    2    0    0 -0.45428824662E+00 -0.35062218195E-01  0.14112598549E+00  0.10523154061E+01  0.93800000000E+00 0.  1.
         22    1    1    2    0    0  0.28144763370E+00  0.19585495569E-01  0.23766549010E+01  0.23933417810E+01  0.00000000000E+00 0.  1.
</event>
<event>
 5    1  0.3005426E+001  0.1599659E+01  0.7818608E-02  0.3353734E+00
         11   -1    0    0    0    0  0.00000000000E+00  0.00000000000E+00  0.39999999674E+01  0.40000000000E+01  0.51100000000E-03 0. -1.
    9000002   -1    0    0    0    0 -0.00000000000E+00 -0.00000000000E+00  0.00000000000E+00  0.93800000000E+00  0.93800000000E+00 0. -1.
         11    1    1    2    0    0 -0.13323905602E+00 -0.66332969744E-01  0.11600508713E+01  0.11695601712E+01  0.51100000000E-03 0. -1.
    9000002    1    1    2    0    0  0.43108872350E+00  0.23166986026E+00  0.16368539251E+00  0.10705817668E+01  0.93800000000E+00 0. -1.
         22    1    1    2    0    0 -0.29784966748E+00 -0.16533689051E+00  0.26762637036E+01  0.26978580620E+01  0.00000000000E+00 0. -1.
</event>
<event>
 5    1  0.3005426E+001  0.1588757E+01  0.7818608E-02  0.3365657E+00
         11   -1    0    0    0    0  0.00000000000E+00  0.00000000000E+00  0.39999999674E+01  0.40000000000E+01  0.51100000000E-03 0. -1.
    9000002   -1    0    0    0    0 -0.00000000000E+00 -0.00000000000E+00  0.00000000000E+00  0.93800000000E+00  0.93800000000E+00 0.  1.
         11    1    1    2    0    0 -0.82842050218E-01 -0.20753113758E-01  0.90755560313E+00  0.91156509965E+00  0.51100000000E-03 0. -1.
    9000002    1    1    2    0    0  0.12285240871E+00 -0.30369226506E+00  0.80517239069E-01  0.99681930758E+00  0.93800000000E+00 0.  1.
         22    1    1    2    0    0 -0.40010358490E-01  0.32444537882E+00  0.30119271252E+01  0.30296155928E+01  0.00000000000E+00 0. -1.
</event>
<event>
 5    1  0.3005426E+001  0.1555184E+01  0.7818608E-02  0.3403489E+00
         11   -1    0    0    0    0  0.00000000000E+00  0.00000000000E+00  0.39999999674E+01  0.40000000000E+01  0.51100000000E-03 0.  1.
    9000002   -1    0    0    0    0 -0.00000000000E+00 -0.00000000000E+00  0.00000000000E+00  0.93800000000E+00  0.93800000000E+00 0. -1.
         11    1    1    2    0    0 -0.71554694188E-01  0.14620434505E-01  0.99345000238E-01  0.12330256104E+00  0.51100000000E-03 0.  1.
    9000002    1    1    2    0    0 -0.31645257779E+00  0.49874930341E+00  0.28814819749E+00  0.11453237470E+01  0.93800000000E+00 0. -1.
         22    1    1    2    0    0  0.38800727198E+00 -0.51336973791E+00  0.36125067696E+01  0.36693736920E+01  0.00000000000E+00 0.  1.
</event>
<event>
 5    1  0.3005426E+001  0.1599125E+01  0.7818608E-02  0.3354314E+00
         11   -1    0    0    0    0  0.00000000000E+00  0.00000000000E+00  0.39999999674E+01  0.40000000000E+01  0.51100000000E-03 0. -1.
    9000002   -1    0    0    0    0 -0.00000000000E+00 -0.00000000000E+00  0.00000000000E+00  0.93800000000E+00  0.93800000000E+00 0. -1.
         11    1    1    2    0    0  0.89161711852E-02 -0.48033912133E-01  0.58678376934E+00  0.58881423888E+00  0.51100000000E-03 0. -1.
    9000002    1    1    2    0    0 -0.17014222844E+00  0.39249170472E+00  0.12436395060E+00  0.10384163464E+01  0.93800000000E+00 0. -1.
         22    1    1    2    0    0  0.16122605726E+00 -0.34445779258E+00  0.32888522474E+01  0.33107694148E+01  0.00000000000E+00 0. -1.
</event>
<event>
 5    1  0.3005426E+001  0.1599409E+01  0.7818608E-02  0.3354005E+00
         11   -1    0    0    0    0  0.00000000000E+00  0.00000000000E+00  0.39999999674E+01  0.40000000000E+01  0.51100000000E-03 0. -1.
    9000002   -1    0    0    0    0 -0.00000000000E+00 -0.00000000000E+00  0.00000000000E+00  0.93800000000E+00  0.93800000000E+00 0. -1.
         11    1    1    2    0    0 -0.15968477340E-01  0.60467137958E-01  0.45406032922E+00  0.45834736907E+00  0.51100000000E-03 0. -1.
    9000002    1    1    2    0    0  0.15339380442E+00 -0.40815161426E+00  0.12909299334E+00  0.10424137376E+01  0.93800000000E+00 0. -1.
         22    1    1    2    0    0 -0.13742532708E+00  0.34768447630E+00  0.34168466448E+01  0.34372388933E+01  0.00000000000E+00 0. -1.
</event>
<event>
 5    1  0.3005426E+001  0.1599673E+01  0.7818608E-02  0.3353718E+00
         11   -1    0    0    0    0  0.00000000000E+00  0.00000000000E+00  0.39999999674E+01  0.40000000000E+01  0.51100000000E-03 0.  1.
    9000002   -1    0    0    0    0 -0.00000000000E+00 -0.00000000000E+00  0.00000000000E+00  0.93800000000E+00  0.93800000000E+00 0. -1.
         11    1    1    2    0    0 -0.52752011010E-03 -0.18049778933E-01  0.19980997053E+00  0.20062491929E+00  0.51100000000E-03 0. -1.
    9000002    1    1    2    0    0  0.28022644002E-01  0.35867038723E+00  0.86882097765E-01  0.10083760282E+01  0.93800000000E+00 0. -1.
         22    1    1    2    0    0 -0.27495123892E-01 -0.34062060830E+00  0.37133078991E+01  0.37289990525E+01  0.00000000000E+00 0.  1.
</event>
<event>
 5    1  0.3005426E+001  0.1494021E+01  0.7818608E-02  0.3477084E+00
         11   -1    0    0    0    0  0.00000000000E+00  0.00000000000E+00  0.39999999674E+01  0.40000000000E+01  0.51100000000E-03 0. -1.
    9000002   -1    0    0    0    0 -0.00000000000E+00 -0.00000000000E+00  0.00000000000E+00  0.93800000000E+00  0.93800000000E+00 0.  1.
         11    1    1    2    0    0  0.33618773043E+00  0.18120275765E+00  0.12441568129E+01  0.13014542119E+01  0.51100000000E-03 0. -1.
    9000002    1    1    2    0    0 -0.39662613580E-01 -0.34685713603E-01  0.82802810436E-01  0.94312063229E+00  0.93800000000E+00 0.  1.
         22    1    1    2    0    0 -0.29652511685E+00 -0.14651704405E+00  0.26730403441E+01  0.26934251558E+01  0.00000000000E+00 0. -1.
</event>
<event>
 5    1  0.3005426E+001  0.1524624E+01  0.7818608E-02  0.3439469E+00
         11   -1    0    0    0    0  0.00000000000E+00  0.00000000000E+00  0.39999999674E+01  0.40000000000E+01  0.51100000000E-03 0. -1.
    9000002   -1    0    0    0    0 -0.00000000000E+00 -0.00000000000E+00  0.00000000000E+00  0.93800000000E+00  0.93800000000E+00 0.  1.
         11    1    1    2    0    0  0.61449529549E-01  0.22057956570E+00  0.72598713852E+00  0.76124173289E+00  0.51100000000E-03 0. -1.
    9000002    1    1    2    0    0  0.45060360619E+00 -0.34040293372E-01  0.20680910969E+00  0.10615160665E+01  0.93800000000E+00 0.  1.
         22    1    1    2    0    0 -0.51205313574E+00 -0.18653927232E+00  0.30672037192E+01  0.31152422007E+01  0.00000000000E+00 0. -1.
</event>
<event>
 5    1  0.3005426E+001  0.1598984E+01  0.7818608E-02  0.3354467E+00
         11   -1    0    0    0    0  0.00000000000E+00  0.00000000000E+00  0.39999999674E+01  0.40000000000E+01  0.51100000000E-03 0. -1.
    9000002   -1    0    0    0    0 -0.00000000000E+00 -0.00000000000E+00  0.00000000000E+00  0.93800000000E+00  0.93800000000E+00 0. -1.
         11    1    1    2    0    0 -0.82151208489E-01 -0.21624323850E+00  0.13398529400E+01  0.13596750058E+01  0.51100000000E-03 0. -1.
    9000002    1    1    2    0    0  0.30367590636E+00  0.56274013383E+00  0.28853690319E+00  0.11713210742E+01  0.93800000000E+00 0. -1.
         22    1    1    2    0    0 -0.22152469787E+00 -0.34649689533E+00  0.23716101241E+01  0.24070039201E+01  0.00000000000E+00 0. -1.
</event>
<event>
 5    1  0.3005426E+001  0.1588950E+01  0.7818608E-02  0.3365444E+00
         11   -1    0    0    0    0  0.00000000000E+00  0.00000000000E+00  0.39999999674E+01  0.40000000000E+01  0.51100000000E-03 0. -1.
    9000002   -1    0    0    0    0 -0.00000000000E+00 -0.00000000000E+00  0.00000000000E+00  0.93800000000E+00  0.93800000000E+00 0.  1.
         11    1    1    2    0    0 -0.13548030356E+00 -0.96426400838E-02  0.54129136641E+00  0.55807212584E+00  0.51100000000E-03 0. -1.
    9000002    1    1    2    0    0  0.36271882539E+00  0.22041366902E+00  0.13104897358E+00  0.10378655815E+01  0.93800000000E+00 0.  1.
         22    1    1    2    0    0 -0.22723852182E+00 -0.21077102894E+00  0.33276596274E+01  0.33420622927E+01  0.00000000000E+00 0. -1.
</event>
<event>
 5    1  0.3005426E+001  0.1599534E+01  0.7818608E-02  0.3353869E+00
         11   -1    0    0    0    0  0.00000000000E+00  0.00000000000E+00  0.39999999674E+01  0.40000000000E+01  0.51100000000E-03 0. -1.
    9000002   -1    0    0    0    0 -0.00000000000E+00 -0.00000000000E+00  0.00000000000E+00  0.93800000000E+00  0.93800000000E+00 0.  1.
         11    1    1    2    0    0 -0.89816925621E-01 -0.98943996704E-01  0.12859691785E+01  0.12928936475E+01  0.51100000000E-03 0. -1.
    9000002    1    1    2    0    0  0.26897087212E+00  0.25958669072E+00  0.94063057708E-01  0.10141116501E+01  0.93800000000E+00 0.  1.
         22    1    1    2    0    0 -0.17915394650E+00 -0.16064269401E+00  0.26199677312E+01  0.26309947024E+01  0.00000000000E+00 0. -1.
</event>
<event>
 5    1  0.3005426E+001  0.1598910E+01  0.7818608E-02  0.3354547E+00
         11   -1    0    0    0    0  0.00000000000E+00  0.00000000000E+00  0.39999999674E+01  0.40000000000E+01  0.51100000000E-03 0.  1.
    9000002   -1    0    0    0    0 -0.00000000000E+00 -0.00000000000E+00  0.00000000000E+00  0.93800000000E+00  0.93800000000E+00 0. -1.
         11    1    1    2    0    0 -0.15573177103E-01  0.86100507979E-02  0.37245901855E+00  0.37288421587E+00  0.51100000000E-03 0.  1.
    9000002    1    1    2    0    0  0.36839293393E+00 -0.76666073334E-01  0.95853377975E-01  0.10151959962E+01  0.93800000000E+00 0. -1.
         22    1    1    2    0    0 -0.35281975683E+00  0.68056022536E-01  0.35316875708E+01  0.35499197880E+01  0.00000000000E+00 0.  1.
</event>
<event>
 5    1  0.3052794E+001  0.1552665E+01  0.7818608E-02  0.3406397E+00
         11   -1    0    0    0    0  0.00000000000E+00  0.00000000000E+00  0.39999999674E+01  0.40000000000E+01  0.51100000000E-03 0. -1.
    9000002   -1    0    0    0    0 -0.00000000000E+00 -0.00000000000E+00  0.00000000000E+00  0.93800000000E+00  0.93800000000E+00 0. -1.
         11    1    1    2    0    0  0.18154311014E+00 -0.25240633169E-01  0.76231001554E+00  0.78403559315E+00  0.51100000000E-03 0. -1.
    9000002    1    1    2    0    0  0.10371794658E+00 -0.99931856109E-01  0.49172984932E-01  0.95026615785E+00  0.93800000000E+00 0. -1.
         22    1    1    2    0    0 -0.28526105672E+00  0.12517248928E+00  0.31885169669E+01  0.32036982490E+01  0.00000000000E+00 0. -1.
</event>
<event>
 5    1  0.3005426E+001  0.1599465E+01  0.7818608E-02  0.3353944E+00
         11   -1    0    0    0    0  0.00000000000E+00  0.00000000000E+00  0.39999999674E+01  0.40000000000E+01  0.51100000000E-03 0. -1.
    9000002   -1    0    0    0    0 -0.00000000000E+00 -0.00000000000E+00  0.00000000000E+00  0.93800000000E+00  0.93800000000E+00 0.  1.
         11    1    1    2    0    0  0.83052945409E-01 -0.69933168569E-02  0.68873593007E+00  0.69376086710E+00  0.51100000000E-03 0. -1.
    9000002    1    1    2    0    0 -0.39366139266E+00  0.38935385318E-01  0.10566853660E+00  0.10234720787E+01  0.93800000000E+00 0.  1.
         22    1    1    2    0    0  0.31060844725E+00 -0.31942068461E-01  0.32055955007E+01  0.32207670542E+01  0.00000000000E+00 0. -1.
</event>
<event>
 5    1  0.3005426E+001  0.1599676E+01  0.7818608E-02  0.3353715E+00
         11   -1    0    0    0    0  0.00000000000E+00  0.00000000000E+00  0.39999999674E+01  0.40000000000E+01  0.51100000000E-03 0. -1.
    9000002   -1    0    0    0    0 -0.00000000000E+00 -0.00000000000E+00  0.00000000000E+00  0.93800000000E+00  0.93800000000E+00 0.  1.
         11    1    1    2    0    0 -0.21625733740E-01 -0.14777897703E+00  0.94546930726E+00  0.95719317303E+00  0.51100000000E-03 0. -1.
    9000002    1    1    2    0    0  0.83516794249E-01  0.58461367487E+00  0.24283635934E+00  0.11347077603E+01  0.93800000000E+00 0.  1.
         22    1    1    2    0    0 -0.61891060508E-01 -0.43683469784E+00  0.28116943008E+01  0.28460990667E+01  0.00000000000E+00 0. -1.
</event>
<event>
 5    1  0.3005426E+001  0.1599665E+01  0.7818608E-02  0.3353727E+00
         11   -1    0    0    0    0  0.00000000000E+00  0.00000000000E+00  0.39999999674E+01  0.40000000000E+01  0.51100000000E-03 0.  1.
    9000002   -1    0    0    0    0 -0.00000000000E+00 -0.00000000000E+00  0.00000000000E+00  0.93800000000E+00  0.93800000000E+00 0. -1.
         11    1    1    2    0    0  0.22415772650E-01  0.13906499069E+00  0.14701428234E+01  0.14768756620E+01  0.51100000000E-03 0.  1.
    9000002    1    1    2    0    0 -0.53855860503E-01 -0.37812573619E+00  0.98186431592E-01  0.10175284278E+01  0.93800000000E+00 0. -1.
         22    1    1    2    0    0  0.31440087853E-01  0.23906074551E+00  0.24316707123E+01  0.24435959102E+01  0.00000000000E+00 0.  1.
</event>
<event>
 5    1  0.3005426E+001  0.1599677E+01  0.7818608E-02  0.3353714E+00
         11   -1    0    0    0    0  0.00000000000E+00  0.00000000000E+00  0.39999999674E+01  0.40000000000E+01  0.51100000000E-03 0. -1.
    9000002   -1    0    0    0    0 -0.00000000000E+00 -0.00000000000E+00  0.00000000000E+00  0.93800000000E+00  0.93800000000E+00 0. -1.
         11    1    1    2    0    0 -0.65508593197E-01 -0.93302011123E-01  0.12252807041E+01  0.12305729178E+01  0.51100000000E-03 0.  1.
    9000002    1    1    2    0    0  0.20908453678E+00  0.29749604006E+00  0.88791258407E-01  0.10099248115E+01  0.93800000000E+00 0. -1.
         22    1    1    2    0    0 -0.14357594358E+00 -0.20419402894E+00  0.26859280048E+01  0.26975022707E+01  0.00000000000E+00 0. -1.
</event>
<event>
 5    1  0.3005426E+001  0.1599611E+01  0.7818608E-02  0.3353786E+00
         11   -1    0    0    0    0  0.00000000000E+00  0.00000000000E+00  0.39999999674E+01  0.40000000000E+01  0.51100000000E-03 0. -1.
    9000002   -1    0    0    0    0 -0.00000000000E+00 -0.00000000000E+00  0.00000000000E+00  0.93800000000E+00  0.93800000000E+00 0.  1.
         11    1    1    2    0    0 -0.17848572477E-01 -0.23900859400E-01  0.24596296721E+00  0.24776574618E+00  0.51100000000E-03 0. -1.
    9000002    1    1    2    0    0  0.20680818793E+00  0.38633562806E+00  0.13025351976E+00  0.10434724834E+01  0.93800000000E+00 0.  1.
         22    1    1    2    0    0 -0.18895961546E+00 -0.36243476866E+00  0.36237834804E+01  0.36467617705E+01  0.00000000000E+00 0. -1.
</event>
<event>
 5    1  0.3005426E+001  0.1598075E+01  0.7818608E-02  0.3355455E+00
         11   -1    0    0    0    0  0.00000000000E+00  0.00000000000E+00  0.39999999674E+01  0.40000000000E+01  0.51100000000E-03 0.  1.
    9000002   -1    0    0    0    0 -0.00000000000E+00 -0.00000000000E+00  0.00000000000E+00  0.93800000000E+00  0.93800000000E+00 0.  1.
         11    1    1    2    0    0  0.19031881532E-01 -0.27847707248E-01  0.27714610247E+00  0.27919156605E+00  0.51100000000E-03 0.  1.
    9000002    1    1    2    0    0 -0.40779265192E+00  0.72716649852E-01  0.11729940152E+00  0.10320783438E+01  0.93800000000E+00 0.  1.
         22    1    1    2    0    0  0.38876077038E+00 -0.44868942605E-01  0.36055544634E+01  0.36267300902E+01  0.00000000000E+00 0.  1.
</event>
<event>
 5    1  0.3005426E+001  0.1482544E+01  0.7818608E-02  0.3491623E+00
         11   -1    0    0    0    0  0.00000000000E+00  0.00000000000E+00  0.39999999674E+01  0.40000000000E+01  0.51100000000E-03 0. -1.
    9000002   -1    0    0    0    0 -0.00000000000E+00 -0.00000000000E+00  0.00000000000E+00  0.93800000000E+00  0.93800000000E+00 0.  1.
         11    1    1    2    0    0  0.28852956637E-01 -0.29371413169E+00  0.68314508777E+00  0.74416930623E+00  0.51100000000E-03 0. -1.
    9000002    1    1    2    0    0  0.30152270723E+00 -0.75369159503E-01  0.16323138652E+00  0.10015412816E+01  0.93800000000E+00 0.  1.
         22    1    1    2    0    0 -0.33037566387E+00  0.36908329119E+00  0.31536234931E+01  0.31922894122E+01  0.00000000000E+00 0. -1.
</event>
<event>
 5    1  0.3005426E+001  0.1548143E+01  0.7818608E-02  0.3411644E+00
         11   -1    0    0    0    0  0.00000000000E+00  0.00000000000E+00  0.39999999674E+01  0.40000000000E+01  0.51100000000E-03 0. -1.
    9000002   -1    0    0    0    0 -0.00000000000E+00 -0.00000000000E+00  0.00000000000E+00  0.93800000000E+00  0.93800000000E+00 0.  1.
         11    1    1    2    0    0  0.24106621308E-01 -0.21294107197E+00  0.94752838590E+00  0.97146041223E+00  0.51100000000E-03 0. -1.
    9000002    1    1    2    0    0 -0.43933115233E+00 -0.29500948400E-01  0.17708701933E+00  0.10512306977E+01  0.93800000000E+00 0.  1.
         22    1    1    2    0    0  0.41522453102E+00  0.24244202037E+00  0.28753845621E+01  0.29153088901E+01  0.00000000000E+00 0. -1.
</event>
<event>
 5    1  0.3005426E+001  0.1598131E+01  0.7818608E-02  0.3355395E+00
         11   -1    0    0    0    0  0.00000000000E+00  0.00000000000E+00  0.39999999674E+01  0.40000000000E+01  0.51100000000E-03 0.  1.
    9000002   -1    0    0    0    0 -0.00000000000E+00 -0.00000000000E+00  0.00000000000E+00  0.93800000000E+00  0.93800000000E+00 0. -1.
         11    1    1    2    0    0  0.13427002212E+00  0.45598162393E-01  0.64478247174E+00  0.66019113008E+00  0.51100000000E-03 0.  1.
    9000002    1    1    2    0    0 -0.62590612040E+00 -0.11429907431E+00  0.28633969112E+00  0.11690411321E+01  0.93800000000E+00 0. -1.
         22    1    1    2    0    0  0.49163609828E+00  0.68700911915E-01  0.30688778045E+01  0.31087677378E+01  0.00000000000E+00 0.  1.
</event>
<event>
 5    1  0.3005426E+001  0.1598855E+01  0.7818608E-02  0.3354607E+00
         11   -1    0    0    0    0  0.00000000000E+00  0.00000000000E+00  0.39999999674E+01  0.40000000000E+01  0.51100000000E-03 0.  1.
    9000002   -1    0    0    0    0 -0.00000000000E+00 -0.00000000000E+00  0.00000000000E+00  0.93800000000E+00  0.93800000000E+00 0. -1.
         11    1    1    2    0    0 -0.18319994778E+00  0.14417013666E+00  0.14026966053E+01  0.14219371565E+01  0.51100000000E-03 0.  1.
    9000002    1    1    2    0    0  0.41238596271E+00 -0.42988787819E+00  0.24817690901E+00  0.11385523915E+01  0.93800000000E+00 0. -1.
         22    1    1    2    0    0 -0.22918601492E+00  0.28571774153E+00  0.23491264530E+01  0.23775104520E+01  0.00000000000E+00 0.  1.
</event>
<event>
 5    1  0.3005426E+001  0.1599579E+01  0.7818608E-02  0.3353821E+00
         11   -1    0    0    0    0  0.00000000000E+00  0.00000000000E+00  0.39999999674E+01  0.40000000000E+01  0.51100000000E-03 0.  1.
    9000002   -1    0    0    0    0 -0.00000000000E+00 -0.00000000000E+00  0.00000000000E+00  0.93800000000E+00  0.93800000000E+00 0.  1.
         11    1    1    2    0    0  0.38626153666E-01  0.88345500418E-01  0.10938273160E+01  0.10980689257E+01  0.51100000000E-03 0.  1.
    9000002    1    1    2    0    0 -0.17296082480E+00 -0.33113369555E+00  0.93913144560E-01  0.10140160995E+01  0.93800000000E+00 0.  1.
         22    1    1    2    0    0  0.13433467113E+00  0.24278819513E+00  0.28122595068E+01  0.28259149748E+01  0.00000000000E+00 0. -1.
</event>
<event>
 5    1  0.3005426E+001  0.1597803E+01  0.7818608E-02  0.3355751E+00
         11   -1    0    0    0    0  0.00000000000E+00  0.00000000000E+00  0.39999999674E+01  0.40000000000E+01  0.51100000000E-03 0.  1.
    9000002   -1    0    0    0    0 -0.00000000000E+00 -0.00000000000E+00  0.00000000000E+00  0.93800000000E+00  0.93800000000E+00 0.  1.
         11    1    1    2    0    0  0.15099762548E-01 -0.24573552629E-01  0.11167406723E+00  0.11533958874E+00  0.51100000000E-03 0.  1.
    9000002    1    1    2    0    0  0.95831356687E-01  0.74834456892E+00  0.41545906386E+00  0.12734415874E+01  0.93800000000E+00 0.  1.
         22    1    1    2    0    0 -0.11093111924E+00 -0.72377101629E+00  0.34728668363E+01  0.35492188239E+01  0.00000000000E+00 0.  1.
</event>
<event>
 5    1  0.3005426E+001  0.1598894E+01  0.7818608E-02  0.3354565E+00
         11   -1    0    0    0    0  0.00000000000E+00  0.00000000000E+00  0.39999999674E+01  0.40000000000E+01  0.51100000000E-03 0.  1.
    9000002   -1    0    0    0    0 -0.00000000000E+00 -0.00000000000E+00  0.00000000000E+00  0.93800000000E+00  0.93800000000E+00 0.  1.
         11    1    1    2    0    0 -0.12890092694E+00 -0.72986618713E-01  0.12582213618E+01  0.12669111066E+01  0.51100000000E-03 0.  1.
    9000002    1    1    2    0    0  0.46341372537E+00  0.28162929552E+00  0.20355193121E+00  0.11024267457E+01  0.93800000000E+00 0.  1.
         22    1    1    2    0    0 -0.33451279842E+00 -0.20864267680E+00  0.25382266743E+01  0.25686621477E+01  0.00000000000E+00 0.  1.
</event>
<event>
 5    1  0.3005426E+001  0.1599575E+01  0.7818608E-02  0.3353824E+00
         11   -1    0    0    0    0  0.00000000000E+00  0.00000000000E+00  0.39999999674E+01  0.40000000000E+01  0.51100000000E-03 0. -1.
    9000002   -1    0    0    0    0 -0.00000000000E+00 -0.00000000000E+00  0.00000000000E+00  0.93800000000E+00  0.93800000000E+00 0. -1.
         11    1    1    2    0    0 -0.18250801975E-01 -0.59187794241E-01  0.57386969137E+00  0.57720271184E+00  0.51100000000E-03 0. -1.
    9000002    1    1    2    0    0  0.17196411231E+00  0.36845237940E+00  0.11169805711E+00  0.10284207640E+01  0.93800000000E+00 0. -1.
         22    1    1    2    0    0 -0.15371331034E+00 -0.30926458516E+00  0.33144322189E+01  0.33323765242E+01  0.00000000000E+00 0. -1.
</event>
<event>
 5    1  0.3005426E+001  0.1518167E+01  0.7818608E-02  0.3447270E+00
         11   -1    0    0    0    0  0.00000000000E+00  0.00000000000E+00  0.39999999674E+01  0.40000000000E+01  0.51100000000E-03 0.  1.
    9000002   -1    0    0    0    0 -0.00000000000E+00 -0.00000000000E+00  0.00000000000E+00  0.93800000000E+00  0.93800000000E+00 0.  1.
         11    1    1    2    0    0  0.64380224605E-01  0.23221397936E+00  0.90376965017E+00  0.93534378023E+00  0.51100000000E-03 0.  1.
    9000002    1    1    2    0    0 -0.32086205178E+00  0.25288580797E+00  0.18442296399E+00  0.10395958435E+01  0.93800000000E+00 0.  1.
         22    1    1    2    0    0  0.25648182718E+00 -0.48509978733E+00  0.29118073532E+01  0.29630603763E+01  0.00000000000E+00 0.  1.
</event>
<event>
 5    1  0.3005426E+001  0.1597415E+01  0.7818608E-02  0.3356173E+00
         11   -1    0    0    0    0  0.00000000000E+00  0.00000000000E+00  0.39999999674E+01  0.40000000000E+01  0.51100000000E-03 0.  1.
    9000002   -1    0    0    0    0 -0.00000000000E+00 -0.00000000000E+00  0.00000000000E+00  0.93800000000E+00  0.93800000000E+00 0. -1.
         11    1    1    2    0    0  0.80225662633E-01 -0.81617363652E-01  0.14951590506E+01  0.14995327268E+01  0.51100000000E-03 0.  1.
    9000002    1    1    2    0    0 -0.34844506759E+00  0.17143651030E+00  0.10343981855E+00  0.10204647168E+01  0.93800000000E+00 0. -1.
         22    1    1    2    0    0  0.26821940496E+00 -0.89819146643E-01  0.24014010982E+01  0.24180025564E+01  0.00000000000E+00 0.  1.
</event>
<event>
 5    1  0.3005426E+001  0.1599677E+01  0.7818608E-02  0.3353714E+00
         11   -1    0    0    0    0  0.00000000000E+00  0.00000000000E+00  0.39999999674E+01  0.40000000000E+01  0.51100000000E-03 0.  1.
    9000002   -1    0    0    0    0 -0.00000000000E+00 -0.00000000000E+00  0.00000000000E+00  0.93800000000E+00  0.93800000000E+00 0.  1.
         11    1    1    2    0    0  0.24489081017E+00  0.17315073155E+00  0.11192452380E+01  0.11587332948E+01  0.51100000000E-03 0.  1.
    9000002    1    1    2    0    0 -0.73794761847E+00 -0.52012429041E+00  0.62465803749E+00  0.14440005640E+01  0.93800000000E+00 0.  1.
         22    1    1    2    0    0  0.49305680830E+00  0.34697355886E+00  0.22560966919E+01  0.23352661411E+01  0.00000000000E+00 0. -1.
</event>
<event>
 5    1  0.3005426E+001  0.1546271E+01  0.7818608E-02  0.3413827E+00
         11   -1    0    0    0    0  0.00000000000E+00  0.00000000000E+00  0.39999999674E+01  0.40000000000E+01  0.51100000000E-03 0. -1.
    9000002   -1    0    0    0    0 -0.00000000000E+00 -0.00000000000E+00  0.00000000000E+00  0.93800000000E+00  0.93800000000E+00 0. -1.
         11    1    1    2    0    0 -0.13625831507E+00  0.17325381680E+00  0.83907199995E+00  0.86753979487E+00  0.51100000000E-03 0. -1.
    9000002    1    1    2    0    0  0.16310309683E+00  0.14872227497E+00  0.73768999104E-01  0.96644027260E+00  0.93800000000E+00 0. -1.
         22    1    1    2    0    0 -0.26844781757E-01 -0.32197609177E+00  0.30871589683E+01  0.31040199325E+01  0.00000000000E+00 0. -1.
</event>
<event>
 5    1  0.3005426E+001  0.1599673E+01  0.7818608E-02  0.3353718E+00
         11   -1    0    0    0    0  0.00000000000E+00  0.00000000000E+00  0.39999999674E+01  0.40000000000E+01  0.51100000000E-03 0.  1.
    9000002   -1    0    0    0    0 -0.00000000000E+00 -0.00000000000E+00  0.00000000000E+00  0.93800000000E+00  0.93800000000E+00 0.  1.
         11    1    1    2    0    0 -0.45045535804E-01  0.48558394762E-01  0.66069190036E+00  0.66400381499E+00  0.51100000000E-03 0.  1.
    9000002    1    1    2    0    0  0.25770801488E+00 -0.29228698043E+00  0.10229188464E+00  0.10208588196E+01  0.93800000000E+00 0.  1.
         22    1    1    2    0    0 -0.21266247908E+00  0.24372858567E+00  0.32370161824E+01  0.32531373654E+01  0.00000000000E+00 0.  1.
</event>
<event>
 5    1  0.3005426E+001  0.1599670E+01  0.7818608E-02  0.3353722E+00
         11   -1    0    0    0    0  0.00000000000E+00  0.00000000000E+00  0.39999999674E+01  0.40000000000E+01  0.51100000000E-03 0. -1.
    9000002   -1    0    0    0    0 -0.00000000000E+00 -0.00000000000E+00  0.00000000000E+00  0.93800000000E+00  0.93800000000E+00 0. -1.
         11    1    1    2    0    0  0.17626049296E+00  0.16214416494E+00  0.13866725711E+01  0.14072027474E+01  0.51100000000E-03 0. -1.
    9000002    1    1    2    0    0 -0.46662067001E+00 -0.44070079361E+00  0.29013759282E+00  0.11730199751E+01  0.93800000000E+00 0. -1.
         22    1    1    2    0    0  0.29036017705E+00  0.27855662867E+00  0.23231898034E+01  0.23577772775E+01  0.00000000000E+00 0. -1.
</event>
<event>
 5    1  0.3005426E+001  0.1599677E+01  0.7818608E-02  0.3353714E+00
         11   -1    0    0    0    0  0.00000000000E+00  0.00000000000E+00  0.39999999674E+01  0.40000000000E+01  0.51100000000E-03 0. -1.
    9000002   -1    0    0    0    0 -0.00000000000E+00 -0.00000000000E+00  0.00000000000E+00  0.93800000000E+00  0.93800000000E+00 0.  1.
         11    1    1    2    0    0 -0.12043877738E+00 -0.15518490417E-01  0.13075296020E+01  0.13131565954E+01  0.51100000000E-03 0. -1.
    9000002    1    1    2    0    0  0.36068880517E+00  0.45576823865E-01  0.88759374092E-01  0.10098989492E+01  0.93800000000E+00 0.  1.
         22    1    1    2    0    0 -0.24025002779E+00 -0.30058333448E-01  0.26037109912E+01  0.26149444555E+01  0.00000000000E+00 0. -1.
</event>
<event>
 5    1  0.3005426E+001  0.1599607E+01  0.7818608E-02  0.3353790E+00
         11   -1    0    0    0    0  0.00000000000E+00  0.00000000000E+00  0.39999999674E+01  0.40000000000E+01  0.51100000000E-03 0.  1.
    9000002   -1    0    0    0    0 -0.00000000000E+00 -0.00000000000E+00  0.00000000000E+00  0.93800000000E+00  0.93800000000E+00 0.  1.
         11    1    1    2    0    0 -0.12680109414E+00 -0.47472840294E-02  0.14326263175E+01  0.14382348490E+01  0.51100000000E-03 0.  1.
    9000002    1    1    2    0    0  0.36853734916E+00 -0.86533436635E-03  0.91317702234E-01  0.10119305556E+01  0.93800000000E+00 0.  1.
         22    1    1    2    0    0 -0.24173625502E+00  0.56126183958E-02  0.24760559477E+01  0.24878345955E+01  0.00000000000E+00 0.  1.
</event>
<event>
 5    1  0.3005426E+001  0.1599668E+01  0.7818608E-02  0.3353724E+00
         11   -1    0    0    0    0  0.00000000000E+00  0.00000000000E+00  0.39999999674E+01  0.40000000000E+01  0.51100000000E-03 0.  1.
    9000002   -1    0    0    0    0 -0.00000000000E+00 -0.00000000000E+00  0.00000000000E+00  0.93800000000E+00  0.93800000000E+00 0.  1.
         11    1    1    2    0    0  0.42809050569E-03  0.12828027079E+00  0.12484430415E+01  0.12550164541E+01  0.51100000000E-03 0.  1.
    9000002    1    1    2    0    0 -0.11983769350E-01 -0.39834351884E+00  0.10711568633E+00  0.10247628701E+01  0.93800000000E+00 0.  1.
         22    1    1    2    0    0  0.11555678844E-01  0.27006324805E+00  0.26444412395E+01  0.26582206758E+01  0.00000000000E+00 0. -1.
</event>
<event>
 5    1  0.3005426E+001  0.1599675E+01  0.7818608E-02  0.3353716E+00
         11   -1    0    0    0    0  0.00000000000E+00  0.00000000000E+00  0.39999999674E+01  0.40000000000E+01  0.51100000000E-03 0. -1.
    9000002   -1    0    0    0    0 -0.00000000000E+00 -0.00000000000E+00  0.00000000000E+00  0.93800000000E+00  0.93800000000E+00 0.  1.
         11    1    1    2    0    0 -0.16245925657E-01  0.74812775369E-01  0.57211407068E+00  0.57721369739E+00  0.51100000000E-03 0. -1.
    9000002    1    1    2    0    0  0.10047318121E+00 -0.49880642086E+00  0.17750112515E+00  0.10817824897E+01  0.93800000000E+00 0.  1.
         22    1    1    2    0    0 -0.84227255558E-01  0.42399364549E+00  0.32503847715E+01  0.32790038129E+01  0.00000000000E+00 0. -1.
</event>
<event>
 5    1  0.3005426E+001  0.1597749E+01  0.7818608E-02  0.3355810E+00
         11   -1    0    0    0    0  0.00000000000E+00  0.00000000000E+00  0.39999999674E+01  0.40000000000E+01  0.51100000000E-03 0.  1.
    9000002   -1    0    0    0    0 -0.00000000000E+00 -0.00000000000E+00  0.00000000000E+00  0.93800000000E+00  0.93800000000E+00 0.  1.
         11    1    1    2    0    0 -0.14308257128E-01  0.89957466472E-01  0.89664174735E+00  0.90125676486E+00  0.51100000000E-03 0.  1.
    9000002    1    1    2    0    0  0.25065708404E+00 -0.35091856835E+00  0.12761243118E+00  0.10402411970E+01  0.93800000000E+00 0.  1.
         22    1    1    2    0    0 -0.23634882691E+00  0.26096110188E+00  0.29757457888E+01  0.29965020381E+01  0.00000000000E+00 0.  1.
</event>
<event>
 5    1  0.3005426E+001  0.1599668E+01  0.7818608E-02  0.3353724E+00
         11   -1    0    0    0    0  0.00000000000E+00  0.00000000000E+00  0.39999999674E+01  0.40000000000E+01  0.51100000000E-03 0.  1.
    9000002   -1    0    0    0    0 -0.00000000000E+00 -0.00000000000E+00  0.00000000000E+00  0.93800000000E+00  0.93800000000E+00 0. -1.
         11    1    1    2    0    0  0.13207717265E-01  0.15574049800E+00  0.13617542572E+01  0.13706948839E+01  0.51100000000E-03 0.  1.
    9000002    1    1    2    0    0 -0.46534416677E-01 -0.44540057321E+00  0.13617250987E+00  0.10483005652E+01  0.93800000000E+00 0. -1.
         22    1    1    2    0    0  0.33326699411E-01  0.28966007520E+00  0.25020732003E+01  0.25190045510E+01  0.00000000000E+00 0.  1.
</event>
<event>
 5    1  0.3005426E+001  0.1599668E+01  0.7818608E-02  0.3353724E+00
         11   -1    0    0    0    0  0.00000000000E+00  0.00000000000E+00  0.39999999674E+01  0.40000000000E+01  0.51100000000E-03 0.  1.
    9000002   -1    0    0    0    0 -0.00000000000E+00 -0.00000000000E+00  0.00000000000E+00  0.93800000000E+00  0.93800000000E+00 0.  1.
         11    1    1    2    0    0  0.24435043913E-01 -0.86948072959E-01  0.90640272582E+00  0.91089143220E+00  0.51100000000E-03 0.  1.
    9000002    1    1    2    0    0 -0.99560095128E-01  0.38551161997E+00  0.10691504466E+00  0.10246005312E+01  0.93800000000E+00 0.  1.
         22    1    1    2    0    0  0.75125051214E-01 -0.29856354701E+00  0.29866821969E+01  0.30025080366E+01  0.00000000000E+00 0.  1.
</event>
<event>
 5    1  0.3005426E+001  0.1599672E+01  0.7818608E-02  0.3353719E+00
         11   -1    0    0    0    0  0.00000000000E+00  0.00000000000E+00  0.39999999674E+01  0.40000000000E+01  0.51100000000E-03 0.  1.
    9000002   -1    0    0    0    0 -0.00000000000E+00 -0.00000000000E+00  0.00000000000E+00  0.93800000000E+00  0.93800000000E+00 0.  1.
         11    1    1    2    0    0  0.68458697424E-02  0.90046339141E-02  0.11428095251E+00  0.11484052678E+00  0.51100000000E-03 0.  1.
    9000002    1    1    2    0    0 -0.20956388844E+00 -0.29932354959E+00  0.89680814736E-01  0.10106424982E+01  0.93800000000E+00 0.  1.
         22    1    1    2    0    0  0.20271801869E+00  0.29031891568E+00  0.37960382001E+01  0.38125169750E+01  0.00000000000E+00 0.  1.
</event>
<event>
 5    1  0.3005426E+001  0.1458892E+01  0.7818608E-02  0.3522365E+00
         11   -1    0    0    0    0  0.00000000000E+00  0.00000000000E+00  0.39999999674E+01  0.40000000000E+01  0.51100000000E-03 0. -1.
    9000002   -1    0    0    0    0 -0.00000000000E+00 -0.00000000000E+00  0.00000000000E+00  0.93800000000E+00  0.93800000000E+00 0.  1.
         11    1    1    2    0    0  0.22804420044E+00 -0.18332853473E+00  0.23950657537E+00  0.37812322035E+00  0.51100000000E-03 0. -1.
    9000002    1    1    2    0    0  0.12744130394E+00  0.62788621248E+00  0.48472884950E+00  0.12350256837E+01  0.93800000000E+00 0.  1.
         22    1    1    2    0    0 -0.35548550437E+00 -0.44455767775E+00  0.32757645425E+01  0.33248510960E+01  0.00000000000E+00 0.  1.
</event>
<event>
 5    1  0.3005426E+001  0.1599672E+01  0.7818608E-02  0.3353719E+00
         11   -1    0    0    0    0  0.00000000000E+00  0.00000000000E+00  0.39999999674E+01  0.40000000000E+01  0.51100000000E-03 0. -1.
    9000002   -1    0    0    0    0 -0.00000000000E+00 -0.00000000000E+00  0.00000000000E+00  0.93800000000E+00  0.93800000000E+00 0. -1.
         11    1    1    2    0    0 -0.14835753169E+00  0.24906616492E-01  0.84589063648E+00  0.85916327130E+00  0.51100000000E-03 0. -1.
    9000002    1    1    2    0    0  0.64051950109E+00 -0.10562235548E+00  0.29732106673E+00  0.11788405872E+01  0.93800000000E+00 0. -1.
         22    1    1    2    0    0 -0.49216196940E+00  0.80715738987E-01  0.28567882641E+01  0.28999961415E+01  0.00000000000E+00 0. -1.
</event>
<event>
 5    1  0.3005426E+001  0.1599677E+01  0.7818608E-02  0.3353714E+00
         11   -1    0    0    0    0  0.00000000000E+00  0.00000000000E+00  0.39999999674E+01  0.40000000000E+01  0.51100000000E-03 0.  1.
    9000002   -1    0    0    0    0 -0.00000000000E+00 -0.00000000000E+00  0.00000000000E+00  0.93800000000E+00  0.93800000000E+00 0. -1.
         11    1    1    2    0    0  0.62082332327E-01 -0.29399686379E-01  0.68383768811E+00  0.68727927537E+00  0.51100000000E-03 0. -1.
    9000002    1    1    2    0    0 -0.35336504246E+00  0.16560985676E+00  0.10259853032E+00  0.10211091696E+01  0.93800000000E+00 0. -1.
         22    1    1    2    0    0  0.29128271013E+00 -0.13621017038E+00  0.32135637489E+01  0.32296115550E+01  0.00000000000E+00 0.  1.
</event>
<event>
 5    1  0.3005426E+001  0.1589091E+01  0.7818608E-02  0.3365289E+00
         11   -1    0    0    0    0  0.00000000000E+00  0.00000000000E+00  0.39999999674E+01  0.40000000000E+01  0.51100000000E-03 0.  1.
    9000002   -1    0    0    0    0 -0.00000000000E+00 -0.00000000000E+00  0.00000000000E+00  0.93800000000E+00  0.93800000000E+00 0.  1.
         11    1    1    2    0    0  0.19539463662E-01  0.25522753463E-01  0.11892050905E+01  0.11896395294E+01  0.51100000000E-03 0.  1.
    9000002    1    1    2    0    0 -0.13468335820E+00  0.28517290754E+00  0.74852066503E-01  0.99242633280E+00  0.93800000000E+00 0.  1.
         22    1    1    2    0    0  0.11514389454E+00 -0.31069566100E+00  0.27359428104E+01  0.27559341378E+01  0.00000000000E+00 0.  1.
</event>
<event>
 5    1  0.3005426E+001  0.1599677E+01  0.7818608E-02  0.3353714E+00
         11   -1    0    0    0    0  0.00000000000E+00  0.00000000000E+00  0.39999999674E+01  0.40000000000E+01  0.51100000000E-03 0. -1.
    9000002   -1    0    0    0    0 -0.00000000000E+00 -0.00000000000E+00  0.00000000000E+00  0.93800000000E+00  0.93800000000E+00 0. -1.
         11    1    1    2    0    0  0.11972398875E+00 -0.16554678452E+00  0.14781946802E+01  0.14922464089E+01  0.51100000000E-03 0. -1.
    9000002    1    1    2    0    0 -0.30724976627E+00  0.42815722116E+00  0.19100932590E+00  0.10927257604E+01  0.93800000000E+00 0. -1.
         22    1    1    2    0    0  0.18752577752E+00 -0.26261043665E+00  0.23307959613E+01  0.23530278307E+01  0.00000000000E+00 0. -1.
</event>
<event>
 5    1  0.3005426E+001  0.1599676E+01  0.7818608E-02  0.3353715E+00
         11   -1    0    0    0    0  0.00000000000E+00  0.00000000000E+00  0.39999999674E+01  0.40000000000E+01  0.51100000000E-03 0.  1.
    9000002   -1    0    0    0    0 -0.00000000000E+00 -0.00000000000E+00  0.00000000000E+00  0.93800000000E+00  0.93800000000E+00 0.  1.
         11    1    1    2    0    0 -0.55032757038E-02 -0.53860903900E-01  0.46608352375E+00  0.46921785478E+00  0.51100000000E-03 0.  1.
    9000002    1    1    2    0    0  0.42503290209E-01  0.44761072377E+00  0.13729800430E+00  0.10492171518E+01  0.93800000000E+00 0.  1.
         22    1    1    2    0    0 -0.37000014506E-01 -0.39374981987E+00  0.33966184393E+01  0.34195649934E+01  0.00000000000E+00 0.  1.
</event>
<event>
 5    1  0.3005426E+001  0.1598698E+01  0.7818608E-02  0.3354778E+00
         11   -1    0    0    0    0  0.00000000000E+00  0.00000000000E+00  0.39999999674E+01  0.40000000000E+01  0.51100000000E-03 0. -1.
    9000002   -1    0    0    0    0 -0.00000000000E+00 -0.00000000000E+00  0.00000000000E+00  0.93800000000E+00  0.93800000000E+00 0. -1.
         11    1    1    2    0    0 -0.10892923760E+00  0.23369049674E-01  0.62855812713E+00  0.63835512968E+00  0.51100000000E-03 0. -1.
    9000002    1    1    2    0    0  0.58304762742E+00  0.13999490680E-01  0.23743899807E+00  0.11297618330E+01  0.93800000000E+00 0. -1.
         22    1    1    2    0    0 -0.47411838982E+00 -0.37368540354E-01  0.31340028422E+01  0.31698830373E+01  0.00000000000E+00 0. -1.
</event>
<event>
 5    1  0.3005426E+001  0.1599182E+01  0.7818608E-02  0.3354252E+00
         11   -1    0    0    0    0  0.00000000000E+00  0.00000000000E+00  0.39999999674E+01  0.40000000000E+01  0.51100000000E-03 0. -1.
    9000002   -1    0    0    0    0 -0.00000000000E+00 -0.00000000000E+00  0.00000000000E+00  0.93800000000E+00  0.93800000000E+00 0. -1.
         11    1    1    2    0    0  0.63994477866E-01  0.28482696328E-01  0.73660138844E+00  0.73992460680E+00  0.51100000000E-03 0. -1.
    9000002    1    1    2    0    0 -0.43994134491E+00 -0.11317322243E+00  0.14067223178E+00  0.10516602313E+01  0.93800000000E+00 0. -1.
         22    1    1    2    0    0  0.37594686704E+00  0.84690526105E-01  0.31227263471E+01  0.31464151619E+01  0.00000000000E+00 0. -1.
</event>
<event>
 5    1  0.3005426E+001  0.1599664E+01  0.7818608E-02  0.3353728E+00
         11   -1    0    0    0    0  0.00000000000E+00  0.00000000000E+00  0.39999999674E+01  0.40000000000E+01  0.51100000000E-03 0.  1.
    9000002   -1    0    0    0    0 -0.00000000000E+00 -0.00000000000E+00  0.00000000000E+00  0.93800000000E+00  0.93800000000E+00 0. -1.
         11    1    1    2    0    0 -0.52995782295E-01 -0.50336484082E-01  0.79635489915E+00  0.79970225777E+00  0.51100000000E-03 0.  1.
    9000002    1    1    2    0    0  0.25565060762E+00  0.26355693411E+00  0.90584536986E-01  0.10113698873E+01  0.93800000000E+00 0. -1.
         22    1    1    2    0    0 -0.20265482532E+00 -0.21322045003E+00  0.31130605312E+01  0.31269278549E+01  0.00000000000E+00 0.  1.
</event>
<event>
 5    1  0.3005426E+001  0.1599386E+01  0.7818608E-02  0.3354030E+00
         11   -1    0    0    0    0  0.00000000000E+00  0.00000000000E+00  0.39999999674E+01  0.40000000000E+01  0.51100000000E-03 0.  1.
    9000002   -1    0    0    0    0 -0.00000000000E+00 -0.00000000000E+00  0.00000000000E+00  0.93800000000E+00  0.93800000000E+00 0.  1.
         11    1    1    2    0    0 -0.16899952526E-02  0.12916101913E+00  0.79192783829E+00  0.80239353632E+00  0.51100000000E-03 0.  1.
    9000002    1    1    2    0    0 -0.16998788256E-01 -0.67492456361E+00  0.32396175643E+00  0.12002530337E+01  0.93800000000E+00 0.  1.
         22    1    1    2    0    0  0.18688783509E-01  0.54576354448E+00  0.28841103726E+01  0.29353534299E+01  0.00000000000E+00 0.  1.
</event>
<event>
 5    1  0.3005426E+001  0.1599444E+01  0.7818608E-02  0.3353967E+00
         11   -1    0    0    0    0  0.00000000000E+00  0.00000000000E+00  0.39999999674E+01  0.40000000000E+01  0.51100000000E-03 0.  1.
    9000002   -1    0    0    0    0 -0.00000000000E+00 -0.00000000000E+00  0.00000000000E+00  0.93800000000E+00  0.93800000000E+00 0.  1.
         11    1    1    2    0    0 -0.40069885762E-02 -0.61288026218E-01  0.49790468362E+00  0.50167879485E+00  0.51100000000E-03 0.  1.
    9000002    1    1    2    0    0 -0.15774961411E-02  0.38915730816E+00  0.10220579535E+00  0.10206546544E+01  0.93800000000E+00 0.  1.
         22    1    1    2    0    0  0.55844847174E-02 -0.32786928194E+00  0.33998894884E+01  0.34156665507E+01  0.00000000000E+00 0.  1.
</event>
<event>
 5    1  0.3005426E+001  0.1596735E+01  0.7818608E-02  0.3356915E+00
         11   -1    0    0    0    0  0.00000000000E+00  0.00000000000E+00  0.39999999674E+01  0.40000000000E+01  0.51100000000E-03 0. -1.
    9000002   -1    0    0    0    0 -0.00000000000E+00 -0.00000000000E+00  0.00000000000E+00  0.93800000000E+00  0.93800000000E+00 0.  1.
         11    1    1    2    0    0 -0.20822324410E-01 -0.89754295515E-02  0.88513519106E+00  0.88542571405E+00  0.51100000000E-03 0. -1.
    9000002    1    1    2    0    0  0.31918719028E+00 -0.45874506139E-01  0.71855509563E-01  0.99448084296E+00  0.93800000000E+00 0.  1.
         22    1    1    2    0    0 -0.29836486587E+00  0.54849935690E-01  0.30430092667E+01  0.30580934430E+01  0.00000000000E+00 0. -1.
</event>
<event>
 5    1  0.3005426E+001  0.1598413E+01  0.7818608E-02  0.3355087E+00
         11   -1    0    0    0    0  0.00000000000E+00  0.00000000000E+00  0.39999999674E+01  0.40000000000E+01  0.51100000000E-03 0. -1.
    9000002   -1    0    0    0    0 -0.00000000000E+00 -0.00000000000E+00  0.00000000000E+00  0.93800000000E+00  0.93800000000E+00 0. -1.
         11    1    1    2    0    0  0.23908149491E-01 -0.65064825661E-01  0.36346081674E+00  0.37001223977E+00  0.51100000000E-03 0. -1.
    9000002    1    1    2    0    0 -0.94065523123E-01  0.47233206197E+00  0.15942257395E+00  0.10663983573E+01  0.93800000000E+00 0. -1.
         22    1    1    2    0    0  0.70157373631E-01 -0.40726723631E+00  0.34771165767E+01  0.35015894029E+01  0.00000000000E+00 0. -1.
</event>
<event>
 5    1  0.3005426E+001  0.1599676E+01  0.7818608E-02  0.3353715E+00
         11   -1    0    0    0    0  0.00000000000E+00  0.00000000000E+00  0.39999999674E+01  0.40000000000E+01  0.51100000000E-03 0.  1.
    9000002   -1    0    0    0    0 -0.00000000000E+00 -0.00000000000E+00  0.00000000000E+00  0.93800000000E+00  0.93800000000E+00 0. -1.
         11    1    1    2    0    0 -0.39347896861E-01  0.42447904606E-01  0.54751012200E+00  0.55056123766E+00  0.51100000000E-03 0.  1.
    9000002    1    1    2    0    0  0.27794080049E+00 -0.30438688188E+00  0.11478572454E+00  0.10309811953E+01  0.93800000000E+00 0. -1.
         22    1    1    2    0    0 -0.23859290363E+00  0.26193897727E+00  0.33377041208E+01  0.33564575671E+01  0.00000000000E+00 0.  1.
</event>
<event>
 5    1  0.3005426E+001  0.1599225E+01  0.7818608E-02  0.3354205E+00
         11   -1    0    0    0    0  0.00000000000E+00  0.00000000000E+00  0.39999999674E+01  0.40000000000E+01  0.51100000000E-03 0.  1.
    9000002   -1    0    0    0    0 -0.00000000000E+00 -0.00000000000E+00  0.00000000000E+00  0.93800000000E+00  0.93800000000E+00 0.  1.
         11    1    1    2    0    0 -0.27725560649E-01 -0.25974790165E-01  0.36074577382E+00  0.36274118996E+00  0.51100000000E-03 0.  1.
    9000002    1    1    2    0    0  0.41884135524E+00  0.17550087793E+00  0.14054502763E+00  0.10515823999E+01  0.93800000000E+00 0.  1.
         22    1    1    2    0    0 -0.39111579460E+00 -0.14952608776E+00  0.34987091659E+01  0.35236764101E+01  0.00000000000E+00 0.  1.
</event>
<event>
 5    1  0.3005426E+001  0.1599677E+01  0.7818608E-02  0.3353714E+00
         11   -1    0    0    0    0  0.00000000000E+00  0.00000000000E+00  0.39999999674E+01  0.40000000000E+01  0.51100000000E-03 0.  1.
    9000002   -1    0    0    0    0 -0.00000000000E+00 -0.00000000000E+00  0.00000000000E+00  0.93800000000E+00  0.93800000000E+00 0.  1.
         11    1    1    2    0    0  0.19689617937E+00 -0.84588195128E-01  0.13148817990E+01  0.13322303385E+01  0.51100000000E-03 0.  1.
    9000002    1    1    2    0    0 -0.55921049209E+00  0.24066860398E+00  0.25908543372E+00  0.11478706431E+01  0.93800000000E+00 0.  1.
         22    1    1    2    0    0  0.36231431272E+00 -0.15608040885E+00  0.24260327346E+01  0.24578990184E+01  0.00000000000E+00 0.  1.
</event>
<event>
 5    1  0.3005426E+001  0.1596669E+01  0.7818608E-02  0.3356987E+00
         11   -1    0    0    0    0  0.00000000000E+00  0.00000000000E+00  0.39999999674E+01  0.40000000000E+01  0.51100000000E-03 0. -1.
    9000002   -1    0    0    0    0 -0.00000000000E+00 -0.00000000000E+00  0.00000000000E+00  0.93800000000E+00  0.93800000000E+00 0. -1.
         11    1    1    2    0    0 -0.18468450454E+00 -0.14022004541E-01  0.11664541540E+01  0.11810675414E+01  0.51100000000E-03 0. -1.
    9000002    1    1    2    0    0  0.41735728599E+00  0.97293413449E-01  0.12691137032E+00  0.10390397530E+01  0.93800000000E+00 0. -1.
         22    1    1    2    0    0 -0.23267278145E+00 -0.83271408908E-01  0.27066344430E+01  0.27178927056E+01  0.00000000000E+00 0. -1.
</event>
<event>
 5    1  0.3005426E+001  0.1599336E+01  0.7818608E-02  0.3354085E+00
         11   -1    0    0    0    0  0.00000000000E+00  0.00000000000E+00  0.39999999674E+01  0.40000000000E+01  0.51100000000E-03 0. -1.
    9000002   -1    0    0    0    0 -0.00000000000E+00 -0.00000000000E+00  0.00000000000E+00  0.93800000000E+00  0.93800000000E+00 0. -1.
         11    1    1    2    0    0  0.29630674619E-01  0.49883134882E-01  0.47116359289E+00  0.47472275742E+00  0.51100000000E-03 0. -1.
    9000002    1    1    2    0    0 -0.13815887823E+00 -0.46523090318E+00  0.16114562578E+00  0.10683349576E+01  0.93800000000E+00 0. -1.
         22    1    1    2    0    0  0.10852820361E+00  0.41534776830E+00  0.33676907487E+01  0.33949422850E+01  0.00000000000E+00 0. -1.
</event>
<event>
 5    1  0.3005426E+001  0.1599555E+01  0.7818608E-02  0.3353846E+00
         11   -1    0    0    0    0  0.00000000000E+00  0.00000000000E+00  0.39999999674E+01  0.40000000000E+01  0.51100000000E-03 0. -1.
    9000002   -1    0    0    0    0 -0.00000000000E+00 -0.00000000000E+00  0.00000000000E+00  0.93800000000E+00  0.93800000000E+00 0.  1.
         11    1    1    2    0    0 -0.25906198559E-01  0.14761561644E+00  0.12847253893E+01  0.12934377018E+01  0.51100000000E-03 0. -1.
    9000002    1    1    2    0    0  0.58684979434E-01 -0.47431795465E+00  0.15591269655E+00  0.10642247027E+01  0.93800000000E+00 0.  1.
         22    1    1    2    0    0 -0.32778780875E-01  0.32670233821E+00  0.25593618815E+01  0.25803375955E+01  0.00000000000E+00 0. -1.
</event>
<event>
 5    1  0.3005426E+001  0.1598714E+01  0.7818608E-02  0.3354761E+00
         11   -1    0    0    0    0  0.00000000000E+00  0.00000000000E+00  0.39999999674E+01  0.40000000000E+01  0.51100000000E-03 0. -1.
    9000002   -1    0    0    0    0 -0.00000000000E+00 -0.00000000000E+00  0.00000000000E+00  0.93800000000E+00  0.93800000000E+00 0.  1.
         11    1    1    2    0    0  0.89561842438E-01  0.88646459361E-01  0.10020460271E+01  0.10099386219E+01  0.51100000000E-03 0. -1.
    9000002    1    1    2    0    0 -0.29227440830E+00 -0.45193404260E+00  0.20053278234E+00  0.10998754954E+01  0.93800000000E+00 0.  1.
         22    1    1    2    0    0  0.20271256586E+00  0.36328758324E+00  0.27974211579E+01  0.28281858827E+01  0.00000000000E+00 0. -1.
</event>
<event>
 5    1  0.3005426E+001  0.1599676E+01  0.7818608E-02  0.3353715E+00
         11   -1    0    0    0    0  0.00000000000E+00  0.00000000000E+00  0.39999999674E+01  0.40000000000E+01  0.51100000000E-03 0. -1.
    9000002   -1    0    0    0    0 -0.00000000000E+00 -0.00000000000E+00  0.00000000000E+00  0.93800000000E+00  0.93800000000E+00 0. -1.
         11    1    1    2    0    0 -0.93791983584E-01 -0.14535428456E-01  0.10289808024E+01  0.10333489090E+01  0.51100000000E-03 0. -1.
    9000002    1    1    2    0    0  0.35565763275E+00  0.58008521016E-01  0.87172323081E-01  0.10086130845E+01  0.93800000000E+00 0. -1.
         22    1    1    2    0    0 -0.26186564916E+00 -0.43473092560E-01  0.28838468418E+01  0.28960380065E+01  0.00000000000E+00 0. -1.
</event>
<event>
 5    1  0.3005426E+001  0.1599455E+01  0.7818608E-02  0.3353955E+00
         11   -1    0    0    0    0  0.00000000000E+00  0.00000000000E+00  0.39999999674E+01  0.40000000000E+01  0.51100000000E-03 0.  1.
    9000002   -1    0    0    0    0 -0.00000000000E+00 -0.00000000000E+00  0.00000000000E+00  0.93800000000E+00  0.93800000000E+00 0. -1.
         11    1    1    2    0    0 -0.15634163792E-01 -0.75588708233E-01  0.48012984076E+00  0.48629518299E+00  0.51100000000E-03 0.  1.
    9000002    1    1    2    0    0  0.12582213488E+00  0.50498998540E+00  0.18626684164E+00  0.10887540729E+01  0.93800000000E+00 0. -1.
         22    1    1    2    0    0 -0.11018797109E+00 -0.42940127716E+00  0.33336032850E+01  0.33629507441E+01  0.00000000000E+00 0.  1.
</event>
<event>
 5    1  0.3005426E+001  0.1599628E+01  0.7818608E-02  0.3353768E+00
         11   -1    0    0    0    0  0.00000000000E+00  0.00000000000E+00  0.39999999674E+01  0.40000000000E+01  0.51100000000E-03 0. -1.
    9000002   -1    0    0    0    0 -0.00000000000E+00 -0.00000000000E+00  0.00000000000E+00  0.93800000000E+00  0.93800000000E+00 0.  1.
         11    1    1    2    0    0  0.49204151819E-01 -0.64916001745E-01  0.73404260948E+00  0.73854854240E+00  0.51100000000E-03 0. -1.
    9000002    1    1    2    0    0 -0.22699058253E+00  0.35458942000E+00  0.11993908041E+00  0.10351269315E+01  0.93800000000E+00 0.  1.
         22    1    1    2    0    0  0.17778643071E+00 -0.28967341826E+00  0.31460182775E+01  0.31643245261E+01  0.00000000000E+00 0. -1.
</event>
<event>
 5    1  0.3005426E+001  0.1586427E+01  0.7818608E-02  0.3368228E+00
         11   -1    0    0    0    0  0.00000000000E+00  0.00000000000E+00  0.39999999674E+01  0.40000000000E+01  0.51100000000E-03 0.  1.
    9000002   -1    0    0    0    0 -0.00000000000E+00 -0.00000000000E+00  0.00000000000E+00  0.93800000000E+00  0.93800000000E+00 0. -1.
         11    1    1    2    0    0 -0.85568116255E-01 -0.16572857732E+00  0.69418954556E+00  0.71880960633E+00  0.51100000000E-03 0.  1.
    9000002    1    1    2    0    0  0.33999936231E+00  0.33320503343E+00  0.16631806860E+00  0.10649558022E+01  0.93800000000E+00 0. -1.
         22    1    1    2    0    0 -0.25443124605E+00 -0.16747645611E+00  0.31394923532E+01  0.31542345915E+01  0.00000000000E+00 0.  1.
</event>
<event>
 5    1  0.3005426E+001  0.1499275E+01  0.7818608E-02  0.3470508E+00
         11   -1    0    0    0    0  0.00000000000E+00  0.00000000000E+00  0.39999999674E+01  0.40000000000E+01  0.51100000000E-03 0.  1.
    9000002   -1    0    0    0    0 -0.00000000000E+00 -0.00000000000E+00  0.00000000000E+00  0.93800000000E+00  0.93800000000E+00 0. -1.
         11    1    1    2    0    0 -0.73261225578E-02 -0.25973203654E+00  0.45135488785E+00  0.52080312862E+00  0.51100000000E-03 0.  1.
    9000002    1    1    2    0    0 -0.32744750787E+00  0.96081866043E-01  0.16331410722E+00  0.10114193458E+01  0.93800000000E+00 0. -1.
         22    1    1    2    0    0  0.33477363043E+00  0.16365017050E+00  0.33853309723E+01  0.34057775256E+01  0.00000000000E+00 0.  1.
</event>
<event>
 5    1  0.3005426E+001  0.1578120E+01  0.7818608E-02  0.3377459E+00
         11   -1    0    0    0    0  0.00000000000E+00  0.00000000000E+00  0.39999999674E+01  0.40000000000E+01  0.51100000000E-03 0. -1.
    9000002   -1    0    0    0    0 -0.00000000000E+00 -0.00000000000E+00  0.00000000000E+00  0.93800000000E+00  0.93800000000E+00 0.  1.
         11    1    1    2    0    0 -0.19178884533E-01 -0.11302831751E+00  0.50372654850E+00  0.51660809803E+00  0.51100000000E-03 0. -1.
    9000002    1    1    2    0    0 -0.48623169137E+00  0.20320555860E+00  0.21118506469E+00  0.10964291533E+01  0.93800000000E+00 0.  1.
         22    1    1    2    0    0  0.50541057591E+00 -0.90177241086E-01  0.32850883542E+01  0.33249627486E+01  0.00000000000E+00 0. -1.
</event>
<event>
 5    1  0.3005426E+001  0.1597796E+01  0.7818608E-02  0.3355759E+00
         11   -1    0    0    0    0  0.00000000000E+00  0.00000000000E+00  0.39999999674E+01  0.40000000000E+01  0.51100000000E-03 0.  1.
    9000002   -1    0    0    0    0 -0.00000000000E+00 -0.00000000000E+00  0.00000000000E+00  0.93800000000E+00  0.93800000000E+00 0.  1.
         11    1    1    2    0    0 -0.10013781262E-01  0.25234616853E-01  0.12949861009E+00  0.13231482471E+00  0.51100000000E-03 0.  1.
    9000002    1    1    2    0    0 -0.15674968548E+00 -0.42148537720E+00  0.13896411296E+00  0.10494643452E+01  0.93800000000E+00 0.  1.
         22    1    1    2    0    0  0.16676346674E+00  0.39625076035E+00  0.37315372443E+01  0.37562208301E+01  0.00000000000E+00 0.  1.
</event>
<event>
 5    1  0.3005426E+001  0.1572152E+01  0.7818608E-02  0.3384155E+00
         11   -1    0    0    0    0  0.00000000000E+00  0.00000000000E+00  0.39999999674E+01  0.40000000000E+01  0.51100000000E-03 0. -1.
    9000002   -1    0    0    0    0 -0.00000000000E+00 -0.00000000000E+00  0.00000000000E+00  0.93800000000E+00  0.93800000000E+00 0. -1.
         11    1    1    2    0    0  0.11442520939E+00  0.40636878632E-01  0.12482220347E+01  0.12541144260E+01  0.51100000000E-03 0. -1.
    9000002    1    1    2    0    0  0.15828825822E+00  0.14389351977E+00  0.51346236395E-01  0.96345262142E+00  0.93800000000E+00 0. -1.
         22    1    1    2    0    0 -0.27271346761E+00 -0.18453039841E+00  0.27004316962E+01  0.27204329525E+01  0.00000000000E+00 0. -1.
</event>
<event>
 5    1  0.3005426E+001  0.1599664E+01  0.7818608E-02  0.3353728E+00
         11   -1    0    0    0    0  0.00000000000E+00  0.00000000000E+00  0.39999999674E+01  0.40000000000E+01  0.51100000000E-03 0.  1.
    9000002   -1    0    0    0    0 -0.00000000000E+00 -0.00000000000E+00  0.00000000000E+00  0.93800000000E+00  0.93800000000E+00 0. -1.
         11    1    1    2    0    0 -0.35008324269E-01  0.10018744093E+00  0.93700182477E+00  0.94299299405E+00  0.51100000000E-03 0.  1.
    9000002    1    1    2    0    0  0.13131105277E+00 -0.40739723085E+00  0.12405689250E+00  0.10384840918E+01  0.93800000000E+00 0. -1.
         22    1    1    2    0    0 -0.96302728504E-01  0.30720978992E+00  0.29389412501E+01  0.29565229142E+01  0.00000000000E+00 0.  1.
</event>
<event>
 5    1  0.3005426E+001  0.1598558E+01  0.7818608E-02  0.3354930E+00
         11   -1    0    0    0    0  0.00000000000E+00  0.00000000000E+00  0.39999999674E+01  0.40000000000E+01  0.51100000000E-03 0.  1.
    9000002   -1    0    0    0    0 -0.00000000000E+00 -0.00000000000E+00  0.00000000000E+00  0.93800000000E+00  0.93800000000E+00 0.  1.
         11    1    1    2    0    0  0.27559139583E-01  0.66133273555E-01  0.38141169029E+00  0.38808279356E+00  0.51100000000E-03 0.  1.
    9000002    1    1    2    0    0 -0.15393721935E+00 -0.45441412534E+00  0.15804787829E+00  0.10653694179E+01  0.93800000000E+00 0.  1.
         22    1    1    2    0    0  0.12637807976E+00  0.38828085178E+00  0.34605403988E+01  0.34845477885E+01  0.00000000000E+00 0.  1.
</event>
<event>
 5    1  0.3005426E+001  0.1598675E+01  0.7818608E-02  0.3354803E+00
         11   -1    0    0    0    0  0.00000000000E+00  0.00000000000E+00  0.39999999674E+01  0.40000000000E+01  0.51100000000E-03 0. -1.
    9000002   -1    0    0    0    0 -0.00000000000E+00 -0.00000000000E+00  0.00000000000E+00  0.93800000000E+00  0.93800000000E+00 0.  1.
         11    1    1    2    0    0  0.38130729553E-01  0.14177718166E+00  0.10699401582E+01  0.10799661685E+01  0.51100000000E-03 0. -1.
    9000002    1    1    2    0    0 -0.12921404946E+00 -0.39078260767E+00  0.11528252011E+00  0.10307964767E+01  0.93800000000E+00 0.  1.
         22    1    1    2    0    0  0.91083319911E-01  0.24900542600E+00  0.28147772890E+01  0.28272373548E+01  0.00000000000E+00 0. -1.
</event>
<event>
 5    1  0.3005426E+001  0.1599676E+01  0.7818608E-02  0.3353715E+00
         11   -1    0    0    0    0  0.00000000000E+00  0.00000000000E+00  0.39999999674E+01  0.40000000000E+01  0.51100000000E-03 0. -1.
    9000002   -1    0    0    0    0 -0.00000000000E+00 -0.00000000000E+00  0.00000000000E+00  0.93800000000E+00  0.93800000000E+00 0. -1.
         11    1    1    2    0    0 -0.35926405633E-01 -0.20327219759E+00  0.14735475901E+01  0.14879358367E+01  0.51100000000E-03 0. -1.
    9000002    1    1    2    0    0  0.93804353052E-01  0.52283027887E+00  0.19420278566E+00  0.10953125029E+01  0.93800000000E+00 0. -1.
         22    1    1    2    0    0 -0.57877947420E-01 -0.31955808127E+00  0.23322495916E+01  0.23547516603E+01  0.00000000000E+00 0. -1.
</event>
<event>
 5    1  0.3005426E+001  0.1599429E+01  0.7818608E-02  0.3353983E+00
         11   -1    0    0    0    0  0.00000000000E+00  0.00000000000E+00  0.39999999674E+01  0.40000000000E+01  0.51100000000E-03 0.  1.
    9000002   -1    0    0    0    0 -0.00000000000E+00 -0.00000000000E+00  0.00000000000E+00  0.93800000000E+00  0.93800000000E+00 0. -1.
         11    1    1    2    0    0 -0.64786900073E-02 -0.22464346115E-01  0.20183796939E+00  0.20318820654E+00  0.51100000000E-03 0.  1.
    9000002    1    1    2    0    0 -0.17734350158E-01  0.50320256141E+00  0.17388038797E+00  0.10787055735E+01  0.93800000000E+00 0. -1.
         22    1    1    2    0    0  0.24213040166E-01 -0.48073821530E+00  0.36242816100E+01  0.36561062200E+01  0.00000000000E+00 0.  1.
</event>
<event>
 5    1  0.3005426E+001  0.1539553E+01  0.7818608E-02  0.3421702E+00
         11   -1    0    0    0    0  0.00000000000E+00  0.00000000000E+00  0.39999999674E+01  0.40000000000E+01  0.51100000000E-03 0.  1.
    9000002   -1    0    0    0    0 -0.00000000000E+00 -0.00000000000E+00  0.00000000000E+00  0.93800000000E+00  0.93800000000E+00 0.  1.
         11    1    1    2    0    0 -0.55682632207E-01 -0.15582307234E+00  0.23595760063E+00  0.28819721688E+00  0.51100000000E-03 0.  1.
    9000002    1    1    2    0    0  0.40249467461E+00  0.14800760865E+00  0.17752792182E+00  0.10465507051E+01  0.93800000000E+00 0.  1.
         22    1    1    2    0    0 -0.34681204241E+00  0.78154636945E-02  0.35865144449E+01  0.36032520780E+01  0.00000000000E+00 0.  1.
</event>
<event>
 5    1  0.3005426E+001  0.1599615E+01  0.7818608E-02  0.3353781E+00
         11   -1    0    0    0    0  0.00000000000E+00  0.00000000000E+00  0.39999999674E+01  0.40000000000E+01  0.51100000000E-03 0.  1.
    9000002   -1    0    0    0    0 -0.00000000000E+00 -0.00000000000E+00  0.00000000000E+00  0.93800000000E+00  0.93800000000E+00 0.  1.
         11    1    1    2    0    0 -0.54010865319E-01  0.62772523054E-01  0.79969184383E+00  0.80396820176E+00  0.51100000000E-03 0.  1.
    9000002    1    1    2    0    0  0.23341490459E+00 -0.32818657187E+00  0.10948965409E+00  0.10266552138E+01  0.93800000000E+00 0.  1.
         22    1    1    2    0    0 -0.17940403927E+00  0.26541404882E+00  0.30908184694E+01  0.31073765845E+01  0.00000000000E+00 0.  1.
</event>
<event>
 5    1  0.3005426E+001  0.1599673E+01  0.7818608E-02  0.3353718E+00
         11   -1    0    0    0    0  0.00000000000E+00  0.00000000000E+00  0.39999999674E+01  0.40000000000E+01  0.51100000000E-03 0. -1.
    9000002   -1    0    0    0    0 -0.00000000000E+00 -0.00000000000E+00  0.00000000000E+00  0.93800000000E+00  0.93800000000E+00 0. -1.
         11    1    1    2    0    0  0.95790490256E-01 -0.16374512897E-01  0.91968398304E+00  0.92480421305E+00  0.51100000000E-03 0. -1.
    9000002    1    1    2    0    0 -0.40053420226E+00  0.76162705789E-01  0.11223973784E+00  0.10289169858E+01  0.93800000000E+00 0. -1.
         22    1    1    2    0    0  0.30474371200E+00 -0.59788192892E-01  0.29680762465E+01  0.29842788011E+01  0.00000000000E+00 0. -1.
</event>
<event>
 5    1  0.3005426E+001  0.1599641E+01  0.7818608E-02  0.3353754E+00
         11   -1    0    0    0    0  0.00000000000E+00  0.00000000000E+00  0.39999999674E+01  0.40000000000E+01  0.51100000000E-03 0.  1.
    9000002   -1    0    0    0    0 -0.00000000000E+00 -0.00000000000E+00  0.00000000000E+00  0.93800000000E+00  0.93800000000E+00 0. -1.
         11    1    1    2    0    0 -0.14365799546E-01  0.10069197875E-01  0.17929864301E+00  0.18015557013E+00  0.51100000000E-03 0.  1.
    9000002    1    1    2    0    0  0.33860773157E+00 -0.15917134432E+00  0.94155114548E-01  0.10142484401E+01  0.93800000000E+00 0. -1.
         22    1    1    2    0    0 -0.32424193202E+00  0.14910214644E+00  0.37265462098E+01  0.37435959897E+01  0.00000000000E+00 0.  1.
</event>
<event>
 5    1  0.3005426E+001  0.1599671E+01  0.7818608E-02  0.3353720E+00
         11   -1    0    0    0    0  0.00000000000E+00  0.00000000000E+00  0.39999999674E+01  0.40000000000E+01  0.51100000000E-03 0. -1.
    9000002   -1    0    0    0    0 -0.00000000000E+00 -0.00000000000E+00  0.00000000000E+00  0.93800000000E+00  0.93800000000E+00 0. -1.
         11    1    1    2    0    0  0.18093450608E+00  0.65819401809E-01  0.13989426059E+01  0.14121296558E+01  0.51100000000E-03 0. -1.
    9000002    1    1    2    0    0 -0.49412486736E+00 -0.17187036006E+00  0.18811901782E+00  0.10903813874E+01  0.93800000000E+00 0. -1.
         22    1    1    2    0    0  0.31319036129E+00  0.10605095825E+00  0.24129383437E+01  0.24354889567E+01  0.00000000000E+00 0.  1.
</event>
<event>
 5    1  0.3005426E+001  0.1578598E+01  0.7818608E-02  0.3376925E+00
         11   -1    0    0    0    0  0.00000000000E+00  0.00000000000E+00  0.39999999674E+01  0.40000000000E+01  0.51100000000E-03 0.  1.
    9000002   -1    0    0    0    0 -0.00000000000E+00 -0.00000000000E+00  0.00000000000E+00  0.93800000000E+00  0.93800000000E+00 0. -1.
         11    1    1    2    0    0 -0.94262689643E-01 -0.82553081275E-01  0.48668091639E+00  0.50255252600E+00  0.51100000000E-03 0.  1.
    9000002    1    1    2    0    0 -0.17455768071E+00  0.53672899143E+00  0.24110831886E+00  0.11209485339E+01  0.93800000000E+00 0. -1.
         22    1    1    2    0    0  0.26882037035E+00 -0.45417591015E+00  0.32722107321E+01  0.33144989401E+01  0.00000000000E+00 0.  1.
</event>
<event>
 5    1  0.3005426E+001  0.1550336E+01  0.7818608E-02  0.3409096E+00
         11   -1    0    0    0    0  0.00000000000E+00  0.00000000000E+00  0.39999999674E+01  0.40000000000E+01  0.51100000000E-03 0. -1.
    9000002   -1    0    0    0    0 -0.00000000000E+00 -0.00000000000E+00  0.00000000000E+00  0.93800000000E+00  0.93800000000E+00 0.  1.
         11    1    1    2    0    0 -0.23388729755E+00 -0.62521524394E-01  0.11035566825E+01  0.11298007884E+01  0.51100000000E-03 0. -1.
    9000002    1    1    2    0    0  0.54737278642E-01 -0.13397379440E+00  0.51116487562E-01  0.95047464067E+00  0.93800000000E+00 0.  1.
         22    1    1    2    0    0  0.17915001891E+00  0.19649531879E+00  0.28453267973E+01  0.28577245709E+01  0.00000000000E+00 0.  1.
</event>
<event>
 5    1  0.3005426E+001  0.1599467E+01  0.7818608E-02  0.3353942E+00
         11   -1    0    0    0    0  0.00000000000E+00  0.00000000000E+00  0.39999999674E+01  0.40000000000E+01  0.51100000000E-03 0. -1.
    9000002   -1    0    0    0    0 -0.00000000000E+00 -0.00000000000E+00  0.00000000000E+00  0.93800000000E+00  0.93800000000E+00 0. -1.
         11    1    1    2    0    0  0.38287735007E-01  0.54220434124E-01  0.69294126121E+00  0.69611325138E+00  0.51100000000E-03 0. -1.
    9000002    1    1    2    0    0 -0.14805092816E+00 -0.33792390600E+00  0.91632022574E-01  0.10121027967E+01  0.93800000000E+00 0. -1.
         22    1    1    2    0    0  0.10976319316E+00  0.28370347187E+00  0.32154266836E+01  0.32297839519E+01  0.00000000000E+00 0. -1.
</event>
<event>
 5    1  0.3005426E+001  0.1590431E+01  0.7818608E-02  0.3363815E+00
         11   -1    0    0    0    0  0.00000000000E+00  0.00000000000E+00  0.39999999674E+01  0.40000000000E+01  0.51100000000E-03 0.  1.
    9000002   -1    0    0    0    0 -0.00000000000E+00 -0.00000000000E+00  0.00000000000E+00  0.93800000000E+00  0.93800000000E+00 0.  1.
         11    1    1    2    0    0  0.14303138346E+00  0.14217318156E+00  0.14472316149E+01  0.14612155209E+01  0.51100000000E-03 0.  1.
    9000002    1    1    2    0    0 -0.63815821853E+00 -0.28607966827E+00  0.35990493460E+00  0.12241172535E+01  0.93800000000E+00 0.  1.
         22    1    1    2    0    0  0.49512683508E+00  0.14390648671E+00  0.21928634179E+01  0.22526672256E+01  0.00000000000E+00 0.  1.
</event>
<event>
 5    1  0.3410879E+001  0.1597481E+01  0.7818608E-02  0.3356102E+00
         11   -1    0    0    0    0  0.00000000000E+00  0.00000000000E+00  0.39999999674E+01  0.40000000000E+01  0.51100000000E-03 0. -1.
    9000002   -1    0    0    0    0 -0.00000000000E+00 -0.00000000000E+00  0.00000000000E+00  0.93800000000E+00  0.93800000000E+00 0. -1.
         11    1    1    2    0    0  0.70764549769E-01  0.44765154698E-01  0.14824371627E+01  0.14848002368E+01  0.51100000000E-03 0. -1.
    9000002    1    1    2    0    0 -0.18212454768E+00 -0.26370381275E+00  0.70394271873E-01  0.99373457484E+00  0.93800000000E+00 0. -1.
         22    1    1    2    0    0  0.11135999791E+00  0.21893865805E+00  0.24471685328E+01  0.24594651884E+01  0.00000000000E+00 0. -1.
</event>
<event>
 5    1  0.3005426E+001  0.1501483E+01  0.7818608E-02  0.3467761E+00
         11   -1    0    0    0    0  0.00000000000E+00  0.00000000000E+00  0.39999999674E+01  0.40000000000E+01  0.51100000000E-03 0. -1.
    9000002   -1    0    0    0    0 -0.00000000000E+00 -0.00000000000E+00  0.00000000000E+00  0.93800000000E+00  0.93800000000E+00 0.  1.
         11    1    1    2    0    0  0.18900947868E+00 -0.26577053945E+00  0.11948020454E+01  0.12385115064E+01  0.51100000000E-03 0. -1.
    9000002    1    1    2    0    0  0.48039459600E+00  0.63735687405E+00  0.60956485671E+00  0.13741965170E+01  0.93800000000E+00 0.  1.
         22    1    1    2    0    0 -0.66940407469E+00 -0.37158633460E+00  0.21956330653E+01  0.23252919766E+01  0.00000000000E+00 0. -1.
</event>
<event>
 5    1  0.3005426E+001  0.1598686E+01  0.7818608E-02  0.3354790E+00
         11   -1    0    0    0    0  0.00000000000E+00  0.00000000000E+00  0.39999999674E+01  0.40000000000E+01  0.51100000000E-03 0. -1.
    9000002   -1    0    0    0    0 -0.00000000000E+00 -0.00000000000E+00  0.00000000000E+00  0.93800000000E+00  0.93800000000E+00 0. -1.
         11    1    1    2    0    0  0.47881809391E-01 -0.86172254596E-01  0.11537689455E+01  0.11579729556E+01  0.51100000000E-03 0. -1.
    9000002    1    1    2    0    0 -0.27537094078E+00  0.31394364499E+00  0.11873740672E+00  0.10336016346E+01  0.93800000000E+00 0. -1.
         22    1    1    2    0    0  0.22748913139E+00 -0.22777139039E+00  0.27274936151E+01  0.27464254098E+01  0.00000000000E+00 0. -1.
</event>
<event>
 5    1  0.3005426E+001  0.1597786E+01  0.7818608E-02  0.3355770E+00
         11   -1    0    0    0    0  0.00000000000E+00  0.00000000000E+00  0.39999999674E+01  0.40000000000E+01  0.51100000000E-03 0.  1.
    9000002   -1    0    0    0    0 -0.00000000000E+00 -0.00000000000E+00  0.00000000000E+00  0.93800000000E+00  0.93800000000E+00 0.  1.
         11    1    1    2    0    0  0.17786609747E+00  0.27953927554E+00  0.12566362079E+01  0.12995820003E+01  0.51100000000E-03 0.  1.
    9000002    1    1    2    0    0 -0.41747226458E+00 -0.66945270567E+00  0.45922924510E+00  0.13088871290E+01  0.93800000000E+00 0.  1.
         22    1    1    2    0    0  0.23960616710E+00  0.38991343014E+00  0.22841345143E+01  0.23295308708E+01  0.00000000000E+00 0.  1.
</event>
<event>
 5    1  0.3005426E+001  0.1583067E+01  0.7818608E-02  0.3371949E+00
         11   -1    0    0    0    0  0.00000000000E+00  0.00000000000E+00  0.39999999674E+01  0.40000000000E+01  0.51100000000E-03 0.  1.
    9000002   -1    0    0    0    0 -0.00000000000E+00 -0.00000000000E+00  0.00000000000E+00  0.93800000000E+00  0.93800000000E+00 0. -1.
         11    1    1    2    0    0  0.13478577537E-02  0.32749368598E-02 -0.54616797113E-02  0.65293949359E-02  0.51100000000E-03 0.  1.
    9000002    1    1    2    0    0 -0.30134071807E-01  0.35269968585E+00  0.97585605691E-01  0.10073093274E+01  0.93800000000E+00 0. -1.
         22    1    1    2    0    0  0.28786214053E-01 -0.35597462271E+00  0.39078760414E+01  0.39241612776E+01  0.00000000000E+00 0.  1.
</event>
<event>
 5    1  0.3005426E+001  0.1584607E+01  0.7818608E-02  0.3370242E+00
         11   -1    0    0    0    0  0.00000000000E+00  0.00000000000E+00  0.39999999674E+01  0.40000000000E+01  0.51100000000E-03 0.  1.
    9000002   -1    0    0    0    0 -0.00000000000E+00 -0.00000000000E+00  0.00000000000E+00  0.93800000000E+00  0.93800000000E+00 0. -1.
         11    1    1    2    0    0 -0.22933143179E-02 -0.22964297512E-01  0.13820834643E+01  0.13822762321E+01  0.51100000000E-03 0.  1.
    9000002    1    1    2    0    0 -0.36374600172E+00  0.20941051635E+00  0.13196547910E+00  0.10360611979E+01  0.93800000000E+00 0. -1.
         22    1    1    2    0    0  0.36603931604E+00 -0.18644621884E+00  0.24859510239E+01  0.25196625700E+01  0.00000000000E+00 0. -1.
</event>
<event>
 5    1  0.3005426E+001  0.1599339E+01  0.7818608E-02  0.3354081E+00
         11   -1    0    0    0    0  0.00000000000E+00  0.00000000000E+00  0.39999999674E+01  0.40000000000E+01  0.51100000000E-03 0.  1.
    9000002   -1    0    0    0    0 -0.00000000000E+00 -0.00000000000E+00  0.00000000000E+00  0.93800000000E+00  0.93800000000E+00 0.  1.
         11    1    1    2    0    0 -0.26053550814E-01 -0.13220185314E-01  0.26401584619E+00  0.26562791451E+00  0.51100000000E-03 0.  1.
    9000002    1    1    2    0    0  0.42518999987E+00  0.36228277703E-01  0.12355494117E+00  0.10378867219E+01  0.93800000000E+00 0.  1.
         22    1    1    2    0    0 -0.39913644906E+00 -0.23008092389E-01  0.36124291800E+01  0.36344853635E+01  0.00000000000E+00 0.  1.
</event>
<event>
 5    1  0.3005426E+001  0.1599676E+01  0.7818608E-02  0.3353715E+00
         11   -1    0    0    0    0  0.00000000000E+00  0.00000000000E+00  0.39999999674E+01  0.40000000000E+01  0.51100000000E-03 0.  1.
    9000002   -1    0    0    0    0 -0.00000000000E+00 -0.00000000000E+00  0.00000000000E+00  0.93800000000E+00  0.93800000000E+00 0. -1.
         11    1    1    2    0    0 -0.31050335084E-01  0.64664187141E-01  0.67628815648E+00  0.68008198926E+00  0.51100000000E-03 0.  1.
    9000002    1    1    2    0    0  0.18013217313E+00 -0.37518544509E+00  0.11708418646E+00  0.10328428848E+01  0.93800000000E+00 0. -1.
         22    1    1    2    0    0 -0.14908183805E+00  0.31052125795E+00  0.32066276244E+01  0.32250751259E+01  0.00000000000E+00 0.  1.
</event>
<event>
 5    1  0.3005426E+001  0.1599676E+01  0.7818608E-02  0.3353715E+00
         11   -1    0    0    0    0  0.00000000000E+00  0.00000000000E+00  0.39999999674E+01  0.40000000000E+01  0.51100000000E-03 0. -1.
    9000002   -1    0    0    0    0 -0.00000000000E+00 -0.00000000000E+00  0.00000000000E+00  0.93800000000E+00  0.93800000000E+00 0.  1.
         11    1    1    2    0    0 -0.74420100434E-01  0.45925320382E-01  0.90082711096E+00  0.90506200416E+00  0.51100000000E-03 0. -1.
    9000002    1    1    2    0    0  0.32252057063E+00 -0.19576236722E+00  0.95742865602E-01  0.10155555717E+01  0.93800000000E+00 0.  1.
         22    1    1    2    0    0 -0.24810047020E+00  0.14983704684E+00  0.30034299908E+01  0.30173824241E+01  0.00000000000E+00 0. -1.
</event>
<event>
 5    1  0.3005426E+001  0.1593483E+01  0.7818608E-02  0.3360467E+00
         11   -1    0    0    0    0  0.00000000000E+00  0.00000000000E+00  0.39999999674E+01  0.40000000000E+01  0.51100000000E-03 0. -1.
    9000002   -1    0    0    0    0 -0.00000000000E+00 -0.00000000000E+00  0.00000000000E+00  0.93800000000E+00  0.93800000000E+00 0. -1.
         11    1    1    2    0    0  0.53921391034E-01 -0.36556277478E-01  0.10318113747E+01  0.10338659739E+01  0.51100000000E-03 0. -1.
    9000002    1    1    2    0    0 -0.30100887530E+00 -0.16313489664E+00  0.83512609258E-01  0.10020168129E+01  0.93800000000E+00 0. -1.
         22    1    1    2    0    0  0.24708748427E+00  0.19969117412E+00  0.28846759834E+01  0.29021172132E+01  0.00000000000E+00 0. -1.
</event>
<event>
 5    1  0.3005426E+001  0.1599677E+01  0.7818608E-02  0.3353714E+00
         11   -1    0    0    0    0  0.00000000000E+00  0.00000000000E+00  0.39999999674E+01  0.40000000000E+01  0.51100000000E-03 0.  1.
    9000002   -1    0    0    0    0 -0.00000000000E+00 -0.00000000000E+00  0.00000000000E+00  0.93800000000E+00  0.93800000000E+00 0. -1.
         11    1    1    2    0    0 -0.28758871398E-01 -0.13450283811E+00  0.11767956485E+01  0.11848064591E+01  0.51100000000E-03 0.  1.
    9000002    1    1    2    0    0  0.94956249526E-01  0.44164927744E+00  0.13863739472E+00  0.10503023854E+01  0.93800000000E+00 0. -1.
         22    1    1    2    0    0 -0.66197378129E-01 -0.30714643932E+00  0.26845669241E+01  0.27028911555E+01  0.00000000000E+00 0.  1.
</event>
<event>
 5    1  0.3005426E+001  0.1599674E+01  0.7818608E-02  0.3353717E+00
         11   -1    0    0    0    0  0.00000000000E+00  0.00000000000E+00  0.39999999674E+01  0.40000000000E+01  0.51100000000E-03 0. -1.
    9000002   -1    0    0    0    0 -0.00000000000E+00 -0.00000000000E+00  0.00000000000E+00  0.93800000000E+00  0.93800000000E+00 0. -1.
         11    1    1    2    0    0  0.43038066587E-01 -0.26198588268E-01  0.55455556825E+00  0.55683999551E+00  0.51100000000E-03 0. -1.
    9000002    1    1    2    0    0 -0.31259308201E+00  0.18689710505E+00  0.89084601265E-01  0.10101608926E+01  0.93800000000E+00 0. -1.
         22    1    1    2    0    0  0.26955501542E+00 -0.16069851678E+00  0.33563597978E+01  0.33709991119E+01  0.00000000000E+00 0. -1.
</event>
<event>
 5    1  0.3005426E+001  0.1599656E+01  0.7818608E-02  0.3353736E+00
         11   -1    0    0    0    0  0.00000000000E+00  0.00000000000E+00  0.39999999674E+01  0.40000000000E+01  0.51100000000E-03 0. -1.
    9000002   -1    0    0    0    0 -0.00000000000E+00 -0.00000000000E+00  0.00000000000E+00  0.93800000000E+00  0.93800000000E+00 0. -1.
         11    1    1    2    0    0 -0.36281909593E+00 -0.12988692399E-01  0.12897199615E+01  0.13398448577E+01  0.51100000000E-03 0. -1.
    9000002    1    1    2    0    0  0.94299724174E+00  0.37837600883E-01  0.69561177107E+00  0.15014643579E+01  0.93800000000E+00 0. -1.
         22    1    1    2    0    0 -0.58017814581E+00 -0.24848908484E-01  0.20146682348E+01  0.20966907844E+01  0.00000000000E+00 0.  1.
</event>
<event>
 5    1  0.3005426E+001  0.1451895E+01  0.7818608E-02  0.3531668E+00
         11   -1    0    0    0    0  0.00000000000E+00  0.00000000000E+00  0.39999999674E+01  0.40000000000E+01  0.51100000000E-03 0.  1.
    9000002   -1    0    0    0    0 -0.00000000000E+00 -0.00000000000E+00  0.00000000000E+00  0.93800000000E+00  0.93800000000E+00 0. -1.
         11    1    1    2    0    0 -0.22442604409E+00 -0.19382115842E-02  0.29224323154E+00  0.36847954275E+00  0.51100000000E-03 0.  1.
    9000002    1    1    2    0    0 -0.41442801191E+00  0.14887529839E+00  0.27137124733E+00  0.10711679539E+01  0.93800000000E+00 0. -1.
         22    1    1    2    0    0  0.63885405600E+00 -0.14693708681E+00  0.34363854885E+01  0.34983525034E+01  0.00000000000E+00 0.  1.
</event>
<event>
 5    1  0.3005426E+001  0.1599677E+01  0.7818608E-02  0.3353714E+00
         11   -1    0    0    0    0  0.00000000000E+00  0.00000000000E+00  0.39999999674E+01  0.40000000000E+01  0.51100000000E-03 0.  1.
    9000002   -1    0    0    0    0 -0.00000000000E+00 -0.00000000000E+00  0.00000000000E+00  0.93800000000E+00  0.93800000000E+00 0.  1.
         11    1    1    2    0    0 -0.42596303955E-01 -0.30670734032E-01  0.52195047373E+00  0.52458335580E+00  0.51100000000E-03 0.  1.
    9000002    1    1    2    0    0  0.31628713304E+00  0.22874370046E+00  0.10264530172E+00  0.10211470457E+01  0.93800000000E+00 0.  1.
         22    1    1    2    0    0 -0.27369082908E+00 -0.19807296643E+00  0.33754041919E+01  0.33922695985E+01  0.00000000000E+00 0.  1.
</event>
<event>
 5    1  0.3005426E+001  0.1596645E+01  0.7818608E-02  0.3357012E+00
         11   -1    0    0    0    0  0.00000000000E+00  0.00000000000E+00  0.39999999674E+01  0.40000000000E+01  0.51100000000E-03 0.  1.
    9000002   -1    0    0    0    0 -0.00000000000E+00 -0.00000000000E+00  0.00000000000E+00  0.93800000000E+00  0.93800000000E+00 0. -1.
         11    1    1    2    0    0 -0.13078316993E-01 -0.23439221394E+00  0.14163194263E+01  0.14356433160E+01  0.51100000000E-03 0.  1.
    9000002    1    1    2    0    0  0.20302594873E-01  0.46284580070E+00  0.14872123153E+00  0.10566931604E+01  0.93800000000E+00 0. -1.
         22    1    1    2    0    0 -0.72242778805E-02 -0.22845358676E+00  0.24349593095E+01  0.24456635236E+01  0.00000000000E+00 0.  1.
</event>
<event>
 5    1  0.3005426E+001  0.1599666E+01  0.7818608E-02  0.3353726E+00
         11   -1    0    0    0    0  0.00000000000E+00  0.00000000000E+00  0.39999999674E+01  0.40000000000E+01  0.51100000000E-03 0. -1.
    9000002   -1    0    0    0    0 -0.00000000000E+00 -0.00000000000E+00  0.00000000000E+00  0.93800000000E+00  0.93800000000E+00 0.  1.
         11    1    1    2    0    0  0.15027436865E-01  0.11909040621E-01  0.14963487446E+00  0.15085922538E+00  0.51100000000E-03 0. -1.
    9000002    1    1    2    0    0 -0.42081655178E+00 -0.29804110103E+00  0.18253292923E+00  0.10858532766E+01  0.93800000000E+00 0.  1.
         22    1    1    2    0    0  0.40578911491E+00  0.28613206041E+00  0.36678321637E+01  0.37012874980E+01  0.00000000000E+00 0. -1.
</event>
<event>
 5    1  0.3005426E+001  0.1599676E+01  0.7818608E-02  0.3353715E+00
         11   -1    0    0    0    0  0.00000000000E+00  0.00000000000E+00  0.39999999674E+01  0.40000000000E+01  0.51100000000E-03 0.  1.
    9000002   -1    0    0    0    0 -0.00000000000E+00 -0.00000000000E+00  0.00000000000E+00  0.93800000000E+00  0.93800000000E+00 0.  1.
         11    1    1    2    0    0  0.80317726898E-01  0.46347754540E-01  0.74750126707E+00  0.75323134361E+00  0.51100000000E-03 0.  1.
    9000002    1    1    2    0    0 -0.41618131357E+00 -0.23463869435E+00  0.15569320428E+00  0.10641177456E+01  0.93800000000E+00 0.  1.
         22    1    1    2    0    0  0.33586358667E+00  0.18829093981E+00  0.30968054960E+01  0.31206509108E+01  0.00000000000E+00 0.  1.
</event>
<event>
 5    1  0.3020378E+001  0.1597859E+01  0.7818608E-02  0.3355691E+00
         11   -1    0    0    0    0  0.00000000000E+00  0.00000000000E+00  0.39999999674E+01  0.40000000000E+01  0.51100000000E-03 0.  1.
    9000002   -1    0    0    0    0 -0.00000000000E+00 -0.00000000000E+00  0.00000000000E+00  0.93800000000E+00  0.93800000000E+00 0. -1.
         11    1    1    2    0    0 -0.10291212810E+00  0.68570988819E-03  0.13916223021E+01  0.13954226131E+01  0.51100000000E-03 0.  1.
    9000002    1    1    2    0    0  0.29664625008E+00  0.13650613641E+00  0.72766053659E-01  0.99587741290E+00  0.93800000000E+00 0. -1.
         22    1    1    2    0    0 -0.19373412198E+00 -0.13719184630E+00  0.25356116116E+01  0.25466999740E+01  0.00000000000E+00 0.  1.
</event>
<event>
 5    1  0.3005426E+001  0.1587576E+01  0.7818608E-02  0.3366959E+00
         11   -1    0    0    0    0  0.00000000000E+00  0.00000000000E+00  0.39999999674E+01  0.40000000000E+01  0.51100000000E-03 0.  1.
    9000002   -1    0    0    0    0 -0.00000000000E+00 -0.00000000000E+00  0.00000000000E+00  0.93800000000E+00  0.93800000000E+00 0. -1.
         11    1    1    2    0    0 -0.10177092658E+00 -0.73111390092E-01  0.55698519771E+00  0.57090749552E+00  0.51100000000E-03 0.  1.
    9000002    1    1    2    0    0  0.39764232061E+00 -0.61309451865E-01  0.11937761962E+00  0.10276056053E+01  0.93800000000E+00 0. -1.
         22    1    1    2    0    0 -0.29587139403E+00  0.13442084196E+00  0.33236371500E+01  0.33394868992E+01  0.00000000000E+00 0.  1.
</event>
<event>
 5    1  0.3005426E+001  0.1599676E+01  0.7818608E-02  0.3353716E+00
         11   -1    0    0    0    0  0.00000000000E+00  0.00000000000E+00  0.39999999674E+01  0.40000000000E+01  0.51100000000E-03 0.  1.
    9000002   -1    0    0    0    0 -0.00000000000E+00 -0.00000000000E+00  0.00000000000E+00  0.93800000000E+00  0.93800000000E+00 0. -1.
         11    1    1    2    0    0  0.75978818776E-01 -0.46697892089E-02  0.79299584532E+00  0.79664123647E+00  0.51100000000E-03 0.  1.
    9000002    1    1    2    0    0 -0.36900098107E+00  0.22025553150E-01  0.91829444797E-01  0.10123850532E+01  0.93800000000E+00 0. -1.
         22    1    1    2    0    0  0.29302216230E+00 -0.17355763941E-01  0.31151746772E+01  0.31289737103E+01  0.00000000000E+00 0.  1.
</event>
<event>
 5    1  0.3005426E+001  0.1582641E+01  0.7818608E-02  0.3372422E+00
         11   -1    0    0    0    0  0.00000000000E+00  0.00000000000E+00  0.39999999674E+01  0.40000000000E+01  0.51100000000E-03 0.  1.
    9000002   -1    0    0    0    0 -0.00000000000E+00 -0.00000000000E+00  0.00000000000E+00  0.93800000000E+00  0.93800000000E+00 0. -1.
         11    1    1    2    0    0 -0.19260808678E-01 -0.17129823147E-01  0.19720912027E+00  0.19888717362E+00  0.51100000000E-03 0.  1.
    9000002    1    1    2    0    0 -0.72632878522E+00 -0.41080136471E+00  0.54295555790E+00  0.13678289379E+01  0.93800000000E+00 0. -1.
         22    1    1    2    0    0  0.74558959390E+00  0.42793118786E+00  0.32598352892E+01  0.33712838885E+01  0.00000000000E+00 0.  1.
</event>
<event>
 5    1  0.3005426E+001  0.1599237E+01  0.7818608E-02  0.3354192E+00
         11   -1    0    0    0    0  0.00000000000E+00  0.00000000000E+00  0.39999999674E+01  0.40000000000E+01  0.51100000000E-03 0.  1.
    9000002   -1    0    0    0    0 -0.00000000000E+00 -0.00000000000E+00  0.00000000000E+00  0.93800000000E+00  0.93800000000E+00 0. -1.
         11    1    1    2    0    0 -0.71607369049E-01  0.10168557856E+00  0.13492492748E+01  0.13549691652E+01  0.51100000000E-03 0.  1.
    9000002    1    1    2    0    0  0.27314360885E+00 -0.27289031257E+00  0.10074209958E+00  0.10193475974E+01  0.93800000000E+00 0. -1.
         22    1    1    2    0    0 -0.20153623980E+00  0.17120473401E+00  0.25500085930E+01  0.25636832373E+01  0.00000000000E+00 0.  1.
</event>
<event>
 5    1  0.3005426E+001  0.1599562E+01  0.7818608E-02  0.3353839E+00
         11   -1    0    0    0    0  0.00000000000E+00  0.00000000000E+00  0.39999999674E+01  0.40000000000E+01  0.51100000000E-03 0.  1.
    9000002   -1    0    0    0    0 -0.00000000000E+00 -0.00000000000E+00  0.00000000000E+00  0.93800000000E+00  0.93800000000E+00 0.  1.
         11    1    1    2    0    0 -0.23317183058E-01 -0.51940355893E-01  0.71328071446E+00  0.71554953031E+00  0.51100000000E-03 0.  1.
    9000002    1    1    2    0    0  0.17111052653E+00  0.31867879503E+00  0.87935285204E-01  0.10091638128E+01  0.93800000000E+00 0.  1.
         22    1    1    2    0    0 -0.14779334347E+00 -0.26673843913E+00  0.31987839677E+01  0.32132866569E+01  0.00000000000E+00 0.  1.
</event>
<event>
 5    1  0.3005426E+001  0.1599125E+01  0.7818608E-02  0.3354314E+00
         11   -1    0    0    0    0  0.00000000000E+00  0.00000000000E+00  0.39999999674E+01  0.40000000000E+01  0.51100000000E-03 0. -1.
    9000002   -1    0    0    0    0 -0.00000000000E+00 -0.00000000000E+00  0.00000000000E+00  0.93800000000E+00  0.93800000000E+00 0.  1.
         11    1    1    2    0    0 -0.38502460957E-02  0.13394668104E+00  0.14870198136E+01  0.14930454530E+01  0.51100000000E-03 0. -1.
    9000002    1    1    2    0    0 -0.41736205033E-01 -0.40054418675E+00  0.10989070625E+00  0.10266925166E+01  0.93800000000E+00 0.  1.
         22    1    1    2    0    0  0.45586451129E-01  0.26659750570E+00  0.24030894476E+01  0.24182620304E+01  0.00000000000E+00 0. -1.
</event>
<event>
 5    1  0.3005426E+001  0.1592723E+01  0.7818608E-02  0.3361300E+00
         11   -1    0    0    0    0  0.00000000000E+00  0.00000000000E+00  0.39999999674E+01  0.40000000000E+01  0.51100000000E-03 0.  1.
    9000002   -1    0    0    0    0 -0.00000000000E+00 -0.00000000000E+00  0.00000000000E+00  0.93800000000E+00  0.93800000000E+00 0. -1.
         11    1    1    2    0    0  0.23456889309E+00  0.30607834417E-01  0.10895223632E+01  0.11149074608E+01  0.51100000000E-03 0.  1.
    9000002    1    1    2    0    0 -0.50448214342E+00 -0.55848499998E-01  0.18291594568E+00  0.10820922009E+01  0.93800000000E+00 0. -1.
         22    1    1    2    0    0  0.26991325033E+00  0.25240665580E-01  0.27275616585E+01  0.27410003384E+01  0.00000000000E+00 0.  1.
</event>
<event>
 5    1  0.3005426E+001  0.1599564E+01  0.7818608E-02  0.3353836E+00
         11   -1    0    0    0    0  0.00000000000E+00  0.00000000000E+00  0.39999999674E+01  0.40000000000E+01  0.51100000000E-03 0.  1.
    9000002   -1    0    0    0    0 -0.00000000000E+00 -0.00000000000E+00  0.00000000000E+00  0.93800000000E+00  0.93800000000E+00 0. -1.
         11    1    1    2    0    0  0.34396729038E-01 -0.24924957779E-01  0.31241585097E+00  0.31529083962E+00  0.51100000000E-03 0.  1.
    9000002    1    1    2    0    0 -0.41184506490E+00  0.22202082469E+00  0.14918061395E+00  0.10587768696E+01  0.93800000000E+00 0. -1.
         22    1    1    2    0    0  0.37744833586E+00 -0.19709586691E+00  0.35384035024E+01  0.35639322908E+01  0.00000000000E+00 0.  1.
</event>
<event>
 5    1  0.3005426E+001  0.1599677E+01  0.7818608E-02  0.3353714E+00
         11   -1    0    0    0    0  0.00000000000E+00  0.00000000000E+00  0.39999999674E+01  0.40000000000E+01  0.51100000000E-03 0.  1.
    9000002   -1    0    0    0    0 -0.00000000000E+00 -0.00000000000E+00  0.00000000000E+00  0.93800000000E+00  0.93800000000E+00 0. -1.
         11    1    1    2    0    0 -0.29136078394E-01 -0.99740562712E-01  0.10806166960E+01  0.10856011218E+01  0.51100000000E-03 0. -1.
    9000002    1    1    2    0    0  0.10302152059E+00  0.36122032681E+00  0.94883837701E-01  0.10148598430E+01  0.93800000000E+00 0. -1.
         22    1    1    2    0    0 -0.73885442197E-01 -0.26147976410E+00  0.28244994336E+01  0.28375390352E+01  0.00000000000E+00 0.  1.
</event>
<event>
 5    1  0.3005426E+001  0.1599676E+01  0.7818608E-02  0.3353715E+00
         11   -1    0    0    0    0  0.00000000000E+00  0.00000000000E+00  0.39999999674E+01  0.40000000000E+01  0.51100000000E-03 0.  1.
    9000002   -1    0    0    0    0 -0.00000000000E+00 -0.00000000000E+00  0.00000000000E+00  0.93800000000E+00  0.93800000000E+00 0.  1.
         11    1    1    2    0    0  0.64715732515E-02 -0.61638611720E-01  0.30399328159E+00  0.31024728216E+00  0.51100000000E-03 0. -1.
    9000002    1    1    2    0    0 -0.81809866687E-01  0.72779074075E+00  0.38681390149E+00  0.12513357707E+01  0.93800000000E+00 0.  1.
         22    1    1    2    0    0  0.75338293436E-01 -0.66615212903E+00  0.33091927843E+01  0.33764169472E+01  0.00000000000E+00 0.  1.
</event>
<event>
 5    1  0.3005426E+001  0.1599472E+01  0.7818608E-02  0.3353937E+00
         11   -1    0    0    0    0  0.00000000000E+00  0.00000000000E+00  0.39999999674E+01  0.40000000000E+01  0.51100000000E-03 0.  1.
    9000002   -1    0    0    0    0 -0.00000000000E+00 -0.00000000000E+00  0.00000000000E+00  0.93800000000E+00  0.93800000000E+00 0.  1.
         11    1    1    2    0    0  0.22537475489E-01  0.42630988255E-01  0.51726733922E+00  0.51951044292E+00  0.51100000000E-03 0.  1.
    9000002    1    1    2    0    0 -0.24853726584E+00 -0.28136131971E+00  0.94942537789E-01  0.10147871945E+01  0.93800000000E+00 0.  1.
         22    1    1    2    0    0  0.22599979035E+00  0.23873033145E+00  0.33877900903E+01  0.34037023625E+01  0.00000000000E+00 0.  1.
</event>
<event>
 5    1  0.3005426E+001  0.1596440E+01  0.7818608E-02  0.3357236E+00
         11   -1    0    0    0    0  0.00000000000E+00  0.00000000000E+00  0.39999999674E+01  0.40000000000E+01  0.51100000000E-03 0.  1.
    9000002   -1    0    0    0    0 -0.00000000000E+00 -0.00000000000E+00  0.00000000000E+00  0.93800000000E+00  0.93800000000E+00 0. -1.
         11    1    1    2    0    0 -0.35480163256E-01  0.37564295392E-01  0.97056263710E+00  0.97193724691E+00  0.51100000000E-03 0.  1.
    9000002    1    1    2    0    0  0.11279204438E+00 -0.38667237341E+00  0.11217490059E+00  0.10269687327E+01  0.93800000000E+00 0. -1.
         22    1    1    2    0    0 -0.77311881129E-01  0.34910807801E+00  0.29172624297E+01  0.29390940204E+01  0.00000000000E+00 0. -1.
</event>
<event>
 5    1  0.3005426E+001  0.1599290E+01  0.7818608E-02  0.3354134E+00
         11   -1    0    0    0    0  0.00000000000E+00  0.00000000000E+00  0.39999999674E+01  0.40000000000E+01  0.51100000000E-03 0.  1.
    9000002   -1    0    0    0    0 -0.00000000000E+00 -0.00000000000E+00  0.00000000000E+00  0.93800000000E+00  0.93800000000E+00 0. -1.
         11    1    1    2    0    0  0.14130516471E+00  0.93008883291E-01  0.14643408854E+01  0.14740801511E+01  0.51100000000E-03 0.  1.
    9000002    1    1    2    0    0 -0.34223378442E+00 -0.29759486601E+00  0.14010698025E+00  0.10512662048E+01  0.93800000000E+00 0. -1.
         22    1    1    2    0    0  0.20092861971E+00  0.20458598272E+00  0.23955521017E+01  0.24126536441E+01  0.00000000000E+00 0.  1.
</event>
<event>
 5    1  0.3005426E+001  0.1595624E+01  0.7818608E-02  0.3358127E+00
         11   -1    0    0    0    0  0.00000000000E+00  0.00000000000E+00  0.39999999674E+01  0.40000000000E+01  0.51100000000E-03 0.  1.
    9000002   -1    0    0    0    0 -0.00000000000E+00 -0.00000000000E+00  0.00000000000E+00  0.93800000000E+00  0.93800000000E+00 0. -1.
         11    1    1    2    0    0 -0.20869644328E+00 -0.49819381790E-01  0.11843568935E+01  0.12036351974E+01  0.51100000000E-03 0.  1.
    9000002    1    1    2    0    0  0.48334104708E+00  0.33734251206E-01  0.16390546302E+00  0.10683939200E+01  0.93800000000E+00 0. -1.
         22    1    1    2    0    0 -0.27464460380E+00  0.16085130584E-01  0.26517376109E+01  0.26659708826E+01  0.00000000000E+00 0.  1.
</event>
<event>
 5    1  0.3005426E+001  0.1599676E+01  0.7818608E-02  0.3353715E+00
         11   -1    0    0    0    0  0.00000000000E+00  0.00000000000E+00  0.39999999674E+01  0.40000000000E+01  0.51100000000E-03 0.  1.
    9000002   -1    0    0    0    0 -0.00000000000E+00 -0.00000000000E+00  0.00000000000E+00  0.93800000000E+00  0.93800000000E+00 0. -1.
         11    1    1    2    0    0 -0.10821114377E+00 -0.69481206630E-02  0.11820937979E+01  0.11870568378E+01  0.51100000000E-03 0.  1.
    9000002    1    1    2    0    0  0.36059735676E+00  0.20601470802E-01  0.87581983451E-01  0.10089447349E+01  0.93800000000E+00 0. -1.
         22    1    1    2    0    0 -0.25238621299E+00 -0.13653350139E-01  0.27303241860E+01  0.27419984273E+01  0.00000000000E+00 0.  1.
</event>
<event>
 5    1  0.3005426E+001  0.1599644E+01  0.7818608E-02  0.3353750E+00
         11   -1    0    0    0    0  0.00000000000E+00  0.00000000000E+00  0.39999999674E+01  0.40000000000E+01  0.51100000000E-03 0. -1.
    9000002   -1    0    0    0    0 -0.00000000000E+00 -0.00000000000E+00  0.00000000000E+00  0.93800000000E+00  0.93800000000E+00 0. -1.
         11    1    1    2    0    0  0.38380801904E-01  0.89280062450E-01  0.10580299405E+01  0.10624837088E+01  0.51100000000E-03 0. -1.
    9000002    1    1    2    0    0 -0.16078225227E+00 -0.34160911872E+00  0.95910531348E-01  0.10156724633E+01  0.93800000000E+00 0. -1.
         22    1    1    2    0    0  0.12240145037E+00  0.25232905627E+00  0.28460594956E+01  0.28598438279E+01  0.00000000000E+00 0. -1.
</event>
<event>
 5    1  0.3005426E+001  0.1468104E+01  0.7818608E-02  0.3510263E+00
         11   -1    0    0    0    0  0.00000000000E+00  0.00000000000E+00  0.39999999674E+01  0.40000000000E+01  0.51100000000E-03 0.  1.
    9000002   -1    0    0    0    0 -0.00000000000E+00 -0.00000000000E+00  0.00000000000E+00  0.93800000000E+00  0.93800000000E+00 0.  1.
         11    1    1    2    0    0 -0.24444662930E+00  0.11361957213E+00  0.25414991234E+00  0.37048076982E+00  0.51100000000E-03 0.  1.
    9000002    1    1    2    0    0 -0.13284821886E+00 -0.23998440318E+00  0.19763995236E+00  0.99706906170E+00  0.93800000000E+00 0.  1.
         22    1    1    2    0    0  0.37729484816E+00  0.12636483105E+00  0.35482101027E+01  0.35704501685E+01  0.00000000000E+00 0.  1.
</event>
<event>
 5    1  0.3005426E+001  0.1599614E+01  0.7818608E-02  0.3353783E+00
         11   -1    0    0    0    0  0.00000000000E+00  0.00000000000E+00  0.39999999674E+01  0.40000000000E+01  0.51100000000E-03 0. -1.
    9000002   -1    0    0    0    0 -0.00000000000E+00 -0.00000000000E+00  0.00000000000E+00  0.93800000000E+00  0.93800000000E+00 0. -1.
         11    1    1    2    0    0  0.15206160736E-01 -0.28512871418E-01  0.31351655447E+00  0.31517788979E+00  0.51100000000E-03 0. -1.
    9000002    1    1    2    0    0 -0.23761926773E+00  0.39102368725E+00  0.14241103977E+00  0.10533220517E+01  0.93800000000E+00 0. -1.
         22    1    1    2    0    0  0.22241310699E+00 -0.36251081583E+00  0.35440723731E+01  0.35695000585E+01  0.00000000000E+00 0. -1.
</event>
<event>
 5    1  0.3005426E+001  0.1599675E+01  0.7818608E-02  0.3353716E+00
         11   -1    0    0    0    0  0.00000000000E+00  0.00000000000E+00  0.39999999674E+01  0.40000000000E+01  0.51100000000E-03 0. -1.
    9000002   -1    0    0    0    0 -0.00000000000E+00 -0.00000000000E+00  0.00000000000E+00  0.93800000000E+00  0.93800000000E+00 0. -1.
         11    1    1    2    0    0  0.12286931933E+00 -0.66530073530E-02  0.13698485292E+01  0.13753640922E+01  0.51100000000E-03 0. -1.
    9000002    1    1    2    0    0 -0.35330550970E+00  0.14676092324E-01  0.83876041974E-01  0.10059420268E+01  0.93800000000E+00 0. -1.
         22    1    1    2    0    0  0.23043619037E+00 -0.80230849710E-02  0.25462753962E+01  0.25566938810E+01  0.00000000000E+00 0. -1.
</event>
<event>
 5    1  0.3005426E+001  0.1599676E+01  0.7818608E-02  0.3353715E+00
         11   -1    0    0    0    0  0.00000000000E+00  0.00000000000E+00  0.39999999674E+01  0.40000000000E+01  0.51100000000E-03 0.  1.
    9000002   -1    0    0    0    0 -0.00000000000E+00 -0.00000000000E+00  0.00000000000E+00  0.93800000000E+00  0.93800000000E+00 0.  1.
         11    1    1    2    0    0 -0.56089446569E-01 -0.37396127595E-01  0.59328704338E+00  0.59710490983E+00  0.51100000000E-03 0.  1.
    9000002    1    1    2    0    0  0.36339024693E+00  0.24609774376E+00  0.13061139093E+00  0.10438007025E+01  0.93800000000E+00 0.  1.
         22    1    1    2    0    0 -0.30730080036E+00 -0.20870161617E+00  0.32761015331E+01  0.32970943877E+01  0.00000000000E+00 0.  1.
</event>
<event>
 5    1  0.3005426E+001  0.1516142E+01  0.7818608E-02  0.3449731E+00
         11   -1    0    0    0    0  0.00000000000E+00  0.00000000000E+00  0.39999999674E+01  0.40000000000E+01  0.51100000000E-03 0.  1.
    9000002   -1    0    0    0    0 -0.00000000000E+00 -0.00000000000E+00  0.00000000000E+00  0.93800000000E+00  0.93800000000E+00 0. -1.
         11    1    1    2    0    0  0.18985300218E+00 -0.17801771018E+00  0.50696425555E+00  0.56986619929E+00  0.51100000000E-03 0.  1.
    9000002    1    1    2    0    0  0.12953647370E+00  0.39882524260E+00  0.19312540510E+00  0.10454581265E+01  0.93800000000E+00 0. -1.
         22    1    1    2    0    0 -0.31938947587E+00 -0.22080753242E+00  0.32999103067E+01  0.33226756742E+01  0.00000000000E+00 0.  1.
</event>
<event>
 5    1  0.3005426E+001  0.1596551E+01  0.7818608E-02  0.3357115E+00
         11   -1    0    0    0    0  0.00000000000E+00  0.00000000000E+00  0.39999999674E+01  0.40000000000E+01  0.51100000000E-03 0.  1.
    9000002   -1    0    0    0    0 -0.00000000000E+00 -0.00000000000E+00  0.00000000000E+00  0.93800000000E+00  0.93800000000E+00 0. -1.
         11    1    1    2    0    0  0.30427325784E-01 -0.30072510450E-02  0.72053526328E+00  0.72118388256E+00  0.51100000000E-03 0.  1.
    9000002    1    1    2    0    0 -0.44300455063E+00  0.50565069355E-01  0.13764281090E+00  0.10476637827E+01  0.93800000000E+00 0. -1.
         22    1    1    2    0    0  0.41257722485E+00 -0.47557818310E-01  0.31418218932E+01  0.31691523348E+01  0.00000000000E+00 0.  1.
</event>
<event>
 5    1  0.3005426E+001  0.1466792E+01  0.7818608E-02  0.3511976E+00
         11   -1    0    0    0    0  0.00000000000E+00  0.00000000000E+00  0.39999999674E+01  0.40000000000E+01  0.51100000000E-03 0. -1.
    9000002   -1    0    0    0    0 -0.00000000000E+00 -0.00000000000E+00  0.00000000000E+00  0.93800000000E+00  0.93800000000E+00 0.  1.
         11    1    1    2    0    0 -0.98516328644E-01  0.24328226039E+00  0.48499457732E+00  0.55146325932E+00  0.51100000000E-03 0. -1.
    9000002    1    1    2    0    0 -0.19689677360E+00  0.20626652466E+00  0.16567823970E+00  0.99428743216E+00  0.93800000000E+00 0.  1.
         22    1    1    2    0    0  0.29541310224E+00 -0.44954878505E+00  0.33493271503E+01  0.33922493085E+01  0.00000000000E+00 0. -1.
</event>
<event>
 5    1  0.3005426E+001  0.1599660E+01  0.7818608E-02  0.3353732E+00
         11   -1    0    0    0    0  0.00000000000E+00  0.00000000000E+00  0.39999999674E+01  0.40000000000E+01  0.51100000000E-03 0.  1.
    9000002   -1    0    0    0    0 -0.00000000000E+00 -0.00000000000E+00  0.00000000000E+00  0.93800000000E+00  0.93800000000E+00 0. -1.
         11    1    1    2    0    0 -0.15459739453E+00  0.16220987696E+00  0.11124638699E+01  0.11348077025E+01  0.51100000000E-03 0.  1.
    9000002    1    1    2    0    0  0.51622664109E+00 -0.52506418715E+00  0.39147256691E+00  0.12551004407E+01  0.93800000000E+00 0. -1.
         22    1    1    2    0    0 -0.36162924657E+00  0.36285431020E+00  0.24960635305E+01  0.25480918568E+01  0.00000000000E+00 0. -1.
</event>
<event>
 5    1  0.3005426E+001  0.1598442E+01  0.7818608E-02  0.3355057E+00
         11   -1    0    0    0    0  0.00000000000E+00  0.00000000000E+00  0.39999999674E+01  0.40000000000E+01  0.51100000000E-03 0. -1.
    9000002   -1    0    0    0    0 -0.00000000000E+00 -0.00000000000E+00  0.00000000000E+00  0.93800000000E+00  0.93800000000E+00 0.  1.
         11    1    1    2    0    0  0.18751685440E+00 -0.30105737294E-01  0.13986779165E+01  0.14115130539E+01  0.51100000000E-03 0. -1.
    9000002    1    1    2    0    0 -0.41416640305E+00  0.43962840910E-01  0.11830131552E+00  0.10331049037E+01  0.93800000000E+00 0.  1.
         22    1    1    2    0    0  0.22664954865E+00 -0.13857103616E-01  0.24830207354E+01  0.24933820424E+01  0.00000000000E+00 0. -1.
</event>
<event>
 5    1  0.3005426E+001  0.1599672E+01  0.7818608E-02  0.3353720E+00
         11   -1    0    0    0    0  0.00000000000E+00  0.00000000000E+00  0.39999999674E+01  0.40000000000E+01  0.51100000000E-03 0.  1.
    9000002   -1    0    0    0    0 -0.00000000000E+00 -0.00000000000E+00  0.00000000000E+00  0.93800000000E+00  0.93800000000E+00 0.  1.
         11    1    1    2    0    0 -0.33295733343E-01 -0.99140226195E-01  0.10465976006E+01  0.10518099586E+01  0.51100000000E-03 0.  1.
    9000002    1    1    2    0    0  0.11511364269E+00  0.36919671005E+00  0.10071518771E+00  0.10195807523E+01  0.93800000000E+00 0.  1.
         22    1    1    2    0    0 -0.81817909349E-01 -0.27005648385E+00  0.28526871791E+01  0.28666092891E+01  0.00000000000E+00 0.  1.
</event>
<event>
 5    1  0.3005426E+001  0.1599602E+01  0.7818608E-02  0.3353795E+00
         11   -1    0    0    0    0  0.00000000000E+00  0.00000000000E+00  0.39999999674E+01  0.40000000000E+01  0.51100000000E-03 0. -1.
    9000002   -1    0    0    0    0 -0.00000000000E+00 -0.00000000000E+00  0.00000000000E+00  0.93800000000E+00  0.93800000000E+00 0. -1.
         11    1    1    2    0    0 -0.15619470874E+00 -0.10122163565E+00  0.99738020072E+00  0.10145985080E+01  0.51100000000E-03 0. -1.
    9000002    1    1    2    0    0  0.60319952984E+00  0.37683325358E+00  0.36271395040E+00  0.12317704265E+01  0.93800000000E+00 0. -1.
         22    1    1    2    0    0 -0.44700482110E+00 -0.27561161793E+00  0.26399058162E+01  0.26916310655E+01  0.00000000000E+00 0. -1.
</event>
<event>
 5    1  0.3005426E+001  0.1596519E+01  0.7818608E-02  0.3357150E+00
         11   -1    0    0    0    0  0.00000000000E+00  0.00000000000E+00  0.39999999674E+01  0.40000000000E+01  0.51100000000E-03 0. -1.
    9000002   -1    0    0    0    0 -0.00000000000E+00 -0.00000000000E+00  0.00000000000E+00  0.93800000000E+00  0.93800000000E+00 0. -1.
         11    1    1    2    0    0 -0.42866636257E-01 -0.13746905704E+00  0.10134480075E+01  0.10236270880E+01  0.51100000000E-03 0. -1.
    9000002    1    1    2    0    0  0.25760106918E+00  0.31871323734E+00  0.11607146247E+00  0.10301713561E+01  0.93800000000E+00 0. -1.
         22    1    1    2    0    0 -0.21473443292E+00 -0.18124418030E+00  0.28704804973E+01  0.28842015559E+01  0.00000000000E+00 0. -1.
</event>
<event>
 5    1  0.3005426E+001  0.1599652E+01  0.7818608E-02  0.3353741E+00
         11   -1    0    0    0    0  0.00000000000E+00  0.00000000000E+00  0.39999999674E+01  0.40000000000E+01  0.51100000000E-03 0. -1.
    9000002   -1    0    0    0    0 -0.00000000000E+00 -0.00000000000E+00  0.00000000000E+00  0.93800000000E+00  0.93800000000E+00 0.  1.
         11    1    1    2    0    0 -0.66163220730E-01  0.11603338623E+00  0.14785727615E+01  0.14845938807E+01  0.51100000000E-03 0. -1.
    9000002    1    1    2    0    0  0.18887137020E+00 -0.31373311305E+00  0.90101438566E-01  0.10109713794E+01  0.93800000000E+00 0.  1.
         22    1    1    2    0    0 -0.12270814947E+00  0.19769972682E+00  0.24313257673E+01  0.24424347399E+01  0.00000000000E+00 0. -1.
</event>
<event>
 5    1  0.3005426E+001  0.1598909E+01  0.7818608E-02  0.3354548E+00
         11   -1    0    0    0    0  0.00000000000E+00  0.00000000000E+00  0.39999999674E+01  0.40000000000E+01  0.51100000000E-03 0.  1.
    9000002   -1    0    0    0    0 -0.00000000000E+00 -0.00000000000E+00  0.00000000000E+00  0.93800000000E+00  0.93800000000E+00 0. -1.
         11    1    1    2    0    0  0.66336875317E-01 -0.70716440965E-02  0.51635540801E+00  0.52064744086E+00  0.51100000000E-03 0.  1.
    9000002    1    1    2    0    0 -0.35955098657E+00  0.14999833922E+00  0.10287584877E+00  0.10208838592E+01  0.93800000000E+00 0. -1.
         22    1    1    2    0    0  0.29321411125E+00 -0.14292669513E+00  0.33807687106E+01  0.33964686999E+01  0.00000000000E+00 0.  1.
</event>
<event>
 5    1  0.3005426E+001  0.1599677E+01  0.7818608E-02  0.3353714E+00
         11   -1    0    0    0    0  0.00000000000E+00  0.00000000000E+00  0.39999999674E+01  0.40000000000E+01  0.51100000000E-03 0. -1.
    9000002   -1    0    0    0    0 -0.00000000000E+00 -0.00000000000E+00  0.00000000000E+00  0.93800000000E+00  0.93800000000E+00 0. -1.
         11    1    1    2    0    0  0.46976351895E-01 -0.58512447743E-01  0.76387466383E+00  0.76755146234E+00  0.51100000000E-03 0.  1.
    9000002    1    1    2    0    0 -0.23983254202E+00  0.29871994935E+00  0.98778610517E-01  0.10180149656E+01  0.93800000000E+00 0. -1.
         22    1    1    2    0    0  0.19285619012E+00 -0.24020750161E+00  0.31373466930E+01  0.31524335720E+01  0.00000000000E+00 0. -1.
</event>
<event>
 5    1  0.3005426E+001  0.1599633E+01  0.7818608E-02  0.3353762E+00
         11   -1    0    0    0    0  0.00000000000E+00  0.00000000000E+00  0.39999999674E+01  0.40000000000E+01  0.51100000000E-03 0.  1.
    9000002   -1    0    0    0    0 -0.00000000000E+00 -0.00000000000E+00  0.00000000000E+00  0.93800000000E+00  0.93800000000E+00 0. -1.
         11    1    1    2    0    0 -0.38127812962E-02  0.18177249880E-01  0.20257718926E+00  0.20342745253E+00  0.51100000000E-03 0.  1.
    9000002    1    1    2    0    0  0.20400136755E-01 -0.39200655892E+00  0.10387176577E+00  0.10221147937E+01  0.93800000000E+00 0. -1.
         22    1    1    2    0    0 -0.16587355458E-01  0.37382930904E+00  0.36935510123E+01  0.37124577538E+01  0.00000000000E+00 0.  1.
</event>
<event>
 5    1  0.3005426E+001  0.1599669E+01  0.7818608E-02  0.3353723E+00
         11   -1    0    0    0    0  0.00000000000E+00  0.00000000000E+00  0.39999999674E+01  0.40000000000E+01  0.51100000000E-03 0.  1.
    9000002   -1    0    0    0    0 -0.00000000000E+00 -0.00000000000E+00  0.00000000000E+00  0.93800000000E+00  0.93800000000E+00 0. -1.
         11    1    1    2    0    0  0.13659438530E+00  0.20250124534E-01  0.12132652167E+01  0.12210982109E+01  0.51100000000E-03 0.  1.
    9000002    1    1    2    0    0 -0.42825839481E+00 -0.58401107087E-01  0.12656472323E+00  0.10405184146E+01  0.93800000000E+00 0. -1.
         22    1    1    2    0    0  0.29166400952E+00  0.38150982553E-01  0.26601700275E+01  0.26763833744E+01  0.00000000000E+00 0.  1.
</event>
<event>
 5    1  0.3005426E+001  0.1599665E+01  0.7818608E-02  0.3353727E+00
         11   -1    0    0    0    0  0.00000000000E+00  0.00000000000E+00  0.39999999674E+01  0.40000000000E+01  0.51100000000E-03 0. -1.
    9000002   -1    0    0    0    0 -0.00000000000E+00 -0.00000000000E+00  0.00000000000E+00  0.93800000000E+00  0.93800000000E+00 0.  1.
         11    1    1    2    0    0  0.11011021888E+00 -0.22322079793E-01  0.82460022481E+00  0.83221891797E+00  0.51100000000E-03 0. -1.
    9000002    1    1    2    0    0 -0.50421190642E+00  0.11815188093E+00  0.18416585963E+00  0.10871755044E+01  0.93800000000E+00 0.  1.
         22    1    1    2    0    0  0.39410168753E+00 -0.95829801134E-01  0.29912338829E+01  0.30186055776E+01  0.00000000000E+00 0. -1.
</event>
<event>
 5    1  0.3005426E+001  0.1599437E+01  0.7818608E-02  0.3353974E+00
         11   -1    0    0    0    0  0.00000000000E+00  0.00000000000E+00  0.39999999674E+01  0.40000000000E+01  0.51100000000E-03 0. -1.
    9000002   -1    0    0    0    0 -0.00000000000E+00 -0.00000000000E+00  0.00000000000E+00  0.93800000000E+00  0.93800000000E+00 0.  1.
         11    1    1    2    0    0  0.67366402963E-01 -0.13353887204E+00  0.75790370185E+00  0.77252129097E+00  0.51100000000E-03 0. -1.
    9000002    1    1    2    0    0 -0.34265546551E+00  0.57634146214E+00  0.31910808565E+00  0.11963512107E+01  0.93800000000E+00 0.  1.
         22    1    1    2    0    0  0.27528906255E+00 -0.44280259010E+00  0.29229881799E+01  0.29691274983E+01  0.00000000000E+00 0. -1.
</event>
<event>
 5    1  0.3005426E+001  0.1597959E+01  0.7818608E-02  0.3355581E+00
         11   -1    0    0    0    0  0.00000000000E+00  0.00000000000E+00  0.39999999674E+01  0.40000000000E+01  0.51100000000E-03 0. -1.
    9000002   -1    0    0    0    0 -0.00000000000E+00 -0.00000000000E+00  0.00000000000E+00  0.93800000000E+00  0.93800000000E+00 0. -1.
         11    1    1    2    0    0  0.29403664914E-01  0.96645490935E-01  0.13934574644E+01  0.13971144880E+01  0.51100000000E-03 0. -1.
    9000002    1    1    2    0    0 -0.15776910997E-01 -0.38679584061E+00  0.10233759232E+00  0.10198906393E+01  0.93800000000E+00 0. -1.
         22    1    1    2    0    0 -0.13626753917E-01  0.29015034967E+00  0.25042049107E+01  0.25209948727E+01  0.00000000000E+00 0. -1.
</event>
<event>
 5    1  0.3005426E+001  0.1563308E+01  0.7818608E-02  0.3394177E+00
         11   -1    0    0    0    0  0.00000000000E+00  0.00000000000E+00  0.39999999674E+01  0.40000000000E+01  0.51100000000E-03 0.  1.
    9000002   -1    0    0    0    0 -0.00000000000E+00 -0.00000000000E+00  0.00000000000E+00  0.93800000000E+00  0.93800000000E+00 0. -1.
         11    1    1    2    0    0  0.14918118629E+00  0.26322245754E-01  0.79011346839E+00  0.80450446924E+00  0.51100000000E-03 0.  1.
    9000002    1    1    2    0    0  0.17105261326E+00 -0.73171709188E-01  0.50531247797E-01  0.95760665335E+00  0.93800000000E+00 0. -1.
         22    1    1    2    0    0 -0.32023379956E+00  0.46849463434E-01  0.31593552512E+01  0.31758888774E+01  0.00000000000E+00 0.  1.
</event>
<event>
 5    1  0.3005426E+001  0.1597284E+01  0.7818608E-02  0.3356316E+00
         11   -1    0    0    0    0  0.00000000000E+00  0.00000000000E+00  0.39999999674E+01  0.40000000000E+01  0.51100000000E-03 0.  1.
    9000002   -1    0    0    0    0 -0.00000000000E+00 -0.00000000000E+00  0.00000000000E+00  0.93800000000E+00  0.93800000000E+00 0.  1.
         11    1    1    2    0    0 -0.63635098011E-01 -0.59051097566E-01  0.11305543175E+01  0.11338826146E+01  0.51100000000E-03 0.  1.
    9000002    1    1    2    0    0  0.39863734030E+00  0.16864157213E+00  0.12897383900E+00  0.10410715442E+01  0.93800000000E+00 0.  1.
         22    1    1    2    0    0 -0.33500224229E+00 -0.10959047457E+00  0.27404718109E+01  0.27630458412E+01  0.00000000000E+00 0.  1.
</event>
<event>
 5    1  0.3005426E+001  0.1589122E+01  0.7818608E-02  0.3365255E+00
         11   -1    0    0    0    0  0.00000000000E+00  0.00000000000E+00  0.39999999674E+01  0.40000000000E+01  0.51100000000E-03 0. -1.
    9000002   -1    0    0    0    0 -0.00000000000E+00 -0.00000000000E+00  0.00000000000E+00  0.93800000000E+00  0.93800000000E+00 0. -1.
         11    1    1    2    0    0 -0.14750903533E-01  0.43641845287E-01  0.10805326087E+00  0.11746475268E+00  0.51100000000E-03 0. -1.
    9000002    1    1    2    0    0 -0.31596546143E+00 -0.33054231364E+00  0.15139277057E+00  0.10544459042E+01  0.93800000000E+00 0. -1.
         22    1    1    2    0    0  0.33071636496E+00  0.28690046835E+00  0.37405539359E+01  0.37660893431E+01  0.00000000000E+00 0. -1.
</event>
<event>
 5    1  0.3005426E+001  0.1599677E+01  0.7818608E-02  0.3353714E+00
         11   -1    0    0    0    0  0.00000000000E+00  0.00000000000E+00  0.39999999674E+01  0.40000000000E+01  0.51100000000E-03 0.  1.
    9000002   -1    0    0    0    0 -0.00000000000E+00 -0.00000000000E+00  0.00000000000E+00  0.93800000000E+00  0.93800000000E+00 0.  1.
         11    1    1    2    0    0 -0.29102059475E+00  0.13799925543E+00  0.13137832537E+01  0.13526875026E+01  0.51100000000E-03 0.  1.
    9000002    1    1    2    0    0  0.76640866641E+00 -0.36531111109E+00  0.54042490594E+00  0.13757679785E+01  0.93800000000E+00 0.  1.
         22    1    1    2    0    0 -0.47538807166E+00  0.22731185566E+00  0.21457918078E+01  0.22095445188E+01  0.00000000000E+00 0.  1.
</event>
<event>
 5    1  0.3005426E+001  0.1599674E+01  0.7818608E-02  0.3353717E+00
         11   -1    0    0    0    0  0.00000000000E+00  0.00000000000E+00  0.39999999674E+01  0.40000000000E+01  0.51100000000E-03 0.  1.
    9000002   -1    0    0    0    0 -0.00000000000E+00 -0.00000000000E+00  0.00000000000E+00  0.93800000000E+00  0.93800000000E+00 0.  1.
         11    1    1    2    0    0 -0.13387705095E+00 -0.15832684992E+00  0.14305707031E+01  0.14455183340E+01  0.51100000000E-03 0.  1.
    9000002    1    1    2    0    0  0.35500829853E+00  0.42463506754E+00  0.21173682050E+00  0.11095144496E+01  0.93800000000E+00 0.  1.
         22    1    1    2    0    0 -0.22113124758E+00 -0.26630821763E+00  0.23576924437E+01  0.23829672164E+01  0.00000000000E+00 0.  1.
</event>
<event>
 5    1  0.3005426E+001  0.1599676E+01  0.7818608E-02  0.3353715E+00
         11   -1    0    0    0    0  0.00000000000E+00  0.00000000000E+00  0.39999999674E+01  0.40000000000E+01  0.51100000000E-03 0. -1.
    9000002   -1    0    0    0    0 -0.00000000000E+00 -0.00000000000E+00  0.00000000000E+00  0.93800000000E+00  0.93800000000E+00 0.  1.
         11    1    1    2    0    0  0.49574166478E-01  0.62911535647E-01  0.84807591530E+00  0.85185003289E+00  0.51100000000E-03 0. -1.
    9000002    1    1    2    0    0 -0.23231765919E+00 -0.28793471974E+00  0.91987719149E-01  0.10125135249E+01  0.93800000000E+00 0.  1.
         22    1    1    2    0    0  0.18274349272E+00  0.22502318409E+00  0.30599363329E+01  0.30736364422E+01  0.00000000000E+00 0. -1.
</event>
<event>
 5    1  0.3005426E+001  0.1599334E+01  0.7818608E-02  0.3354087E+00
         11   -1    0    0    0    0  0.00000000000E+00  0.00000000000E+00  0.39999999674E+01  0.40000000000E+01  0.51100000000E-03 0.  1.
    9000002   -1    0    0    0    0 -0.00000000000E+00 -0.00000000000E+00  0.00000000000E+00  0.93800000000E+00  0.93800000000E+00 0. -1.
         11    1    1    2    0    0 -0.31487192680E-01 -0.25210945117E+00  0.13820171064E+01  0.14051769149E+01  0.51100000000E-03 0.  1.
    9000002    1    1    2    0    0  0.34373705875E-01  0.69640221797E+00  0.34757192986E+00  0.12193473038E+01  0.93800000000E+00 0. -1.
         22    1    1    2    0    0 -0.28865131948E-02 -0.44429276680E+00  0.22704109311E+01  0.23134757813E+01  0.00000000000E+00 0. -1.
</event>
<event>
 5    1  0.3005426E+001  0.1599540E+01  0.7818608E-02  0.3353863E+00
         11   -1    0    0    0    0  0.00000000000E+00  0.00000000000E+00  0.39999999674E+01  0.40000000000E+01  0.51100000000E-03 0. -1.
    9000002   -1    0    0    0    0 -0.00000000000E+00 -0.00000000000E+00  0.00000000000E+00  0.93800000000E+00  0.93800000000E+00 0.  1.
         11    1    1    2    0    0  0.30567167482E-01 -0.64315828479E-01  0.53001303715E+00  0.53477561480E+00  0.51100000000E-03 0. -1.
    9000002    1    1    2    0    0 -0.15204073107E+00  0.47905680667E+00  0.17312654075E+00  0.10781598244E+01  0.93800000000E+00 0.  1.
         22    1    1    2    0    0  0.12147356358E+00 -0.41474097819E+00  0.32968603895E+01  0.33250645608E+01  0.00000000000E+00 0. -1.
</event>
<event>
 5    1  0.3005426E+001  0.1599669E+01  0.7818608E-02  0.3353723E+00
         11   -1    0    0    0    0  0.00000000000E+00  0.00000000000E+00  0.39999999674E+01  0.40000000000E+01  0.51100000000E-03 0.  1.
    9000002   -1    0    0    0    0 -0.00000000000E+00 -0.00000000000E+00  0.00000000000E+00  0.93800000000E+00  0.93800000000E+00 0. -1.
         11    1    1    2    0    0 -0.10759559092E+00 -0.94801314987E-01  0.11307572398E+01  0.11398141502E+01  0.51100000000E-03 0.  1.
    9000002    1    1    2    0    0  0.37437388095E+00  0.31695958630E+00  0.16446583569E+00  0.10712199556E+01  0.93800000000E+00 0. -1.
         22    1    1    2    0    0 -0.26677829002E+00 -0.22215827131E+00  0.27047768919E+01  0.27269658942E+01  0.00000000000E+00 0.  1.
</event>
<event>
 5    1  0.3005426E+001  0.1599667E+01  0.7818608E-02  0.3353725E+00
         11   -1    0    0    0    0  0.00000000000E+00  0.00000000000E+00  0.39999999674E+01  0.40000000000E+01  0.51100000000E-03 0.  1.
    9000002   -1    0    0    0    0 -0.00000000000E+00 -0.00000000000E+00  0.00000000000E+00  0.93800000000E+00  0.93800000000E+00 0. -1.
         11    1    1    2    0    0 -0.75787173314E-01 -0.15769786312E+00  0.75056453829E+00  0.77068780900E+00  0.51100000000E-03 0.  1.
    9000002    1    1    2    0    0  0.36774738661E+00  0.73299841938E+00  0.49887409892E+00  0.13421043885E+01  0.93800000000E+00 0. -1.
         22    1    1    2    0    0 -0.29196021330E+00 -0.57530055626E+00  0.27505613301E+01  0.28252078025E+01  0.00000000000E+00 0.  1.
</event>
<event>
 5    1  0.3005426E+001  0.1599375E+01  0.7818608E-02  0.3354042E+00
         11   -1    0    0    0    0  0.00000000000E+00  0.00000000000E+00  0.39999999674E+01  0.40000000000E+01  0.51100000000E-03 0. -1.
    9000002   -1    0    0    0    0 -0.00000000000E+00 -0.00000000000E+00  0.00000000000E+00  0.93800000000E+00  0.93800000000E+00 0.  1.
         11    1    1    2    0    0 -0.11692388839E+00  0.53356819484E-01  0.12643501980E+01  0.12708657798E+01  0.51100000000E-03 0. -1.
    9000002    1    1    2    0    0  0.32729551090E+00 -0.21489606823E+00  0.10354448956E+00  0.10216986507E+01  0.93800000000E+00 0.  1.
         22    1    1    2    0    0 -0.21037162251E+00  0.16153924875E+00  0.26321052798E+01  0.26454355695E+01  0.00000000000E+00 0. -1.
</event>
<event>
 5    1  0.3005426E+001  0.1598851E+01  0.7818608E-02  0.3354612E+00
         11   -1    0    0    0    0  0.00000000000E+00  0.00000000000E+00  0.39999999674E+01  0.40000000000E+01  0.51100000000E-03 0. -1.
    9000002   -1    0    0    0    0 -0.00000000000E+00 -0.00000000000E+00  0.00000000000E+00  0.93800000000E+00  0.93800000000E+00 0.  1.
         11    1    1    2    0    0 -0.29142178576E-01 -0.43216409447E-02  0.26750895600E+00  0.26912682106E+00  0.51100000000E-03 0. -1.
    9000002    1    1    2    0    0  0.30943368187E+00  0.29018167599E+00  0.12247413939E+00  0.10367249025E+01  0.93800000000E+00 0.  1.
         22    1    1    2    0    0 -0.28029150330E+00 -0.28586003505E+00  0.36100168720E+01  0.36321482765E+01  0.00000000000E+00 0. -1.
</event>
<event>
 5    1  0.3005426E+001  0.1599628E+01  0.7818608E-02  0.3353767E+00
         11   -1    0    0    0    0  0.00000000000E+00  0.00000000000E+00  0.39999999674E+01  0.40000000000E+01  0.51100000000E-03 0. -1.
    9000002   -1    0    0    0    0 -0.00000000000E+00 -0.00000000000E+00  0.00000000000E+00  0.93800000000E+00  0.93800000000E+00 0.  1.
         11    1    1    2    0    0  0.13724031450E+00  0.18850925160E+00  0.10501702637E+01  0.10757455488E+01  0.51100000000E-03 0. -1.
    9000002    1    1    2    0    0 -0.44485939069E+00 -0.62569243303E+00  0.42966613128E+00  0.12860201719E+01  0.93800000000E+00 0.  1.
         22    1    1    2    0    0  0.30761907620E+00  0.43718318143E+00  0.25201635723E+01  0.25762342792E+01  0.00000000000E+00 0. -1.
</event>
<event>
 5    1  0.3005426E+001  0.1599664E+01  0.7818608E-02  0.3353729E+00
         11   -1    0    0    0    0  0.00000000000E+00  0.00000000000E+00  0.39999999674E+01  0.40000000000E+01  0.51100000000E-03 0. -1.
    9000002   -1    0    0    0    0 -0.00000000000E+00 -0.00000000000E+00  0.00000000000E+00  0.93800000000E+00  0.93800000000E+00 0. -1.
         11    1    1    2    0    0  0.67157246185E-01 -0.59850986143E-03  0.60424371036E+00  0.60796478233E+00  0.51100000000E-03 0.  1.
    9000002    1    1    2    0    0 -0.41285709531E+00  0.11935164170E-01  0.11527625894E+00  0.10313709542E+01  0.93800000000E+00 0. -1.
         22    1    1    2    0    0  0.34569984912E+00 -0.11336654308E-01  0.32804799981E+01  0.32986642635E+01  0.00000000000E+00 0. -1.
</event>
<event>
 5    1  0.3005426E+001  0.1599675E+01  0.7818608E-02  0.3353716E+00
         11   -1    0    0    0    0  0.00000000000E+00  0.00000000000E+00  0.39999999674E+01  0.40000000000E+01  0.51100000000E-03 0. -1.
    9000002   -1    0    0    0    0 -0.00000000000E+00 -0.00000000000E+00  0.00000000000E+00  0.93800000000E+00  0.93800000000E+00 0. -1.
         11    1    1    2    0    0 -0.35554024981E-01  0.34125660945E-01  0.47039279845E+00  0.47296754157E+00  0.51100000000E-03 0. -1.
    9000002    1    1    2    0    0  0.29480007504E+00 -0.28981763843E+00  0.11548023499E+00  0.10315430347E+01  0.93800000000E+00 0. -1.
         22    1    1    2    0    0 -0.25924605006E+00  0.25569197748E+00  0.34141269339E+01  0.34334894237E+01  0.00000000000E+00 0. -1.
</event>
<event>
 5    1  0.3005426E+001  0.1599564E+01  0.7818608E-02  0.3353837E+00
         11   -1    0    0    0    0  0.00000000000E+00  0.00000000000E+00  0.39999999674E+01  0.40000000000E+01  0.51100000000E-03 0.  1.
    9000002   -1    0    0    0    0 -0.00000000000E+00 -0.00000000000E+00  0.00000000000E+00  0.93800000000E+00  0.93800000000E+00 0.  1.
         11    1    1    2    0    0 -0.13217338532E-01  0.21410561116E-01  0.27469539273E+00  0.27584584477E+00  0.51100000000E-03 0.  1.
    9000002    1    1    2    0    0  0.27170641313E+00 -0.33845184760E+00  0.12774269692E+00  0.10414106897E+01  0.93800000000E+00 0.  1.
         22    1    1    2    0    0 -0.25848907460E+00  0.31704128648E+00  0.35975618777E+01  0.36207434655E+01  0.00000000000E+00 0.  1.
</event>
<event>
 5    1  0.3005426E+001  0.1599670E+01  0.7818608E-02  0.3353722E+00
         11   -1    0    0    0    0  0.00000000000E+00  0.00000000000E+00  0.39999999674E+01  0.40000000000E+01  0.51100000000E-03 0. -1.
    9000002   -1    0    0    0    0 -0.00000000000E+00 -0.00000000000E+00  0.00000000000E+00  0.93800000000E+00  0.93800000000E+00 0. -1.
         11    1    1    2    0    0 -0.40824261028E-01 -0.83233400228E-01  0.95784368085E+00  0.96231969598E+00  0.51100000000E-03 0. -1.
    9000002    1    1    2    0    0  0.15716669874E+00  0.33352196568E+00  0.91347618311E-01  0.10119914328E+01  0.93800000000E+00 0. -1.
         22    1    1    2    0    0 -0.11634243771E+00 -0.25028856545E+00  0.29508086682E+01  0.29636888712E+01  0.00000000000E+00 0. -1.
</event>
<event>
 5    1  0.3005426E+001  0.1599649E+01  0.7818608E-02  0.3353745E+00
         11   -1    0    0    0    0  0.00000000000E+00  0.00000000000E+00  0.39999999674E+01  0.40000000000E+01  0.51100000000E-03 0.  1.
    9000002   -1    0    0    0    0 -0.00000000000E+00 -0.00000000000E+00  0.00000000000E+00  0.93800000000E+00  0.93800000000E+00 0.  1.
         11    1    1    2    0    0  0.48118800135E-01 -0.98795523892E-01  0.10057818702E+01  0.10117674664E+01  0.51100000000E-03 0.  1.
    9000002    1    1    2    0    0 -0.16555573335E+00  0.37446723606E+00  0.11323523750E+00  0.10297090029E+01  0.93800000000E+00 0.  1.
         22    1    1    2    0    0  0.11743693321E+00 -0.27567171217E+00  0.28809828597E+01  0.28965235307E+01  0.00000000000E+00 0.  1.
</event>
<event>
 5    1  0.3005426E+001  0.1518747E+01  0.7818608E-02  0.3446567E+00
         11   -1    0    0    0    0  0.00000000000E+00  0.00000000000E+00  0.39999999674E+01  0.40000000000E+01  0.51100000000E-03 0. -1.
    9000002   -1    0    0    0    0 -0.00000000000E+00 -0.00000000000E+00  0.00000000000E+00  0.93800000000E+00  0.93800000000E+00 0. -1.
         11    1    1    2    0    0 -0.25796557160E+00 -0.26380452202E+00  0.10707871028E+01  0.11325742107E+01  0.51100000000E-03 0. -1.
    9000002    1    1    2    0    0  0.35778297045E+00 -0.76738765298E-02  0.15460576520E+00  0.10157826957E+01  0.93800000000E+00 0. -1.
         22    1    1    2    0    0 -0.99817398845E-01  0.27147839855E+00  0.27746070993E+01  0.27896430936E+01  0.00000000000E+00 0. -1.
</event>
<event>
 5    1  0.3005426E+001  0.1599608E+01  0.7818608E-02  0.3353789E+00
         11   -1    0    0    0    0  0.00000000000E+00  0.00000000000E+00  0.39999999674E+01  0.40000000000E+01  0.51100000000E-03 0.  1.
    9000002   -1    0    0    0    0 -0.00000000000E+00 -0.00000000000E+00  0.00000000000E+00  0.93800000000E+00  0.93800000000E+00 0.  1.
         11    1    1    2    0    0 -0.38580620059E-01  0.88721073552E-01  0.94193193712E+00  0.94688749512E+00  0.51100000000E-03 0.  1.
    9000002    1    1    2    0    0  0.12518350829E+00 -0.37537271820E+00  0.10561264635E+00  0.10235104393E+01  0.93800000000E+00 0.  1.
         22    1    1    2    0    0 -0.86602888236E-01  0.28665164465E+00  0.29524553839E+01  0.29676020656E+01  0.00000000000E+00 0.  1.
</event>
<event>
 5    1  0.3005426E+001  0.1599662E+01  0.7818608E-02  0.3353731E+00
         11   -1    0    0    0    0  0.00000000000E+00  0.00000000000E+00  0.39999999674E+01  0.40000000000E+01  0.51100000000E-03 0. -1.
    9000002   -1    0    0    0    0 -0.00000000000E+00 -0.00000000000E+00  0.00000000000E+00  0.93800000000E+00  0.93800000000E+00 0.  1.
         11    1    1    2    0    0 -0.35942235196E-01  0.16481752605E-01  0.35883941818E+00  0.36101174718E+00  0.51100000000E-03 0. -1.
    9000002    1    1    2    0    0  0.36111493736E+00 -0.17307050220E+00  0.10818314353E+00  0.10256241949E+01  0.93800000000E+00 0.  1.
         22    1    1    2    0    0 -0.32517270217E+00  0.15658874960E+00  0.35329774056E+01  0.35513640579E+01  0.00000000000E+00 0. -1.
</event>
<event>
 5    1  0.3005426E+001  0.1598969E+01  0.7818608E-02  0.3354483E+00
         11   -1    0    0    0    0  0.00000000000E+00  0.00000000000E+00  0.39999999674E+01  0.40000000000E+01  0.51100000000E-03 0.  1.
    9000002   -1    0    0    0    0 -0.00000000000E+00 -0.00000000000E+00  0.00000000000E+00  0.93800000000E+00  0.93800000000E+00 0.  1.
         11    1    1    2    0    0 -0.18164633212E+00 -0.28961692817E-01  0.12821559710E+01  0.12952831215E+01  0.51100000000E-03 0.  1.
    9000002    1    1    2    0    0  0.45539652352E+00  0.75577580745E-01  0.14560223656E+00  0.10555292396E+01  0.93800000000E+00 0.  1.
         22    1    1    2    0    0 -0.27375019140E+00 -0.46615887928E-01  0.25722417598E+01  0.25871876389E+01  0.00000000000E+00 0.  1.
</event>
<event>
 5    1  0.3005426E+001  0.1599673E+01  0.7818608E-02  0.3353718E+00
         11   -1    0    0    0    0  0.00000000000E+00  0.00000000000E+00  0.39999999674E+01  0.40000000000E+01  0.51100000000E-03 0. -1.
    9000002   -1    0    0    0    0 -0.00000000000E+00 -0.00000000000E+00  0.00000000000E+00  0.93800000000E+00  0.93800000000E+00 0.  1.
         11    1    1    2    0    0 -0.73067843026E-01 -0.14541009210E-02  0.58826267825E+00  0.59278517511E+00  0.51100000000E-03 0. -1.
    9000002    1    1    2    0    0  0.48100019393E+00 -0.49863278654E-03  0.15789073807E+00  0.10658962991E+01  0.93800000000E+00 0.  1.
         22    1    1    2    0    0 -0.40793235090E+00  0.19527337075E-02  0.32538465510E+01  0.32793185258E+01  0.00000000000E+00 0. -1.
</event>
<event>
 5    1  0.3005426E+001  0.1599667E+01  0.7818608E-02  0.3353724E+00
         11   -1    0    0    0    0  0.00000000000E+00  0.00000000000E+00  0.39999999674E+01  0.40000000000E+01  0.51100000000E-03 0.  1.
    9000002   -1    0    0    0    0 -0.00000000000E+00 -0.00000000000E+00  0.00000000000E+00  0.93800000000E+00  0.93800000000E+00 0.  1.
         11    1    1    2    0    0  0.98354324513E-01  0.75401420092E-01  0.93841101913E+00  0.94655926874E+00  0.51100000000E-03 0.  1.
    9000002    1    1    2    0    0 -0.39730896474E+00 -0.31968238058E+00  0.17832979057E+00  0.10824494224E+01  0.93800000000E+00 0.  1.
         22    1    1    2    0    0  0.29895464022E+00  0.24428096049E+00  0.28832591577E+01  0.29089913088E+01  0.00000000000E+00 0.  1.
</event>
<event>
 5    1  0.3005426E+001  0.1599671E+01  0.7818608E-02  0.3353721E+00
         11   -1    0    0    0    0  0.00000000000E+00  0.00000000000E+00  0.39999999674E+01  0.40000000000E+01  0.51100000000E-03 0.  1.
    9000002   -1    0    0    0    0 -0.00000000000E+00 -0.00000000000E+00  0.00000000000E+00  0.93800000000E+00  0.93800000000E+00 0. -1.
         11    1    1    2    0    0 -0.41289221815E-01 -0.70093114547E-01  0.69173996838E+00  0.69650720708E+00  0.51100000000E-03 0.  1.
    9000002    1    1    2    0    0  0.21988389794E+00  0.38538804322E+00  0.13359510319E+00  0.10462143777E+01  0.93800000000E+00 0. -1.
         22    1    1    2    0    0 -0.17859467613E+00 -0.31529492868E+00  0.31746648958E+01  0.31952784153E+01  0.00000000000E+00 0.  1.
</event>
<event>
 5    1  0.3005426E+001  0.1599677E+01  0.7818608E-02  0.3353714E+00
         11   -1    0    0    0    0  0.00000000000E+00  0.00000000000E+00  0.39999999674E+01  0.40000000000E+01  0.51100000000E-03 0. -1.
    9000002   -1    0    0    0    0 -0.00000000000E+00 -0.00000000000E+00  0.00000000000E+00  0.93800000000E+00  0.93800000000E+00 0.  1.
         11    1    1    2    0    0 -0.13537623850E+00  0.97032840403E-02  0.14530576857E+01  0.14593826705E+01  0.51100000000E-03 0. -1.
    9000002    1    1    2    0    0  0.36416470843E+00 -0.26984873068E-01  0.89561965918E-01  0.10105490903E+01  0.93800000000E+00 0.  1.
         22    1    1    2    0    0 -0.22878846993E+00  0.17281589028E-01  0.24573803157E+01  0.24680682392E+01  0.00000000000E+00 0.  1.
</event>
<event>
 5    1  0.3005426E+001  0.1599434E+01  0.7818608E-02  0.3353978E+00
         11   -1    0    0    0    0  0.00000000000E+00  0.00000000000E+00  0.39999999674E+01  0.40000000000E+01  0.51100000000E-03 0. -1.
    9000002   -1    0    0    0    0 -0.00000000000E+00 -0.00000000000E+00  0.00000000000E+00  0.93800000000E+00  0.93800000000E+00 0. -1.
         11    1    1    2    0    0  0.54951182122E-01 -0.18047908155E+00  0.14550267799E+01  0.14672067075E+01  0.51100000000E-03 0. -1.
    9000002    1    1    2    0    0 -0.12706167906E+00  0.43403329481E+00  0.13917010785E+00  0.10505912098E+01  0.93800000000E+00 0. -1.
         22    1    1    2    0    0  0.72110496935E-01 -0.25355421326E+00  0.24058030796E+01  0.24202020826E+01  0.00000000000E+00 0. -1.
</event>
<event>
 5    1  0.3005426E+001  0.1599664E+01  0.7818608E-02  0.3353729E+00
         11   -1    0    0    0    0  0.00000000000E+00  0.00000000000E+00  0.39999999674E+01  0.40000000000E+01  0.51100000000E-03 0. -1.
    9000002   -1    0    0    0    0 -0.00000000000E+00 -0.00000000000E+00  0.00000000000E+00  0.93800000000E+00  0.93800000000E+00 0. -1.
         11    1    1    2    0    0  0.43338961782E-01  0.54775784948E-02  0.23822500038E+00  0.24219760817E+00  0.51100000000E-03 0. -1.
    9000002    1    1    2    0    0 -0.69668551933E+00 -0.86442038014E-01  0.35243008545E+00  0.12234761558E+01  0.93800000000E+00 0. -1.
         22    1    1    2    0    0  0.65334655755E+00  0.80964459519E-01  0.34093448815E+01  0.34723262360E+01  0.00000000000E+00 0. -1.
</event>
<event>
 5    1  0.3005426E+001  0.1592719E+01  0.7818608E-02  0.3361304E+00
         11   -1    0    0    0    0  0.00000000000E+00  0.00000000000E+00  0.39999999674E+01  0.40000000000E+01  0.51100000000E-03 0.  1.
    9000002   -1    0    0    0    0 -0.00000000000E+00 -0.00000000000E+00  0.00000000000E+00  0.93800000000E+00  0.93800000000E+00 0. -1.
         11    1    1    2    0    0 -0.53089956318E-01 -0.11397587022E+00  0.87828063710E+00  0.88723513291E+00  0.51100000000E-03 0.  1.
    9000002    1    1    2    0    0  0.33203552701E+00  0.14628911637E+00  0.94068281399E-01  0.10101192694E+01  0.93800000000E+00 0. -1.
         22    1    1    2    0    0 -0.27894557069E+00 -0.32313246150E-01  0.30276510489E+01  0.30406455977E+01  0.00000000000E+00 0.  1.
</event>
<event>
 5    1  0.3005426E+001  0.1597992E+01  0.7818608E-02  0.3355546E+00
         11   -1    0    0    0    0  0.00000000000E+00  0.00000000000E+00  0.39999999674E+01  0.40000000000E+01  0.51100000000E-03 0.  1.
    9000002   -1    0    0    0    0 -0.00000000000E+00 -0.00000000000E+00  0.00000000000E+00  0.93800000000E+00  0.93800000000E+00 0. -1.
         11    1    1    2    0    0  0.72979157257E-01  0.20837553301E-01  0.36244713057E+00  0.37030844522E+00  0.51100000000E-03 0.  1.
    9000002    1    1    2    0    0 -0.49367141421E+00 -0.82161667057E-01  0.17298849231E+00  0.10771402059E+01  0.93800000000E+00 0. -1.
         22    1    1    2    0    0  0.42069225695E+00  0.61324113756E-01  0.34645643445E+01  0.34905513489E+01  0.00000000000E+00 0.  1.
</event>
<event>
 5    1  0.3005426E+001  0.1599603E+01  0.7818608E-02  0.3353794E+00
         11   -1    0    0    0    0  0.00000000000E+00  0.00000000000E+00  0.39999999674E+01  0.40000000000E+01  0.51100000000E-03 0. -1.
    9000002   -1    0    0    0    0 -0.00000000000E+00 -0.00000000000E+00  0.00000000000E+00  0.93800000000E+00  0.93800000000E+00 0.  1.
         11    1    1    2    0    0  0.34496858434E-01  0.29926790372E-01  0.31561374261E+00  0.31890114717E+00  0.51100000000E-03 0. -1.
    9000002    1    1    2    0    0 -0.47166881168E+00 -0.38301758387E+00  0.25806854185E+00  0.11470036224E+01  0.93800000000E+00 0.  1.
         22    1    1    2    0    0  0.43717195324E+00  0.35309079350E+00  0.34263176829E+01  0.34720952304E+01  0.00000000000E+00 0. -1.
</event>
<event>
 5    1  0.3005426E+001  0.1599677E+01  0.7818608E-02  0.3353714E+00
         11   -1    0    0    0    0  0.00000000000E+00  0.00000000000E+00  0.39999999674E+01  0.40000000000E+01  0.51100000000E-03 0. -1.
    9000002   -1    0    0    0    0 -0.00000000000E+00 -0.00000000000E+00  0.00000000000E+00  0.93800000000E+00  0.93800000000E+00 0. -1.
         11    1    1    2    0    0 -0.78601276087E-01  0.58087002519E-01  0.86386883331E+00  0.86938017159E+00  0.51100000000E-03 0.  1.
    9000002    1    1    2    0    0  0.35267419656E+00 -0.25963518212E+00  0.13003270412E+00  0.10433321719E+01  0.93800000000E+00 0. -1.
         22    1    1    2    0    0 -0.27407292047E+00  0.20154817960E+00  0.30060984299E+01  0.30252876565E+01  0.00000000000E+00 0. -1.
</event>
<event>
 5    1  0.3005426E+001  0.1599661E+01  0.7818608E-02  0.3353731E+00
         11   -1    0    0    0    0  0.00000000000E+00  0.00000000000E+00  0.39999999674E+01  0.40000000000E+01  0.51100000000E-03 0.  1.
    9000002   -1    0    0    0    0 -0.00000000000E+00 -0.00000000000E+00  0.00000000000E+00  0.93800000000E+00  0.93800000000E+00 0. -1.
         11    1    1    2    0    0 -0.16454832113E+00  0.25613813027E-02  0.13562975929E+01  0.13662452680E+01  0.51100000000E-03 0.  1.
    9000002    1    1    2    0    0  0.45585937820E+00 -0.30557831351E-02  0.14128284653E+00  0.10524361991E+01  0.93800000000E+00 0. -1.
         22    1    1    2    0    0 -0.29131105707E+00  0.49440183244E-03  0.25024195279E+01  0.25193185329E+01  0.00000000000E+00 0.  1.
</event>
<event>
 5    1  0.3005426E+001  0.1592642E+01  0.7818608E-02  0.3361388E+00
         11   -1    0    0    0    0  0.00000000000E+00  0.00000000000E+00  0.39999999674E+01  0.40000000000E+01  0.51100000000E-03 0. -1.
    9000002   -1    0    0    0    0 -0.00000000000E+00 -0.00000000000E+00  0.00000000000E+00  0.93800000000E+00  0.93800000000E+00 0. -1.
         11    1    1    2    0    0  0.33603546683E-01 -0.28808913077E-01  0.25173868167E+00  0.25560081532E+00  0.51100000000E-03 0. -1.
    9000002    1    1    2    0    0  0.22968386270E+00  0.27800258619E+00  0.93020652025E-01  0.10092259194E+01  0.93800000000E+00 0. -1.
         22    1    1    2    0    0 -0.26328740938E+00 -0.24919367312E+00  0.36552406337E+01  0.36731732653E+01  0.00000000000E+00 0. -1.
</event>
<event>
 5    1  0.3005426E+001  0.1599676E+01  0.7818608E-02  0.3353715E+00
         11   -1    0    0    0    0  0.00000000000E+00  0.00000000000E+00  0.39999999674E+01  0.40000000000E+01  0.51100000000E-03 0.  1.
    9000002   -1    0    0    0    0 -0.00000000000E+00 -0.00000000000E+00  0.00000000000E+00  0.93800000000E+00  0.93800000000E+00 0. -1.
         11    1    1    2    0    0  0.13753640442E+00  0.95543511752E-01  0.14695957705E+01  0.14791067626E+01  0.51100000000E-03 0.  1.
    9000002    1    1    2    0    0 -0.36021598905E+00 -0.25392674056E+00  0.13174354584E+00  0.10447175265E+01  0.93800000000E+00 0. -1.
         22    1    1    2    0    0  0.22267958463E+00  0.15838322881E+00  0.23986606510E+01  0.24141757109E+01  0.00000000000E+00 0. -1.
</event>
<event>
 5    1  0.3005426E+001  0.1597674E+01  0.7818608E-02  0.3355891E+00
         11   -1    0    0    0    0  0.00000000000E+00  0.00000000000E+00  0.39999999674E+01  0.40000000000E+01  0.51100000000E-03 0.  1.
    9000002   -1    0    0    0    0 -0.00000000000E+00 -0.00000000000E+00  0.00000000000E+00  0.93800000000E+00  0.93800000000E+00 0.  1.
         11    1    1    2    0    0  0.25289595107E-01 -0.82985087997E-01  0.14737807931E+01  0.14763320005E+01  0.51100000000E-03 0.  1.
    9000002    1    1    2    0    0 -0.18407806375E+00  0.29586648390E+00  0.83013332853E-01  0.10040701785E+01  0.93800000000E+00 0.  1.
         22    1    1    2    0    0  0.15878846865E+00 -0.21288139590E+00  0.24432058414E+01  0.24575978210E+01  0.00000000000E+00 0.  1.
</event>
<event>
 5    1  0.3005426E+001  0.1599362E+01  0.7818608E-02  0.3354056E+00
         11   -1    0    0    0    0  0.00000000000E+00  0.00000000000E+00  0.39999999674E+01  0.40000000000E+01  0.51100000000E-03 0.  1.
    9000002   -1    0    0    0    0 -0.00000000000E+00 -0.00000000000E+00  0.00000000000E+00  0.93800000000E+00  0.93800000000E+00 0.  1.
         11    1    1    2    0    0  0.74160162075E-02  0.36209659044E-01  0.22965104454E+00  0.23260696482E+00  0.51100000000E-03 0.  1.
    9000002    1    1    2    0    0 -0.49482003793E-01 -0.45444233796E+00  0.14235126480E+00  0.10531259136E+01  0.93800000000E+00 0.  1.
         22    1    1    2    0    0  0.42065987586E-01  0.41823267892E+00  0.36279976580E+01  0.36522671216E+01  0.00000000000E+00 0.  1.
</event>
<event>
 5    1  0.3005426E+001  0.1599677E+01  0.7818608E-02  0.3353714E+00
         11   -1    0    0    0    0  0.00000000000E+00  0.00000000000E+00  0.39999999674E+01  0.40000000000E+01  0.51100000000E-03 0.  1.
    9000002   -1    0    0    0    0 -0.00000000000E+00 -0.00000000000E+00  0.00000000000E+00  0.93800000000E+00  0.93800000000E+00 0.  1.
         11    1    1    2    0    0 -0.13304933469E+00  0.18365743669E-02  0.13738498513E+01  0.13802786579E+01  0.51100000000E-03 0. -1.
    9000002    1    1    2    0    0  0.37834524148E+00 -0.55475354844E-02  0.96315752388E-01  0.10160199905E+01  0.93800000000E+00 0.  1.
         22    1    1    2    0    0 -0.24529590679E+00  0.37109611174E-02  0.25298343637E+01  0.25417013516E+01  0.00000000000E+00 0.  1.
</event>
<event>
 5    1  0.3005426E+001  0.1599673E+01  0.7818608E-02  0.3353719E+00
         11   -1    0    0    0    0  0.00000000000E+00  0.00000000000E+00  0.39999999674E+01  0.40000000000E+01  0.51100000000E-03 0. -1.
    9000002   -1    0    0    0    0 -0.00000000000E+00 -0.00000000000E+00  0.00000000000E+00  0.93800000000E+00  0.93800000000E+00 0.  1.
         11    1    1    2    0    0 -0.52681526193E-01  0.32129539926E-01  0.52364826717E+00  0.52727167510E+00  0.51100000000E-03 0. -1.
    9000002    1    1    2    0    0  0.37957379240E+00 -0.24545842208E+00  0.13882035418E+00  0.10504480909E+01  0.93800000000E+00 0.  1.
         22    1    1    2    0    0 -0.32689226620E+00  0.21332888215E+00  0.33375313460E+01  0.33602802340E+01  0.00000000000E+00 0. -1.
</event>
<event>
 5    1  0.3005426E+001  0.1599668E+01  0.7818608E-02  0.3353724E+00
         11   -1    0    0    0    0  0.00000000000E+00  0.00000000000E+00  0.39999999674E+01  0.40000000000E+01  0.51100000000E-03 0.  1.
    9000002   -1    0    0    0    0 -0.00000000000E+00 -0.00000000000E+00  0.00000000000E+00  0.93800000000E+00  0.93800000000E+00 0.  1.
         11    1    1    2    0    0 -0.17743658958E-01  0.16985159312E-01  0.74253434388E-01  0.78212318144E-01  0.51100000000E-03 0.  1.
    9000002    1    1    2    0    0  0.73862832967E+00 -0.68828283388E+00  0.82461541565E+00  0.16059700036E+01  0.93800000000E+00 0.  1.
         22    1    1    2    0    0 -0.72088467072E+00  0.67129767457E+00  0.31011311173E+01  0.32538176782E+01  0.00000000000E+00 0.  1.
</event>
<event>
 5    1  0.3005426E+001  0.1597830E+01  0.7818608E-02  0.3355722E+00
         11   -1    0    0    0    0  0.00000000000E+00  0.00000000000E+00  0.39999999674E+01  0.40000000000E+01  0.51100000000E-03 0. -1.
    9000002   -1    0    0    0    0 -0.00000000000E+00 -0.00000000000E+00  0.00000000000E+00  0.93800000000E+00  0.93800000000E+00 0.  1.
         11    1    1    2    0    0 -0.76489171829E-01 -0.15343384603E+00  0.14362890705E+01  0.14464850824E+01  0.51100000000E-03 0. -1.
    9000002    1    1    2    0    0  0.73665690876E-01  0.39362903240E+00  0.10971826726E+00  0.10257936183E+01  0.93800000000E+00 0.  1.
         22    1    1    2    0    0  0.28234809534E-02 -0.24019518636E+00  0.24539926296E+01  0.24657212993E+01  0.00000000000E+00 0. -1.
</event>
<event>
 5    1  0.3005426E+001  0.1599668E+01  0.7818608E-02  0.3353724E+00
         11   -1    0    0    0    0  0.00000000000E+00  0.00000000000E+00  0.39999999674E+01  0.40000000000E+01  0.51100000000E-03 0.  1.
    9000002   -1    0    0    0    0 -0.00000000000E+00 -0.00000000000E+00  0.00000000000E+00  0.93800000000E+00  0.93800000000E+00 0.  1.
         11    1    1    2    0    0 -0.34392558788E-01 -0.23418346409E-01  0.32371277310E+00  0.32637629760E+00  0.51100000000E-03 0.  1.
    9000002    1    1    2    0    0  0.38492941025E+00  0.27701723040E+00  0.15332812189E+00  0.10621971144E+01  0.93800000000E+00 0.  1.
         22    1    1    2    0    0 -0.35053685146E+00 -0.25359888399E+00  0.35229590724E+01  0.35494265880E+01  0.00000000000E+00 0.  1.
</event>
<event>
 5    1  0.3005426E+001  0.1599675E+01  0.7818608E-02  0.3353716E+00
         11   -1    0    0    0    0  0.00000000000E+00  0.00000000000E+00  0.39999999674E+01  0.40000000000E+01  0.51100000000E-03 0.  1.
    9000002   -1    0    0    0    0 -0.00000000000E+00 -0.00000000000E+00  0.00000000000E+00  0.93800000000E+00  0.93800000000E+00 0.  1.
         11    1    1    2    0    0  0.10632220822E+00  0.79093943121E-01  0.53474499684E+00  0.55091990032E+00  0.51100000000E-03 0.  1.
    9000002    1    1    2    0    0 -0.68121571580E+00 -0.51514551110E+00  0.54793066734E+00  0.13818472294E+01  0.93800000000E+00 0.  1.
         22    1    1    2    0    0  0.57489350758E+00  0.43605156798E+00  0.29173243032E+01  0.30052328703E+01  0.00000000000E+00 0.  1.
</event>
<event>
 5    1  0.3005426E+001  0.1599522E+01  0.7818608E-02  0.3353882E+00
         11   -1    0    0    0    0  0.00000000000E+00  0.00000000000E+00  0.39999999674E+01  0.40000000000E+01  0.51100000000E-03 0.  1.
    9000002   -1    0    0    0    0 -0.00000000000E+00 -0.00000000000E+00  0.00000000000E+00  0.93800000000E+00  0.93800000000E+00 0.  1.
         11    1    1    2    0    0 -0.36247933682E-02  0.11141190032E+00  0.13137359125E+01  0.13184566961E+01  0.51100000000E-03 0.  1.
    9000002    1    1    2    0    0  0.55702571880E-02 -0.37320510103E+00  0.93786272059E-01  0.10138801409E+01  0.93800000000E+00 0.  1.
         22    1    1    2    0    0 -0.19454638198E-02  0.26179320071E+00  0.25924777828E+01  0.26056631630E+01  0.00000000000E+00 0. -1.
</event>
<event>
 5    1  0.3005426E+001  0.1598676E+01  0.7818608E-02  0.3354802E+00
         11   -1    0    0    0    0  0.00000000000E+00  0.00000000000E+00  0.39999999674E+01  0.40000000000E+01  0.51100000000E-03 0.  1.
    9000002   -1    0    0    0    0 -0.00000000000E+00 -0.00000000000E+00  0.00000000000E+00  0.93800000000E+00  0.93800000000E+00 0. -1.
         11    1    1    2    0    0 -0.51671119106E-02 -0.22014996423E-01  0.10114497269E+00  0.10364326189E+00  0.51100000000E-03 0.  1.
    9000002    1    1    2    0    0  0.20923694214E+00  0.37339753371E+00  0.12489014190E+00  0.10385794932E+01  0.93800000000E+00 0. -1.
         22    1    1    2    0    0 -0.20406983023E+00 -0.35138253728E+00  0.37739648528E+01  0.37957772449E+01  0.00000000000E+00 0.  1.
</event>
<event>
 5    1  0.3005426E+001  0.1483673E+01  0.7818608E-02  0.3490181E+00
         11   -1    0    0    0    0  0.00000000000E+00  0.00000000000E+00  0.39999999674E+01  0.40000000000E+01  0.51100000000E-03 0. -1.
    9000002   -1    0    0    0    0 -0.00000000000E+00 -0.00000000000E+00  0.00000000000E+00  0.93800000000E+00  0.93800000000E+00 0. -1.
         11    1    1    2    0    0  0.39853081116E+00 -0.21017252783E+00  0.67609127999E+00  0.81246475548E+00  0.51100000000E-03 0. -1.
    9000002    1    1    2    0    0 -0.29220793481E+00 -0.10128610689E+00  0.22989964798E+00  0.10140720885E+01  0.93800000000E+00 0. -1.
         22    1    1    2    0    0 -0.10632287635E+00  0.31145863472E+00  0.30940090394E+01  0.31114631560E+01  0.00000000000E+00 0. -1.
</event>
<event>
 5    1  0.3005426E+001  0.1559036E+01  0.7818608E-02  0.3399061E+00
         11   -1    0    0    0    0  0.00000000000E+00  0.00000000000E+00  0.39999999674E+01  0.40000000000E+01  0.51100000000E-03 0.  1.
    9000002   -1    0    0    0    0 -0.00000000000E+00 -0.00000000000E+00  0.00000000000E+00  0.93800000000E+00  0.93800000000E+00 0. -1.
         11    1    1    2    0    0 -0.20379956587E+00  0.51710410254E-01  0.12577223219E+01  0.12751760387E+01  0.51100000000E-03 0.  1.
    9000002    1    1    2    0    0  0.31287762231E-01  0.20360003414E+00  0.59268349936E-01  0.96217910769E+00  0.93800000000E+00 0. -1.
         22    1    1    2    0    0  0.17251180363E+00 -0.25531044440E+00  0.26830092955E+01  0.27006448536E+01  0.00000000000E+00 0.  1.
</event>
<event>
 5    1  0.3005426E+001  0.1599669E+01  0.7818608E-02  0.3353722E+00
         11   -1    0    0    0    0  0.00000000000E+00  0.00000000000E+00  0.39999999674E+01  0.40000000000E+01  0.51100000000E-03 0. -1.
    9000002   -1    0    0    0    0 -0.00000000000E+00 -0.00000000000E+00  0.00000000000E+00  0.93800000000E+00  0.93800000000E+00 0. -1.
         11    1    1    2    0    0 -0.30799733661E-01  0.28701781306E-01  0.21279321908E+00  0.21691848942E+00  0.51100000000E-03 0.  1.
    9000002    1    1    2    0    0  0.50342192233E+00 -0.50135872684E+00  0.36180395707E+00  0.12310728282E+01  0.93800000000E+00 0. -1.
         22    1    1    2    0    0 -0.47262218867E+00  0.47265694554E+00  0.34254027912E+01  0.34900086824E+01  0.00000000000E+00 0. -1.
</event>
<event>
 5    1  0.3005426E+001  0.1594480E+01  0.7818608E-02  0.3359376E+00
         11   -1    0    0    0    0  0.00000000000E+00  0.00000000000E+00  0.39999999674E+01  0.40000000000E+01  0.51100000000E-03 0. -1.
    9000002   -1    0    0    0    0 -0.00000000000E+00 -0.00000000000E+00  0.00000000000E+00  0.93800000000E+00  0.93800000000E+00 0. -1.
         11    1    1    2    0    0  0.22046071706E-01 -0.30990809247E-01  0.70472296147E+00  0.70574866141E+00  0.51100000000E-03 0. -1.
    9000002    1    1    2    0    0 -0.34062456065E+00 -0.12696329179E+00  0.92970998346E-01  0.10102635178E+01  0.93800000000E+00 0. -1.
         22    1    1    2    0    0  0.31857848894E+00  0.15795410104E+00  0.32023060075E+01  0.32219878208E+01  0.00000000000E+00 0. -1.
</event>
<event>
 5    1  0.3005426E+001  0.1459201E+01  0.7818608E-02  0.3521957E+00
         11   -1    0    0    0    0  0.00000000000E+00  0.00000000000E+00  0.39999999674E+01  0.40000000000E+01  0.51100000000E-03 0. -1.
    9000002   -1    0    0    0    0 -0.00000000000E+00 -0.00000000000E+00  0.00000000000E+00  0.93800000000E+00  0.93800000000E+00 0. -1.
         11    1    1    2    0    0 -0.36221989063E+00 -0.77871838253E-01  0.48702891846E+00  0.61193520972E+00  0.51100000000E-03 0. -1.
    9000002    1    1    2    0    0  0.28638559242E+00 -0.26677438530E+00  0.25346081256E+00  0.10475073574E+01  0.93800000000E+00 0. -1.
         22    1    1    2    0    0  0.75834298213E-01  0.34464622356E+00  0.32595102363E+01  0.32785574329E+01  0.00000000000E+00 0. -1.
</event>
<event>
 5    1  0.3005426E+001  0.1547691E+01  0.7818608E-02  0.3412171E+00
         11   -1    0    0    0    0  0.00000000000E+00  0.00000000000E+00  0.39999999674E+01  0.40000000000E+01  0.51100000000E-03 0.  1.
    9000002   -1    0    0    0    0 -0.00000000000E+00 -0.00000000000E+00  0.00000000000E+00  0.93800000000E+00  0.93800000000E+00 0. -1.
         11    1    1    2    0    0  0.10061515181E+00  0.12134105694E+00  0.42615665908E+00  0.45437519747E+00  0.51100000000E-03 0.  1.
    9000002    1    1    2    0    0  0.19902771048E+00 -0.59543620056E-03  0.66231594767E-01  0.96116752350E+00  0.93800000000E+00 0. -1.
         22    1    1    2    0    0 -0.29964286229E+00 -0.12074562074E+00  0.35076117135E+01  0.35224572790E+01  0.00000000000E+00 0.  1.
</event>
<event>
 5    1  0.3005426E+001  0.1591029E+01  0.7818608E-02  0.3363158E+00
         11   -1    0    0    0    0  0.00000000000E+00  0.00000000000E+00  0.39999999674E+01  0.40000000000E+01  0.51100000000E-03 0.  1.
    9000002   -1    0    0    0    0 -0.00000000000E+00 -0.00000000000E+00  0.00000000000E+00  0.93800000000E+00  0.93800000000E+00 0. -1.
         11    1    1    2    0    0  0.79993645540E-01 -0.33993580799E-01  0.10285939778E+01  0.10322598409E+01  0.51100000000E-03 0.  1.
    9000002    1    1    2    0    0 -0.28878342031E+00 -0.24477864755E+00  0.10353461412E+00  0.10167968659E+01  0.93800000000E+00 0. -1.
         22    1    1    2    0    0  0.20878977477E+00  0.27877222835E+00  0.28678713754E+01  0.28889432932E+01  0.00000000000E+00 0.  1.
</event>
<event>
 5    1  0.3005426E+001  0.1592855E+01  0.7818608E-02  0.3361155E+00
         11   -1    0    0    0    0  0.00000000000E+00  0.00000000000E+00  0.39999999674E+01  0.40000000000E+01  0.51100000000E-03 0.  1.
    9000002   -1    0    0    0    0 -0.00000000000E+00 -0.00000000000E+00  0.00000000000E+00  0.93800000000E+00  0.93800000000E+00 0.  1.
         11    1    1    2    0    0 -0.34709517809E-01  0.29051895713E-01  0.41847227668E+00  0.42091337677E+00  0.51100000000E-03 0.  1.
    9000002    1    1    2    0    0 -0.24858010653E+00 -0.23435669442E+00  0.83672967198E-01  0.10017785659E+01  0.93800000000E+00 0.  1.
         22    1    1    2    0    0  0.28328962434E+00  0.20530479871E+00  0.34978547235E+01  0.35153080574E+01  0.00000000000E+00 0.  1.
</event>
<event>
 5    1  0.3005426E+001  0.1599419E+01  0.7818608E-02  0.3353994E+00
         11   -1    0    0    0    0  0.00000000000E+00  0.00000000000E+00  0.39999999674E+01  0.40000000000E+01  0.51100000000E-03 0.  1.
    9000002   -1    0    0    0    0 -0.00000000000E+00 -0.00000000000E+00  0.00000000000E+00  0.93800000000E+00  0.93800000000E+00 0. -1.
         11    1    1    2    0    0  0.57588340787E-01  0.97591188259E-02  0.40180937557E+00  0.40603287159E+00  0.51100000000E-03 0.  1.
    9000002    1    1    2    0    0 -0.44429214527E+00 -0.60786455539E-01  0.13676843739E+00  0.10486372628E+01  0.93800000000E+00 0. -1.
         22    1    1    2    0    0  0.38670380449E+00  0.51027336714E-01  0.34614221544E+01  0.34833298656E+01  0.00000000000E+00 0.  1.
</event>
<event>
 5    1  0.3005426E+001  0.1594368E+01  0.7818608E-02  0.3359499E+00
         11   -1    0    0    0    0  0.00000000000E+00  0.00000000000E+00  0.39999999674E+01  0.40000000000E+01  0.51100000000E-03 0. -1.
    9000002   -1    0    0    0    0 -0.00000000000E+00 -0.00000000000E+00  0.00000000000E+00  0.93800000000E+00  0.93800000000E+00 0.  1.
         11    1    1    2    0    0 -0.13917188846E-01 -0.35622427997E-01  0.56716751434E+00  0.56845571152E+00  0.51100000000E-03 0. -1.
    9000002    1    1    2    0    0 -0.28012069997E+00  0.43238043969E+00  0.18703205808E+00  0.10863910170E+01  0.93800000000E+00 0.  1.
         22    1    1    2    0    0  0.29403788881E+00 -0.39675801169E+00  0.32458003949E+01  0.32831532714E+01  0.00000000000E+00 0. -1.
</event>
<event>
 5    1  0.3005426E+001  0.1599392E+01  0.7818608E-02  0.3354024E+00
         11   -1    0    0    0    0  0.00000000000E+00  0.00000000000E+00  0.39999999674E+01  0.40000000000E+01  0.51100000000E-03 0. -1.
    9000002   -1    0    0    0    0 -0.00000000000E+00 -0.00000000000E+00  0.00000000000E+00  0.93800000000E+00  0.93800000000E+00 0. -1.
         11    1    1    2    0    0  0.10001448963E+00  0.15673355753E+00  0.11823211814E+01  0.11968508442E+01  0.51100000000E-03 0. -1.
    9000002    1    1    2    0    0 -0.27994117427E+00 -0.54320549482E+00  0.26146175281E+00  0.11496284264E+01  0.93800000000E+00 0. -1.
         22    1    1    2    0    0  0.17992668464E+00  0.38647193728E+00  0.25562170332E+01  0.25915207294E+01  0.00000000000E+00 0. -1.
</event>
<event>
 5    1  0.3005426E+001  0.1599631E+01  0.7818608E-02  0.3353764E+00
         11   -1    0    0    0    0  0.00000000000E+00  0.00000000000E+00  0.39999999674E+01  0.40000000000E+01  0.51100000000E-03 0.  1.
    9000002   -1    0    0    0    0 -0.00000000000E+00 -0.00000000000E+00  0.00000000000E+00  0.93800000000E+00  0.93800000000E+00 0. -1.
         11    1    1    2    0    0 -0.36552625549E+00 -0.90792033525E-01  0.10498867662E+01  0.11153990854E+01  0.51100000000E-03 0.  1.
    9000002    1    1    2    0    0  0.10375034984E+01  0.27756620091E+00  0.97352650374E+00  0.17265730099E+01  0.93800000000E+00 0. -1.
         22    1    1    2    0    0 -0.67197724293E+00 -0.18677416739E+00  0.19765866974E+01  0.20960279046E+01  0.00000000000E+00 0.  1.
</event>
<event>
 5    1  0.3005426E+001  0.1599179E+01  0.7818608E-02  0.3354255E+00
         11   -1    0    0    0    0  0.00000000000E+00  0.00000000000E+00  0.39999999674E+01  0.40000000000E+01  0.51100000000E-03 0. -1.
    9000002   -1    0    0    0    0 -0.00000000000E+00 -0.00000000000E+00  0.00000000000E+00  0.93800000000E+00  0.93800000000E+00 0. -1.
         11    1    1    2    0    0 -0.20962982764E-02 -0.35087475982E-02  0.15723100012E-01  0.16253700230E-01  0.51100000000E-03 0. -1.
    9000002    1    1    2    0    0  0.37753762964E+00  0.40899675993E-01  0.97434030325E-01  0.10166340716E+01  0.93800000000E+00 0. -1.
         22    1    1    2    0    0 -0.37544133136E+00 -0.37390928395E-01  0.38868428370E+01  0.39051122282E+01  0.00000000000E+00 0. -1.
</event>
<event>
 5    1  0.3005426E+001  0.1599626E+01  0.7818608E-02  0.3353770E+00
         11   -1    0    0    0    0  0.00000000000E+00  0.00000000000E+00  0.39999999674E+01  0.40000000000E+01  0.51100000000E-03 0.  1.
    9000002   -1    0    0    0    0 -0.00000000000E+00 -0.00000000000E+00  0.00000000000E+00  0.93800000000E+00  0.93800000000E+00 0.  1.
         11    1    1    2    0    0 -0.14387689895E+00  0.13553584862E-01  0.11868858330E+01  0.11956514975E+01  0.51100000000E-03 0.  1.
    9000002    1    1    2    0    0  0.44941387778E+00 -0.62166950125E-01  0.13992243661E+00  0.10513133936E+01  0.93800000000E+00 0.  1.
         22    1    1    2    0    0 -0.30553697883E+00  0.48613365264E-01  0.26731916977E+01  0.26910351089E+01  0.00000000000E+00 0.  1.
</event>
<event>
 5    1  0.3005426E+001  0.1599615E+01  0.7818608E-02  0.3353781E+00
         11   -1    0    0    0    0  0.00000000000E+00  0.00000000000E+00  0.39999999674E+01  0.40000000000E+01  0.51100000000E-03 0. -1.
    9000002   -1    0    0    0    0 -0.00000000000E+00 -0.00000000000E+00  0.00000000000E+00  0.93800000000E+00  0.93800000000E+00 0. -1.
         11    1    1    2    0    0  0.14836581025E+00  0.12891809746E+00  0.14799317547E+01  0.14929268398E+01  0.51100000000E-03 0. -1.
    9000002    1    1    2    0    0 -0.37141277052E+00 -0.35357655944E+00  0.18046341152E+00  0.10841470714E+01  0.93800000000E+00 0. -1.
         22    1    1    2    0    0  0.22304696027E+00  0.22465846198E+00  0.23396048012E+01  0.23609260888E+01  0.00000000000E+00 0. -1.
</event>
<event>
 5    1  0.3005426E+001  0.1599659E+01  0.7818608E-02  0.3353734E+00
         11   -1    0    0    0    0  0.00000000000E+00  0.00000000000E+00  0.39999999674E+01  0.40000000000E+01  0.51100000000E-03 0.  1.
    9000002   -1    0    0    0    0 -0.00000000000E+00 -0.00000000000E+00  0.00000000000E+00  0.93800000000E+00  0.93800000000E+00 0. -1.
         11    1    1    2    0    0 -0.11043591583E+00  0.73454265165E-01  0.13816369544E+01  0.13879886727E+01  0.51100000000E-03 0.  1.
    9000002    1    1    2    0    0  0.30851272088E+00 -0.19464918333E+00  0.89387483929E-01  0.10103972119E+01  0.93800000000E+00 0. -1.
         22    1    1    2    0    0 -0.19807680505E+00  0.12119491817E+00  0.25289755290E+01  0.25396141154E+01  0.00000000000E+00 0.  1.
</event>
<event>
 5    1  0.3005426E+001  0.1599404E+01  0.7818608E-02  0.3354010E+00
         11   -1    0    0    0    0  0.00000000000E+00  0.00000000000E+00  0.39999999674E+01  0.40000000000E+01  0.51100000000E-03 0. -1.
    9000002   -1    0    0    0    0 -0.00000000000E+00 -0.00000000000E+00  0.00000000000E+00  0.93800000000E+00  0.93800000000E+00 0. -1.
         11    1    1    2    0    0 -0.10561376690E+00  0.72382036074E-01  0.10321877535E+01  0.10400986716E+01  0.51100000000E-03 0. -1.
    9000002    1    1    2    0    0  0.33032360260E+00 -0.27412859574E+00  0.12500668716E+00  0.10391009774E+01  0.93800000000E+00 0. -1.
         22    1    1    2    0    0 -0.22470983570E+00  0.20174655967E+00  0.28428055267E+01  0.28588003510E+01  0.00000000000E+00 0. -1.
</event>
<event>
 5    1  0.3005426E+001  0.1592743E+01  0.7818608E-02  0.3361278E+00
         11   -1    0    0    0    0  0.00000000000E+00  0.00000000000E+00  0.39999999674E+01  0.40000000000E+01  0.51100000000E-03 0. -1.
    9000002   -1    0    0    0    0 -0.00000000000E+00 -0.00000000000E+00  0.00000000000E+00  0.93800000000E+00  0.93800000000E+00 0. -1.
         11    1    1    2    0    0  0.51501904403E-01  0.44929110544E-01  0.34111929603E+00  0.34789898876E+00  0.51100000000E-03 0. -1.
    9000002    1    1    2    0    0  0.52047433193E-01 -0.40172559680E+00  0.11656910225E+00  0.10283602219E+01  0.93800000000E+00 0. -1.
         22    1    1    2    0    0 -0.10354933760E+00  0.35679648626E+00  0.35423115691E+01  0.35617407893E+01  0.00000000000E+00 0. -1.
</event>
<event>
 5    1  0.3005426E+001  0.1528397E+01  0.7818608E-02  0.3434944E+00
         11   -1    0    0    0    0  0.00000000000E+00  0.00000000000E+00  0.39999999674E+01  0.40000000000E+01  0.51100000000E-03 0. -1.
    9000002   -1    0    0    0    0 -0.00000000000E+00 -0.00000000000E+00  0.00000000000E+00  0.93800000000E+00  0.93800000000E+00 0.  1.
         11    1    1    2    0    0 -0.86465652673E-01  0.51528554014E-01  0.73464533091E-01  0.12461460474E+00  0.51100000000E-03 0. -1.
    9000002    1    1    2    0    0 -0.30884442840E+00 -0.44083889528E+00  0.26955050327E+00  0.11145516078E+01  0.93800000000E+00 0.  1.
         22    1    1    2    0    0  0.39531008107E+00  0.38931034126E+00  0.36569849310E+01  0.36988337875E+01  0.00000000000E+00 0. -1.
</event>
<event>
 5    1  0.3005426E+001  0.1472563E+01  0.7818608E-02  0.3504465E+00
         11   -1    0    0    0    0  0.00000000000E+00  0.00000000000E+00  0.39999999674E+01  0.40000000000E+01  0.51100000000E-03 0. -1.
    9000002   -1    0    0    0    0 -0.00000000000E+00 -0.00000000000E+00  0.00000000000E+00  0.93800000000E+00  0.93800000000E+00 0. -1.
         11    1    1    2    0    0 -0.14006357950E+00 -0.42093878404E+00  0.98246989199E+00  0.10779863710E+01  0.51100000000E-03 0. -1.
    9000002    1    1    2    0    0  0.41705706069E+00  0.15084994339E+00  0.25222877452E+00  0.10677807134E+01  0.93800000000E+00 0. -1.
         22    1    1    2    0    0 -0.27699348119E+00  0.27008884064E+00  0.27653013008E+01  0.27922329156E+01  0.00000000000E+00 0. -1.
</event>
<event>
 5    1  0.3005426E+001  0.1599205E+01  0.7818608E-02  0.3354226E+00
         11   -1    0    0    0    0  0.00000000000E+00  0.00000000000E+00  0.39999999674E+01  0.40000000000E+01  0.51100000000E-03 0.  1.
    9000002   -1    0    0    0    0 -0.00000000000E+00 -0.00000000000E+00  0.00000000000E+00  0.93800000000E+00  0.93800000000E+00 0. -1.
         11    1    1    2    0    0  0.48007010503E-01 -0.11010469575E+00  0.97215392141E+00  0.97954643847E+00  0.51100000000E-03 0.  1.
    9000002    1    1    2    0    0 -0.16695437847E+00  0.35379994476E+00  0.10350916541E+00  0.10215705129E+01  0.93800000000E+00 0. -1.
         22    1    1    2    0    0  0.11894736797E+00 -0.24369524901E+00  0.29243368805E+01  0.29368830487E+01  0.00000000000E+00 0.  1.
</event>
<event>
 5    1  0.3005426E+001  0.1599489E+01  0.7818608E-02  0.3353918E+00
         11   -1    0    0    0    0  0.00000000000E+00  0.00000000000E+00  0.39999999674E+01  0.40000000000E+01  0.51100000000E-03 0. -1.
    9000002   -1    0    0    0    0 -0.00000000000E+00 -0.00000000000E+00  0.00000000000E+00  0.93800000000E+00  0.93800000000E+00 0. -1.
         11    1    1    2    0    0 -0.53218353378E-01  0.70143394233E-02  0.54429856331E+00  0.54693928478E+00  0.51100000000E-03 0. -1.
    9000002    1    1    2    0    0  0.45496072921E+00 -0.23941130233E-01  0.14125357960E+00  0.10523112736E+01  0.93800000000E+00 0. -1.
         22    1    1    2    0    0 -0.40174237583E+00  0.16926790810E-01  0.33144478245E+01  0.33387494416E+01  0.00000000000E+00 0. -1.
</event>
<event>
 5    1  0.3005426E+001  0.1599672E+01  0.7818608E-02  0.3353720E+00
         11   -1    0    0    0    0  0.00000000000E+00  0.00000000000E+00  0.39999999674E+01  0.40000000000E+01  0.51100000000E-03 0.  1.
    9000002   -1    0    0    0    0 -0.00000000000E+00 -0.00000000000E+00  0.00000000000E+00  0.93800000000E+00  0.93800000000E+00 0. -1.
         11    1    1    2    0    0 -0.80239171650E-01 -0.18020473937E-01  0.87746329127E+00  0.88130877154E+00  0.51100000000E-03 0.  1.
    9000002    1    1    2    0    0  0.34799044867E+00  0.77964881043E-01  0.85339941975E-01  0.10071260004E+01  0.93800000000E+00 0. -1.
         22    1    1    2    0    0 -0.26775127702E+00 -0.59944407106E-01  0.30371967341E+01  0.30495652280E+01  0.00000000000E+00 0.  1.
</event>
<event>
 5    1  0.3005426E+001  0.1599653E+01  0.7818608E-02  0.3353740E+00
         11   -1    0    0    0    0  0.00000000000E+00  0.00000000000E+00  0.39999999674E+01  0.40000000000E+01  0.51100000000E-03 0.  1.
    9000002   -1    0    0    0    0 -0.00000000000E+00 -0.00000000000E+00  0.00000000000E+00  0.93800000000E+00  0.93800000000E+00 0.  1.
         11    1    1    2    0    0  0.11557198469E+00  0.21098255692E-01  0.13124494930E+01  0.13176972159E+01  0.51100000000E-03 0.  1.
    9000002    1    1    2    0    0 -0.35903151160E+00 -0.55287149834E-01  0.88632108080E-01  0.10097821279E+01  0.93800000000E+00 0.  1.
         22    1    1    2    0    0  0.24345952692E+00  0.34188894142E-01  0.25989183663E+01  0.26105206562E+01  0.00000000000E+00 0.  1.
</event>
<event>
 5    1  0.3005426E+001  0.1592908E+01  0.7818608E-02  0.3361097E+00
         11   -1    0    0    0    0  0.00000000000E+00  0.00000000000E+00  0.39999999674E+01  0.40000000000E+01  0.51100000000E-03 0.  1.
    9000002   -1    0    0    0    0 -0.00000000000E+00 -0.00000000000E+00  0.00000000000E+00  0.93800000000E+00  0.93800000000E+00 0.  1.
         11    1    1    2    0    0  0.13229014704E-02  0.36760880154E-01  0.52334743332E+00  0.52463883716E+00  0.51100000000E-03 0.  1.
    9000002    1    1    2    0    0 -0.26402286801E+00  0.16058413577E+00  0.69102820901E-01  0.99000734308E+00  0.93800000000E+00 0.  1.
         22    1    1    2    0    0  0.26269996654E+00 -0.19734501593E+00  0.34075497131E+01  0.34233538198E+01  0.00000000000E+00 0.  1.
</event>
<event>
 5    1  0.3005426E+001  0.1599677E+01  0.7818608E-02  0.3353714E+00
         11   -1    0    0    0    0  0.00000000000E+00  0.00000000000E+00  0.39999999674E+01  0.40000000000E+01  0.51100000000E-03 0. -1.
    9000002   -1    0    0    0    0 -0.00000000000E+00 -0.00000000000E+00  0.00000000000E+00  0.93800000000E+00  0.93800000000E+00 0.  1.
         11    1    1    2    0    0  0.46218432100E-01 -0.38464150885E-01  0.55380807824E+00  0.55706308710E+00  0.51100000000E-03 0. -1.
    9000002    1    1    2    0    0 -0.32417771640E+00  0.26669156133E+00  0.11917218220E+00  0.10345344797E+01  0.93800000000E+00 0.  1.
         22    1    1    2    0    0  0.27795928430E+00 -0.22822741045E+00  0.33270197069E+01  0.33464024332E+01  0.00000000000E+00 0. -1.
</event>
<event>
 5    1  0.3005426E+001  0.1591990E+01  0.7818608E-02  0.3362103E+00
         11   -1    0    0    0    0  0.00000000000E+00  0.00000000000E+00  0.39999999674E+01  0.40000000000E+01  0.51100000000E-03 0. -1.
    9000002   -1    0    0    0    0 -0.00000000000E+00 -0.00000000000E+00  0.00000000000E+00  0.93800000000E+00  0.93800000000E+00 0.  1.
         11    1    1    2    0    0  0.19665724030E-01  0.20855947062E-01  0.31673187481E+00  0.31802681156E+00  0.51100000000E-03 0. -1.
    9000002    1    1    2    0    0 -0.23821958195E+00  0.45037631700E+00  0.18500546818E+00  0.10833551677E+01  0.93800000000E+00 0.  1.
         22    1    1    2    0    0  0.21855385792E+00 -0.47123226406E+00  0.34982626244E+01  0.35366180207E+01  0.00000000000E+00 0. -1.
</event>
<event>
 5    1  0.3005426E+001  0.1597083E+01  0.7818608E-02  0.3356535E+00
         11   -1    0    0    0    0  0.00000000000E+00  0.00000000000E+00  0.39999999674E+01  0.40000000000E+01  0.51100000000E-03 0.  1.
    9000002   -1    0    0    0    0 -0.00000000000E+00 -0.00000000000E+00  0.00000000000E+00  0.93800000000E+00  0.93800000000E+00 0.  1.
         11    1    1    2    0    0 -0.39558715283E-02  0.32338345415E-01  0.21447613728E+00  0.21693706942E+00  0.51100000000E-03 0.  1.
    9000002    1    1    2    0    0 -0.34468722005E+00 -0.29459454004E+00  0.14195759529E+00  0.10514709609E+01  0.93800000000E+00 0.  1.
         22    1    1    2    0    0  0.34864309158E+00  0.26225619462E+00  0.36435662348E+01  0.36695919697E+01  0.00000000000E+00 0.  1.
</event>
<event>
 5    1  0.3005426E+001  0.1597719E+01  0.7818608E-02  0.3355842E+00
         11   -1    0    0    0    0  0.00000000000E+00  0.00000000000E+00  0.39999999674E+01  0.40000000000E+01  0.51100000000E-03 0. -1.
    9000002   -1    0    0    0    0 -0.00000000000E+00 -0.00000000000E+00  0.00000000000E+00  0.93800000000E+00  0.93800000000E+00 0.  1.
         11    1    1    2    0    0  0.89475650668E-01 -0.90407280848E-02  0.12284019347E+01  0.12316895717E+01  0.51100000000E-03 0. -1.
    9000002    1    1    2    0    0 -0.30920318991E+00 -0.12717135527E+00  0.76386044087E-01  0.99872818824E+00  0.93800000000E+00 0.  1.
         22    1    1    2    0    0  0.21972753924E+00  0.13621208335E+00  0.26952119886E+01  0.27075822401E+01  0.00000000000E+00 0. -1.
</event>
<event>
 5    1  0.3005426E+001  0.1599677E+01  0.7818608E-02  0.3353714E+00
         11   -1    0    0    0    0  0.00000000000E+00  0.00000000000E+00  0.39999999674E+01  0.40000000000E+01  0.51100000000E-03 0.  1.
    9000002   -1    0    0    0    0 -0.00000000000E+00 -0.00000000000E+00  0.00000000000E+00  0.93800000000E+00  0.93800000000E+00 0.  1.
         11    1    1    2    0    0 -0.52303546814E-01 -0.13593999501E+00  0.13990810641E+01  0.14066426086E+01  0.51100000000E-03 0. -1.
    9000002    1    1    2    0    0  0.14604080660E+00  0.37974960365E+00  0.11175821040E+00  0.10285288407E+01  0.93800000000E+00 0.  1.
         22    1    1    2    0    0 -0.93737259783E-01 -0.24380960864E+00  0.24891606928E+01  0.25028285506E+01  0.00000000000E+00 0.  1.
</event>
<event>
 5    1  0.3005426E+001  0.1582754E+01  0.7818608E-02  0.3372296E+00
         11   -1    0    0    0    0  0.00000000000E+00  0.00000000000E+00  0.39999999674E+01  0.40000000000E+01  0.51100000000E-03 0. -1.
    9000002   -1    0    0    0    0 -0.00000000000E+00 -0.00000000000E+00  0.00000000000E+00  0.93800000000E+00  0.93800000000E+00 0.  1.
         11    1    1    2    0    0 -0.84727207031E-01 -0.65123932897E-01  0.13298276682E+01  0.13341145807E+01  0.51100000000E-03 0. -1.
    9000002    1    1    2    0    0  0.71567910929E-01 -0.20748845509E+00  0.44813926675E-01  0.96437840752E+00  0.93800000000E+00 0.  1.
         22    1    1    2    0    0  0.13159296103E-01  0.27261238799E+00  0.26253583725E+01  0.26395070118E+01  0.00000000000E+00 0. -1.
</event>
<event>
 5    1  0.3005426E+001  0.1597552E+01  0.7818608E-02  0.3356024E+00
         11   -1    0    0    0    0  0.00000000000E+00  0.00000000000E+00  0.39999999674E+01  0.40000000000E+01  0.51100000000E-03 0. -1.
    9000002   -1    0    0    0    0 -0.00000000000E+00 -0.00000000000E+00  0.00000000000E+00  0.93800000000E+00  0.93800000000E+00 0.  1.
         11    1    1    2    0    0  0.86346888149E-01 -0.84355850460E-01  0.10383341819E+01  0.10453276180E+01  0.51100000000E-03 0. -1.
    9000002    1    1    2    0    0 -0.35195482162E+00  0.13475650710E+00  0.97270794200E-01  0.10155476946E+01  0.93800000000E+00 0.  1.
         22    1    1    2    0    0  0.26560793347E+00 -0.50400656639E-01  0.28643949913E+01  0.28771246874E+01  0.00000000000E+00 0. -1.
</event>
<event>
 5    1  0.3005426E+001  0.1599607E+01  0.7818608E-02  0.3353790E+00
         11   -1    0    0    0    0  0.00000000000E+00  0.00000000000E+00  0.39999999674E+01  0.40000000000E+01  0.51100000000E-03 0. -1.
    9000002   -1    0    0    0    0 -0.00000000000E+00 -0.00000000000E+00  0.00000000000E+00  0.93800000000E+00  0.93800000000E+00 0. -1.
         11    1    1    2    0    0  0.59067124105E-01 -0.79613513697E-02  0.30136711191E+00  0.30720466390E+00  0.51100000000E-03 0. -1.
    9000002    1    1    2    0    0 -0.68460768002E+00  0.38526352625E-01  0.33482667739E+00  0.12091835507E+01  0.93800000000E+00 0. -1.
         22    1    1    2    0    0  0.62554055591E+00 -0.30565001256E-01  0.33638061781E+01  0.34216117854E+01  0.00000000000E+00 0. -1.
</event>
<event>
 5    1  0.3005426E+001  0.1598457E+01  0.7818608E-02  0.3355040E+00
         11   -1    0    0    0    0  0.00000000000E+00  0.00000000000E+00  0.39999999674E+01  0.40000000000E+01  0.51100000000E-03 0.  1.
    9000002   -1    0    0    0    0 -0.00000000000E+00 -0.00000000000E+00  0.00000000000E+00  0.93800000000E+00  0.93800000000E+00 0.  1.
         11    1    1    2    0    0 -0.12122730554E+00 -0.61347214573E-01  0.10325803871E+01  0.10414807043E+01  0.51100000000E-03 0.  1.
    9000002    1    1    2    0    0  0.57287081236E+00  0.24449128528E+00  0.27328350069E+00  0.11586564754E+01  0.93800000000E+00 0.  1.
         22    1    1    2    0    0 -0.45164350683E+00 -0.18314407071E+00  0.26941360795E+01  0.27378628203E+01  0.00000000000E+00 0.  1.
</event>
<event>
 5    1  0.3005426E+001  0.1599667E+01  0.7818608E-02  0.3353725E+00
         11   -1    0    0    0    0  0.00000000000E+00  0.00000000000E+00  0.39999999674E+01  0.40000000000E+01  0.51100000000E-03 0.  1.
    9000002   -1    0    0    0    0 -0.00000000000E+00 -0.00000000000E+00  0.00000000000E+00  0.93800000000E+00  0.93800000000E+00 0.  1.
         11    1    1    2    0    0 -0.50149482633E-01 -0.63977940487E-01  0.65288930515E+00  0.65793073600E+00  0.51100000000E-03 0.  1.
    9000002    1    1    2    0    0  0.28051418669E+00  0.38476733580E+00  0.15461972105E+00  0.10632428555E+01  0.93800000000E+00 0.  1.
         22    1    1    2    0    0 -0.23036470406E+00 -0.32078939531E+00  0.31924909412E+01  0.32168264085E+01  0.00000000000E+00 0.  1.
</event>
<event>
 5    1  0.3005426E+001  0.1599032E+01  0.7818608E-02  0.3354415E+00
         11   -1    0    0    0    0  0.00000000000E+00  0.00000000000E+00  0.39999999674E+01  0.40000000000E+01  0.51100000000E-03 0.  1.
    9000002   -1    0    0    0    0 -0.00000000000E+00 -0.00000000000E+00  0.00000000000E+00  0.93800000000E+00  0.93800000000E+00 0.  1.
         11    1    1    2    0    0 -0.16898948746E-01 -0.10792198092E+00  0.13592714902E+01  0.13636539054E+01  0.51100000000E-03 0.  1.
    9000002    1    1    2    0    0  0.29038455441E-02  0.38017707921E+00  0.97786304907E-01  0.10168329289E+01  0.93800000000E+00 0.  1.
         22    1    1    2    0    0  0.13995103202E-01 -0.27225509828E+00  0.25429421722E+01  0.25575131657E+01  0.00000000000E+00 0. -1.
</event>
<event>
 5    1  0.3005426E+001  0.1599667E+01  0.7818608E-02  0.3353725E+00
         11   -1    0    0    0    0  0.00000000000E+00  0.00000000000E+00  0.39999999674E+01  0.40000000000E+01  0.51100000000E-03 0.  1.
    9000002   -1    0    0    0    0 -0.00000000000E+00 -0.00000000000E+00  0.00000000000E+00  0.93800000000E+00  0.93800000000E+00 0.  1.
         11    1    1    2    0    0  0.16310723399E-01 -0.33344190792E-01  0.41528857450E+00  0.41694452387E+00  0.51100000000E-03 0. -1.
    9000002    1    1    2    0    0 -0.17511669370E+00  0.30823239951E+00  0.84315655696E-01  0.10062932964E+01  0.93800000000E+00 0.  1.
         22    1    1    2    0    0  0.15880597030E+00 -0.27488820872E+00  0.35003957372E+01  0.35147621798E+01  0.00000000000E+00 0.  1.
</event>
<event>
 5    1  0.3005426E+001  0.1599676E+01  0.7818608E-02  0.3353715E+00
         11   -1    0    0    0    0  0.00000000000E+00  0.00000000000E+00  0.39999999674E+01  0.40000000000E+01  0.51100000000E-03 0. -1.
    9000002   -1    0    0    0    0 -0.00000000000E+00 -0.00000000000E+00  0.00000000000E+00  0.93800000000E+00  0.93800000000E+00 0. -1.
         11    1    1    2    0    0 -0.35240244115E-01  0.13647566906E+00  0.13734380141E+01  0.13806519195E+01  0.51100000000E-03 0. -1.
    9000002    1    1    2    0    0  0.10359386547E+00 -0.38605900763E+00  0.10776746143E+00  0.10252956023E+01  0.93800000000E+00 0. -1.
         22    1    1    2    0    0 -0.68353621358E-01  0.24958333858E+00  0.25187944918E+01  0.25320524782E+01  0.00000000000E+00 0. -1.
</event>
<event>
 5    1  0.3005426E+001  0.1477297E+01  0.7818608E-02  0.3498350E+00
         11   -1    0    0    0    0  0.00000000000E+00  0.00000000000E+00  0.39999999674E+01  0.40000000000E+01  0.51100000000E-03 0. -1.
    9000002   -1    0    0    0    0 -0.00000000000E+00 -0.00000000000E+00  0.00000000000E+00  0.93800000000E+00  0.93800000000E+00 0. -1.
         11    1    1    2    0    0 -0.14269176511E+00 -0.15540817555E+00  0.12404885874E+00  0.24474685153E+00  0.51100000000E-03 0. -1.
    9000002    1    1    2    0    0 -0.12850401351E+00 -0.66549588022E-01  0.16202331193E+00  0.96282796114E+00  0.93800000000E+00 0. -1.
         22    1    1    2    0    0  0.27119577862E+00  0.22195776357E+00  0.37139277967E+01  0.37304251873E+01  0.00000000000E+00 0. -1.
</event>
<event>
 5    1  0.3005426E+001  0.1599675E+01  0.7818608E-02  0.3353716E+00
         11   -1    0    0    0    0  0.00000000000E+00  0.00000000000E+00  0.39999999674E+01  0.40000000000E+01  0.51100000000E-03 0.  1.
    9000002   -1    0    0    0    0 -0.00000000000E+00 -0.00000000000E+00  0.00000000000E+00  0.93800000000E+00  0.93800000000E+00 0. -1.
         11    1    1    2    0    0 -0.11934492688E+00 -0.30273681236E-01  0.13250161736E+01  0.13307245503E+01  0.51100000000E-03 0.  1.
    9000002    1    1    2    0    0  0.35448592453E+00  0.92853532862E-01  0.90206561402E-01  0.10110703601E+01  0.93800000000E+00 0. -1.
         22    1    1    2    0    0 -0.23514099765E+00 -0.62579851626E-01  0.25847772324E+01  0.25962050897E+01  0.00000000000E+00 0.  1.
</event>
<event>
 5    1  0.3005426E+001  0.1597198E+01  0.7818608E-02  0.3356410E+00
         11   -1    0    0    0    0  0.00000000000E+00  0.00000000000E+00  0.39999999674E+01  0.40000000000E+01  0.51100000000E-03 0.  1.
    9000002   -1    0    0    0    0 -0.00000000000E+00 -0.00000000000E+00  0.00000000000E+00  0.93800000000E+00  0.93800000000E+00 0. -1.
         11    1    1    2    0    0  0.15853380918E-01  0.20926401344E-03  0.66331511512E+00  0.66350476753E+00  0.51100000000E-03 0.  1.
    9000002    1    1    2    0    0 -0.26514020897E+00  0.20224454165E+00  0.76408843751E-01  0.99844103303E+00  0.93800000000E+00 0. -1.
         22    1    1    2    0    0  0.24928682805E+00 -0.20245380567E+00  0.32602760085E+01  0.32760541994E+01  0.00000000000E+00 0.  1.
</event>
<event>
 5    1  0.3005426E+001  0.1598737E+01  0.7818608E-02  0.3354736E+00
         11   -1    0    0    0    0  0.00000000000E+00  0.00000000000E+00  0.39999999674E+01  0.40000000000E+01  0.51100000000E-03 0.  1.
    9000002   -1    0    0    0    0 -0.00000000000E+00 -0.00000000000E+00  0.00000000000E+00  0.93800000000E+00  0.93800000000E+00 0.  1.
         11    1    1    2    0    0  0.12261393951E+00 -0.63882629791E-01  0.14902620788E+01  0.14966617831E+01  0.51100000000E-03 0.  1.
    9000002    1    1    2    0    0 -0.27979552935E+00  0.25167360776E+00  0.96019398719E-01  0.10152284807E+01  0.93800000000E+00 0.  1.
         22    1    1    2    0    0  0.15718158984E+00 -0.18779097797E+00  0.24137184899E+01  0.24261097362E+01  0.00000000000E+00 0.  1.
</event>
<event>
 5    1  0.3005426E+001  0.1599670E+01  0.7818608E-02  0.3353721E+00
         11   -1    0    0    0    0  0.00000000000E+00  0.00000000000E+00  0.39999999674E+01  0.40000000000E+01  0.51100000000E-03 0.  1.
    9000002   -1    0    0    0    0 -0.00000000000E+00 -0.00000000000E+00  0.00000000000E+00  0.93800000000E+00  0.93800000000E+00 0. -1.
         11    1    1    2    0    0  0.75307765270E-01  0.55232062791E-01  0.86914461748E+00  0.87414785219E+00  0.51100000000E-03 0.  1.
    9000002    1    1    2    0    0 -0.34436777363E+00 -0.25420022235E+00  0.12404609563E+00  0.10384788637E+01  0.93800000000E+00 0. -1.
         22    1    1    2    0    0  0.26906000836E+00  0.19896815956E+00  0.30068092543E+01  0.30253732841E+01  0.00000000000E+00 0.  1.
</event>
<event>
 5    1  0.3005426E+001  0.1599666E+01  0.7818608E-02  0.3353726E+00
         11   -1    0    0    0    0  0.00000000000E+00  0.00000000000E+00  0.39999999674E+01  0.40000000000E+01  0.51100000000E-03 0. -1.
    9000002   -1    0    0    0    0 -0.00000000000E+00 -0.00000000000E+00  0.00000000000E+00  0.93800000000E+00  0.93800000000E+00 0. -1.
         11    1    1    2    0    0  0.72266278168E-01 -0.15349914847E-01  0.72226866580E+00  0.72603741058E+00  0.51100000000E-03 0. -1.
    9000002    1    1    2    0    0 -0.39808178418E+00  0.68364527387E-01  0.11010803989E+00  0.10271857651E+01  0.93800000000E+00 0. -1.
         22    1    1    2    0    0  0.32581550601E+00 -0.53014612540E-01  0.31676232617E+01  0.31847768244E+01  0.00000000000E+00 0. -1.
</event>
<event>
 5    1  0.3745545E+001  0.1598385E+01  0.7818608E-02  0.3355118E+00
         11   -1    0    0    0    0  0.00000000000E+00  0.00000000000E+00  0.39999999674E+01  0.40000000000E+01  0.51100000000E-03 0.  1.
    9000002   -1    0    0    0    0 -0.00000000000E+00 -0.00000000000E+00  0.00000000000E+00  0.93800000000E+00  0.93800000000E+00 0.  1.
         11    1    1    2    0    0 -0.77157437356E-01  0.38394348529E-01  0.14636071391E+01  0.14661423924E+01  0.51100000000E-03 0.  1.
    9000002    1    1    2    0    0  0.29532447604E+00 -0.17202382563E+00  0.79287096932E-01  0.10014685150E+01  0.93800000000E+00 0.  1.
         22    1    1    2    0    0 -0.21816703868E+00  0.13362947710E+00  0.24571057313E+01  0.24703890926E+01  0.00000000000E+00 0.  1.
</event>
<event>
 5    1  0.3005426E+001  0.1599676E+01  0.7818608E-02  0.3353715E+00
         11   -1    0    0    0    0  0.00000000000E+00  0.00000000000E+00  0.39999999674E+01  0.40000000000E+01  0.51100000000E-03 0.  1.
    9000002   -1    0    0    0    0 -0.00000000000E+00 -0.00000000000E+00  0.00000000000E+00  0.93800000000E+00  0.93800000000E+00 0. -1.
         11    1    1    2    0    0  0.39993415499E-02 -0.53289242721E-01  0.57516633170E+00  0.57764375558E+00  0.51100000000E-03 0.  1.
    9000002    1    1    2    0    0 -0.30222728299E-01  0.36053314889E+00  0.87885067588E-01  0.10091904428E+01  0.93800000000E+00 0. -1.
         22    1    1    2    0    0  0.26223386749E-01 -0.30724390617E+00  0.33369485681E+01  0.33511658016E+01  0.00000000000E+00 0.  1.
</event>
<event>
 5    1  0.3005426E+001  0.1599671E+01  0.7818608E-02  0.3353720E+00
         11   -1    0    0    0    0  0.00000000000E+00  0.00000000000E+00  0.39999999674E+01  0.40000000000E+01  0.51100000000E-03 0.  1.
    9000002   -1    0    0    0    0 -0.00000000000E+00 -0.00000000000E+00  0.00000000000E+00  0.93800000000E+00  0.93800000000E+00 0. -1.
         11    1    1    2    0    0 -0.36728721543E-01 -0.73222360249E-01  0.89012107811E+00  0.89388271481E+00  0.51100000000E-03 0.  1.
    9000002    1    1    2    0    0  0.16967971642E+00  0.31560866653E+00  0.86178209590E-01  0.10078049019E+01  0.93800000000E+00 0. -1.
         22    1    1    2    0    0 -0.13295099488E+00 -0.24238630628E+00  0.30237006797E+01  0.30363123833E+01  0.00000000000E+00 0.  1.
</event>
<event>
 5    1  0.3005426E+001  0.1599591E+01  0.7818608E-02  0.3353808E+00
         11   -1    0    0    0    0  0.00000000000E+00  0.00000000000E+00  0.39999999674E+01  0.40000000000E+01  0.51100000000E-03 0.  1.
    9000002   -1    0    0    0    0 -0.00000000000E+00 -0.00000000000E+00  0.00000000000E+00  0.93800000000E+00  0.93800000000E+00 0.  1.
         11    1    1    2    0    0  0.86132437387E-01  0.34461763453E-01  0.37586544235E+00  0.38714532386E+00  0.51100000000E-03 0.  1.
    9000002    1    1    2    0    0 -0.75242839827E+00 -0.36534586957E+00  0.52217046674E+00  0.13609305990E+01  0.93800000000E+00 0.  1.
         22    1    1    2    0    0  0.66629596089E+00  0.33088410612E+00  0.31019640583E+01  0.31899240771E+01  0.00000000000E+00 0.  1.
</event>
<event>
 5    1  0.3005426E+001  0.1599673E+01  0.7818608E-02  0.3353718E+00
         11   -1    0    0    0    0  0.00000000000E+00  0.00000000000E+00  0.39999999674E+01  0.40000000000E+01  0.51100000000E-03 0. -1.
    9000002   -1    0    0    0    0 -0.00000000000E+00 -0.00000000000E+00  0.00000000000E+00  0.93800000000E+00  0.93800000000E+00 0. -1.
         11    1    1    2    0    0  0.13160929401E+00  0.99067701483E-01  0.93962526076E+00  0.95395561087E+00  0.51100000000E-03 0. -1.
    9000002    1    1    2    0    0 -0.51117899812E+00 -0.39185204844E+00  0.29233193260E+00  0.11747995381E+01  0.93800000000E+00 0. -1.
         22    1    1    2    0    0  0.37956970411E+00  0.29278434695E+00  0.27680427740E+01  0.28092448510E+01  0.00000000000E+00 0.  1.
</event>
<event>
 5    1  0.3005426E+001  0.1580975E+01  0.7818608E-02  0.3374274E+00
         11   -1    0    0    0    0  0.00000000000E+00  0.00000000000E+00  0.39999999674E+01  0.40000000000E+01  0.51100000000E-03 0.  1.
    9000002   -1    0    0    0    0 -0.00000000000E+00 -0.00000000000E+00  0.00000000000E+00  0.93800000000E+00  0.93800000000E+00 0. -1.
         11    1    1    2    0    0  0.23503669603E-01  0.99420940694E-01  0.12157016781E+01  0.12199867939E+01  0.51100000000E-03 0.  1.
    9000002    1    1    2    0    0 -0.32792836564E-01  0.16870704077E+00  0.33542243920E-01  0.95420465198E+00  0.93800000000E+00 0. -1.
         22    1    1    2    0    0  0.92891669605E-02 -0.26812798147E+00  0.27507560453E+01  0.27638085541E+01  0.00000000000E+00 0. -1.
</event>
<event>
 5    1  0.3005426E+001  0.1599624E+01  0.7818608E-02  0.3353772E+00
         11   -1    0    0    0    0  0.00000000000E+00  0.00000000000E+00  0.39999999674E+01  0.40000000000E+01  0.51100000000E-03 0.  1.
    9000002   -1    0    0    0    0 -0.00000000000E+00 -0.00000000000E+00  0.00000000000E+00  0.93800000000E+00  0.93800000000E+00 0.  1.
         11    1    1    2    0    0  0.11000500838E+00  0.29886120189E-02  0.89052086842E+00  0.89729466280E+00  0.51100000000E-03 0.  1.
    9000002    1    1    2    0    0 -0.45949615773E+00  0.14340760037E-01  0.14379530745E+00  0.10544493666E+01  0.93800000000E+00 0.  1.
         22    1    1    2    0    0  0.34949114936E+00 -0.17329372056E-01  0.29656837915E+01  0.29862559706E+01  0.00000000000E+00 0.  1.
</event>
<event>
 5    1  0.3005426E+001  0.1531861E+01  0.7818608E-02  0.3430811E+00
         11   -1    0    0    0    0  0.00000000000E+00  0.00000000000E+00  0.39999999674E+01  0.40000000000E+01  0.51100000000E-03 0.  1.
    9000002   -1    0    0    0    0 -0.00000000000E+00 -0.00000000000E+00  0.00000000000E+00  0.93800000000E+00  0.93800000000E+00 0.  1.
         11    1    1    2    0    0  0.65076742814E-01 -0.22135280355E+00  0.70536555119E+00  0.74214073330E+00  0.51100000000E-03 0.  1.
    9000002    1    1    2    0    0  0.16642500207E+00 -0.71467639201E-02  0.70416774670E-01  0.95527529001E+00  0.93800000000E+00 0.  1.
         22    1    1    2    0    0 -0.23150174489E+00  0.22849956747E+00  0.32242176415E+01  0.32405839767E+01  0.00000000000E+00 0.  1.
</event>
<event>
 5    1  0.3315610E+001  0.1599668E+01  0.7818608E-02  0.3353724E+00
         11   -1    0    0    0    0  0.00000000000E+00  0.00000000000E+00  0.39999999674E+01  0.40000000000E+01  0.51100000000E-03 0. -1.
    9000002   -1    0    0    0    0 -0.00000000000E+00 -0.00000000000E+00  0.00000000000E+00  0.93800000000E+00  0.93800000000E+00 0.  1.
         11    1    1    2    0    0  0.12552934035E+00 -0.89746726913E-01  0.13963865873E+01  0.14048871316E+01  0.51100000000E-03 0. -1.
    9000002    1    1    2    0    0 -0.35699136840E+00  0.25234118523E+00  0.12957159512E+00  0.10429533590E+01  0.93800000000E+00 0.  1.
         22    1    1    2    0    0  0.23146202805E+00 -0.16259445832E+00  0.24740417850E+01  0.24901595094E+01  0.00000000000E+00 0. -1.
</event>
<event>
 5    1  0.3005426E+001  0.1599665E+01  0.7818608E-02  0.3353727E+00
         11   -1    0    0    0    0  0.00000000000E+00  0.00000000000E+00  0.39999999674E+01  0.40000000000E+01  0.51100000000E-03 0. -1.
    9000002   -1    0    0    0    0 -0.00000000000E+00 -0.00000000000E+00  0.00000000000E+00  0.93800000000E+00  0.93800000000E+00 0.  1.
         11    1    1    2    0    0 -0.35719910531E-01  0.11586361021E+00  0.55273184964E+00  0.56587370225E+00  0.51100000000E-03 0. -1.
    9000002    1    1    2    0    0  0.24760787685E+00 -0.74747705433E+00  0.45482810052E+00  0.13064242069E+01  0.93800000000E+00 0.  1.
         22    1    1    2    0    0 -0.21188796632E+00  0.63161344412E+00  0.29924400172E+01  0.30657020908E+01  0.00000000000E+00 0. -1.
</event>
<event>
 5    1  0.3005426E+001  0.1597951E+01  0.7818608E-02  0.3355590E+00
         11   -1    0    0    0    0  0.00000000000E+00  0.00000000000E+00  0.39999999674E+01  0.40000000000E+01  0.51100000000E-03 0.  1.
    9000002   -1    0    0    0    0 -0.00000000000E+00 -0.00000000000E+00  0.00000000000E+00  0.93800000000E+00  0.93800000000E+00 0.  1.
         11    1    1    2    0    0  0.20261297165E-02 -0.70869856436E-01  0.53004881475E+00  0.53476971576E+00  0.51100000000E-03 0.  1.
    9000002    1    1    2    0    0  0.11346374707E+00  0.69618724153E+00  0.35805440711E+00  0.12270279767E+01  0.93800000000E+00 0.  1.
         22    1    1    2    0    0 -0.11548987679E+00 -0.62531738509E+00  0.31118967455E+01  0.31762023075E+01  0.00000000000E+00 0.  1.
</event>
<event>
 5    1  0.3005426E+001  0.1597753E+01  0.7818608E-02  0.3355806E+00
         11   -1    0    0    0    0  0.00000000000E+00  0.00000000000E+00  0.39999999674E+01  0.40000000000E+01  0.51100000000E-03 0.  1.
    9000002   -1    0    0    0    0 -0.00000000000E+00 -0.00000000000E+00  0.00000000000E+00  0.93800000000E+00  0.93800000000E+00 0.  1.
         11    1    1    2    0    0  0.19080604270E+00 -0.69251308450E-02  0.12550230684E+01  0.12694636925E+01  0.51100000000E-03 0.  1.
    9000002    1    1    2    0    0 -0.43732366713E+00  0.50366693371E-01  0.13308184121E+00  0.10446739061E+01  0.93800000000E+00 0.  1.
         22    1    1    2    0    0  0.24651762443E+00 -0.43441562526E-01  0.26118950577E+01  0.26238624013E+01  0.00000000000E+00 0.  1.
</event>
<event>
 5    1  0.3005426E+001  0.1599675E+01  0.7818608E-02  0.3353717E+00
         11   -1    0    0    0    0  0.00000000000E+00  0.00000000000E+00  0.39999999674E+01  0.40000000000E+01  0.51100000000E-03 0. -1.
    9000002   -1    0    0    0    0 -0.00000000000E+00 -0.00000000000E+00  0.00000000000E+00  0.93800000000E+00  0.93800000000E+00 0. -1.
         11    1    1    2    0    0 -0.17351928799E+00  0.12458249562E+00  0.13636135593E+01  0.13802434357E+01  0.51100000000E-03 0. -1.
    9000002    1    1    2    0    0  0.47926733581E+00 -0.34801539298E+00  0.24436429981E+00  0.11359444546E+01  0.93800000000E+00 0. -1.
         22    1    1    2    0    0 -0.30574804783E+00  0.22343289737E+00  0.23920221082E+01  0.24218121097E+01  0.00000000000E+00 0. -1.
</event>
<event>
 5    1  0.3005426E+001  0.1599677E+01  0.7818608E-02  0.3353715E+00
         11   -1    0    0    0    0  0.00000000000E+00  0.00000000000E+00  0.39999999674E+01  0.40000000000E+01  0.51100000000E-03 0. -1.
    9000002   -1    0    0    0    0 -0.00000000000E+00 -0.00000000000E+00  0.00000000000E+00  0.93800000000E+00  0.93800000000E+00 0. -1.
         11    1    1    2    0    0  0.45274141717E-01 -0.57640188112E-01  0.69633356120E+00  0.70018056869E+00  0.51100000000E-03 0. -1.
    9000002    1    1    2    0    0 -0.25561694420E+00  0.32227125650E+00  0.11429731368E+00  0.10305855912E+01  0.93800000000E+00 0. -1.
         22    1    1    2    0    0  0.21034280248E+00 -0.26463106838E+00  0.31893690925E+01  0.32072338401E+01  0.00000000000E+00 0. -1.
</event>
<event>
 5    1  0.3005426E+001  0.1599492E+01  0.7818608E-02  0.3353915E+00
         11   -1    0    0    0    0  0.00000000000E+00  0.00000000000E+00  0.39999999674E+01  0.40000000000E+01  0.51100000000E-03 0. -1.
    9000002   -1    0    0    0    0 -0.00000000000E+00 -0.00000000000E+00  0.00000000000E+00  0.93800000000E+00  0.93800000000E+00 0. -1.
         11    1    1    2    0    0  0.13344721529E+00 -0.25318252681E-02  0.12423367251E+01  0.12494860420E+01  0.51100000000E-03 0. -1.
    9000002    1    1    2    0    0 -0.37600882777E+00 -0.12808572489E-01  0.95346703897E-01  0.10151264414E+01  0.93800000000E+00 0. -1.
         22    1    1    2    0    0  0.24256161248E+00  0.15340397757E-01  0.26623165384E+01  0.26733875166E+01  0.00000000000E+00 0. -1.
</event>
<event>
 5    1  0.3005426E+001  0.1599581E+01  0.7818608E-02  0.3353818E+00
         11   -1    0    0    0    0  0.00000000000E+00  0.00000000000E+00  0.39999999674E+01  0.40000000000E+01  0.51100000000E-03 0.  1.
    9000002   -1    0    0    0    0 -0.00000000000E+00 -0.00000000000E+00  0.00000000000E+00  0.93800000000E+00  0.93800000000E+00 0. -1.
         11    1    1    2    0    0  0.13391331336E-01  0.93681365898E-01  0.82566659930E+00  0.83107227146E+00  0.51100000000E-03 0.  1.
    9000002    1    1    2    0    0 -0.10773955685E+00 -0.43520250369E+00  0.13657154730E+00  0.10485727533E+01  0.93800000000E+00 0. -1.
         22    1    1    2    0    0  0.94348225513E-01  0.34152113779E+00  0.30377618208E+01  0.30583549753E+01  0.00000000000E+00 0.  1.
</event>
<event>
 5    1  0.3005426E+001  0.1599676E+01  0.7818608E-02  0.3353715E+00
         11   -1    0    0    0    0  0.00000000000E+00  0.00000000000E+00  0.39999999674E+01  0.40000000000E+01  0.51100000000E-03 0. -1.
    9000002   -1    0    0    0    0 -0.00000000000E+00 -0.00000000000E+00  0.00000000000E+00  0.93800000000E+00  0.93800000000E+00 0. -1.
         11    1    1    2    0    0  0.38521885630E-01 -0.11195602114E-01  0.32531874040E+00  0.32778319231E+00  0.51100000000E-03 0. -1.
    9000002    1    1    2    0    0 -0.45231537612E+00  0.13374513736E+00  0.15160134669E+00  0.10608034359E+01  0.93800000000E+00 0. -1.
         22    1    1    2    0    0  0.41379349049E+00 -0.12254953525E+00  0.35230798803E+01  0.35494133718E+01  0.00000000000E+00 0. -1.
</event>
<event>
 5    1  0.3005426E+001  0.1599676E+01  0.7818608E-02  0.3353715E+00
         11   -1    0    0    0    0  0.00000000000E+00  0.00000000000E+00  0.39999999674E+01  0.40000000000E+01  0.51100000000E-03 0.  1.
    9000002   -1    0    0    0    0 -0.00000000000E+00 -0.00000000000E+00  0.00000000000E+00  0.93800000000E+00  0.93800000000E+00 0.  1.
         11    1    1    2    0    0  0.11785398202E+00  0.88746143367E-01  0.56866076968E+00  0.58748682635E+00  0.51100000000E-03 0.  1.
    9000002    1    1    2    0    0 -0.70960267816E+00 -0.52737303031E+00  0.59427631465E+00  0.14193895209E+01  0.93800000000E+00 0.  1.
         22    1    1    2    0    0  0.59174869614E+00  0.43862688694E+00  0.28370628830E+01  0.29311236527E+01  0.00000000000E+00 0.  1.
</event>
<event>
 5    1  0.3005426E+001  0.1599674E+01  0.7818608E-02  0.3353718E+00
         11   -1    0    0    0    0  0.00000000000E+00  0.00000000000E+00  0.39999999674E+01  0.40000000000E+01  0.51100000000E-03 0. -1.
    9000002   -1    0    0    0    0 -0.00000000000E+00 -0.00000000000E+00  0.00000000000E+00  0.93800000000E+00  0.93800000000E+00 0. -1.
         11    1    1    2    0    0  0.43220351503E-02 -0.24539523886E-02  0.51251046419E-01  0.51494006935E-01  0.51100000000E-03 0.  1.
    9000002    1    1    2    0    0 -0.32259775959E+00  0.19209091745E+00  0.94800171137E-01  0.10147902776E+01  0.93800000000E+00 0. -1.
         22    1    1    2    0    0  0.31827572444E+00 -0.18963696507E+00  0.38539487498E+01  0.38717157155E+01  0.00000000000E+00 0. -1.
</event>
<event>
 5    1  0.3005426E+001  0.1572366E+01  0.7818608E-02  0.3383914E+00
         11   -1    0    0    0    0  0.00000000000E+00  0.00000000000E+00  0.39999999674E+01  0.40000000000E+01  0.51100000000E-03 0.  1.
    9000002   -1    0    0    0    0 -0.00000000000E+00 -0.00000000000E+00  0.00000000000E+00  0.93800000000E+00  0.93800000000E+00 0.  1.
         11    1    1    2    0    0 -0.56030465033E-01  0.13092571549E+00  0.69577036787E+00  0.71019548148E+00  0.51100000000E-03 0.  1.
    9000002    1    1    2    0    0 -0.23331958935E+00 -0.80066135145E-01  0.61550511315E-01  0.97184416560E+00  0.93800000000E+00 0.  1.
         22    1    1    2    0    0  0.28935005438E+00 -0.50859580349E-01  0.32426790882E+01  0.32559603529E+01  0.00000000000E+00 0.  1.
</event>
<event>
 5    1  0.3005426E+001  0.1599496E+01  0.7818608E-02  0.3353911E+00
         11   -1    0    0    0    0  0.00000000000E+00  0.00000000000E+00  0.39999999674E+01  0.40000000000E+01  0.51100000000E-03 0.  1.
    9000002   -1    0    0    0    0 -0.00000000000E+00 -0.00000000000E+00  0.00000000000E+00  0.93800000000E+00  0.93800000000E+00 0. -1.
         11    1    1    2    0    0 -0.60662523732E-01  0.20173781659E-01  0.60670835530E+00  0.61006738379E+00  0.51100000000E-03 0.  1.
    9000002    1    1    2    0    0  0.38233185736E+00 -0.20380634447E+00  0.12734001750E+00  0.10410447422E+01  0.93800000000E+00 0. -1.
         22    1    1    2    0    0 -0.32166933363E+00  0.18363256281E+00  0.32659515946E+01  0.32868878740E+01  0.00000000000E+00 0.  1.
</event>
<event>
 5    1  0.3005426E+001  0.1599642E+01  0.7818608E-02  0.3353752E+00
         11   -1    0    0    0    0  0.00000000000E+00  0.00000000000E+00  0.39999999674E+01  0.40000000000E+01  0.51100000000E-03 0.  1.
    9000002   -1    0    0    0    0 -0.00000000000E+00 -0.00000000000E+00  0.00000000000E+00  0.93800000000E+00  0.93800000000E+00 0. -1.
         11    1    1    2    0    0 -0.10303315775E-03 -0.73436150528E-03  0.72912712638E-02  0.73466768198E-02  0.51100000000E-03 0.  1.
    9000002    1    1    2    0    0  0.14106375840E+00  0.54950379954E+00  0.22308600835E+00  0.11186888650E+01  0.93800000000E+00 0. -1.
         22    1    1    2    0    0 -0.14096072525E+00 -0.54876943803E+00  0.37696226877E+01  0.38119644581E+01  0.00000000000E+00 0.  1.
</event>
<event>
 5    1  0.3005426E+001  0.1599578E+01  0.7818608E-02  0.3353821E+00
         11   -1    0    0    0    0  0.00000000000E+00  0.00000000000E+00  0.39999999674E+01  0.40000000000E+01  0.51100000000E-03 0.  1.
    9000002   -1    0    0    0    0 -0.00000000000E+00 -0.00000000000E+00  0.00000000000E+00  0.93800000000E+00  0.93800000000E+00 0.  1.
         11    1    1    2    0    0 -0.47037101864E-01 -0.81481633365E-02  0.53782065852E+00  0.53993536962E+00  0.51100000000E-03 0.  1.
    9000002    1    1    2    0    0  0.34415876538E+00  0.11909196567E+00  0.89151220741E-01  0.10101584491E+01  0.93800000000E+00 0.  1.
         22    1    1    2    0    0 -0.29712166352E+00 -0.11094380234E+00  0.33730280881E+01  0.33879061813E+01  0.00000000000E+00 0.  1.
</event>
<event>
 5    1  0.3005426E+001  0.1599671E+01  0.7818608E-02  0.3353721E+00
         11   -1    0    0    0    0  0.00000000000E+00  0.00000000000E+00  0.39999999674E+01  0.40000000000E+01  0.51100000000E-03 0. -1.
    9000002   -1    0    0    0    0 -0.00000000000E+00 -0.00000000000E+00  0.00000000000E+00  0.93800000000E+00  0.93800000000E+00 0.  1.
         11    1    1    2    0    0 -0.11722215528E+00 -0.88885662812E-02  0.70015989450E+00  0.70996068855E+00  0.51100000000E-03 0. -1.
    9000002    1    1    2    0    0  0.61315007294E+00  0.44778635809E-01  0.26455620323E+00  0.11522986257E+01  0.93800000000E+00 0.  1.
         22    1    1    2    0    0 -0.49592791766E+00 -0.35890069527E-01  0.30352838696E+01  0.30757406857E+01  0.00000000000E+00 0. -1.
</event>
<event>
 5    1  0.3005426E+001  0.1510312E+01  0.7818608E-02  0.3456856E+00
         11   -1    0    0    0    0  0.00000000000E+00  0.00000000000E+00  0.39999999674E+01  0.40000000000E+01  0.51100000000E-03 0. -1.
    9000002   -1    0    0    0    0 -0.00000000000E+00 -0.00000000000E+00  0.00000000000E+00  0.93800000000E+00  0.93800000000E+00 0.  1.
         11    1    1    2    0    0 -0.24051890857E+00 -0.34497908840E+00  0.11880119892E+01  0.12602510323E+01  0.51100000000E-03 0. -1.
    9000002    1    1    2    0    0  0.37509535412E+00  0.10470970507E+00  0.18007893102E+00  0.10314713125E+01  0.93800000000E+00 0.  1.
         22    1    1    2    0    0 -0.13457644555E+00  0.24026938332E+00  0.26319090471E+01  0.26462776552E+01  0.00000000000E+00 0. -1.
</event>
<event>
 5    1  0.3005426E+001  0.1540634E+01  0.7818608E-02  0.3420430E+00
         11   -1    0    0    0    0  0.00000000000E+00  0.00000000000E+00  0.39999999674E+01  0.40000000000E+01  0.51100000000E-03 0. -1.
    9000002   -1    0    0    0    0 -0.00000000000E+00 -0.00000000000E+00  0.00000000000E+00  0.93800000000E+00  0.93800000000E+00 0.  1.
         11    1    1    2    0    0  0.14700722128E+00 -0.16260428432E+00  0.10252777081E+01  0.10484492912E+01  0.51100000000E-03 0. -1.
    9000002    1    1    2    0    0  0.12794924972E+00 -0.77828656982E-01  0.59721343283E-01  0.95175571929E+00  0.93800000000E+00 0.  1.
         22    1    1    2    0    0 -0.27495647101E+00  0.24043294130E+00  0.29150009160E+01  0.29377949895E+01  0.00000000000E+00 0. -1.
</event>
<event>
 5    1  0.3005426E+001  0.1598632E+01  0.7818608E-02  0.3354849E+00
         11   -1    0    0    0    0  0.00000000000E+00  0.00000000000E+00  0.39999999674E+01  0.40000000000E+01  0.51100000000E-03 0.  1.
    9000002   -1    0    0    0    0 -0.00000000000E+00 -0.00000000000E+00  0.00000000000E+00  0.93800000000E+00  0.93800000000E+00 0. -1.
         11    1    1    2    0    0 -0.12553876026E+00  0.48485790017E-01  0.12283260692E+01  0.12356763515E+01  0.51100000000E-03 0.  1.
    9000002    1    1    2    0    0  0.37494562327E+00 -0.41754365920E-01  0.96588388982E-01  0.10156283594E+01  0.93800000000E+00 0. -1.
         22    1    1    2    0    0 -0.24940686302E+00 -0.67314240968E-02  0.26750855092E+01  0.26866952892E+01  0.00000000000E+00 0.  1.
</event>
<event>
 5    1  0.3005426E+001  0.1599670E+01  0.7818608E-02  0.3353721E+00
         11   -1    0    0    0    0  0.00000000000E+00  0.00000000000E+00  0.39999999674E+01  0.40000000000E+01  0.51100000000E-03 0.  1.
    9000002   -1    0    0    0    0 -0.00000000000E+00 -0.00000000000E+00  0.00000000000E+00  0.93800000000E+00  0.93800000000E+00 0. -1.
         11    1    1    2    0    0  0.72350688967E-01  0.46696704409E-03  0.63101015345E+00  0.63514479856E+00  0.51100000000E-03 0.  1.
    9000002    1    1    2    0    0 -0.43067592876E+00  0.99967141091E-03  0.12563338992E+00  0.10397646386E+01  0.93800000000E+00 0. -1.
         22    1    1    2    0    0  0.35832523979E+00 -0.14666384550E-02  0.32433564240E+01  0.32630905629E+01  0.00000000000E+00 0.  1.
</event>
<event>
 5    1  0.3005426E+001  0.1538328E+01  0.7818608E-02  0.3423146E+00
         11   -1    0    0    0    0  0.00000000000E+00  0.00000000000E+00  0.39999999674E+01  0.40000000000E+01  0.51100000000E-03 0.  1.
    9000002   -1    0    0    0    0 -0.00000000000E+00 -0.00000000000E+00  0.00000000000E+00  0.93800000000E+00  0.93800000000E+00 0.  1.
         11    1    1    2    0    0  0.19975665995E+00  0.24689534984E+00  0.10791363063E+01  0.11248979801E+01  0.51100000000E-03 0.  1.
    9000002    1    1    2    0    0 -0.31329779015E+00 -0.11020440134E-01  0.11569380155E+00  0.99574394858E+00  0.93800000000E+00 0.  1.
         22    1    1    2    0    0  0.11354113020E+00 -0.23587490970E+00  0.28051698595E+01  0.28173580713E+01  0.00000000000E+00 0.  1.
</event>
<event>
 5    1  0.3005426E+001  0.1598674E+01  0.7818608E-02  0.3354804E+00
         11   -1    0    0    0    0  0.00000000000E+00  0.00000000000E+00  0.39999999674E+01  0.40000000000E+01  0.51100000000E-03 0.  1.
    9000002   -1    0    0    0    0 -0.00000000000E+00 -0.00000000000E+00  0.00000000000E+00  0.93800000000E+00  0.93800000000E+00 0. -1.
         11    1    1    2    0    0  0.75390847910E-01  0.10664524730E+00  0.93715174684E+00  0.94620856393E+00  0.51100000000E-03 0.  1.
    9000002    1    1    2    0    0 -0.27663701756E+00 -0.31064761876E+00  0.11780201569E+00  0.10328365299E+01  0.93800000000E+00 0. -1.
         22    1    1    2    0    0  0.20124616965E+00  0.20400237146E+00  0.29450462048E+01  0.29589549062E+01  0.00000000000E+00 0.  1.
</event>
<event>
 5    1  0.3005426E+001  0.1593099E+01  0.7818608E-02  0.3360888E+00
         11   -1    0    0    0    0  0.00000000000E+00  0.00000000000E+00  0.39999999674E+01  0.40000000000E+01  0.51100000000E-03 0. -1.
    9000002   -1    0    0    0    0 -0.00000000000E+00 -0.00000000000E+00  0.00000000000E+00  0.93800000000E+00  0.93800000000E+00 0.  1.
         11    1    1    2    0    0  0.44125407669E-01  0.84427399633E-01  0.69668410938E+00  0.70316715423E+00  0.51100000000E-03 0. -1.
    9000002    1    1    2    0    0 -0.38395810940E+00 -0.76723018465E-01  0.10876109863E+00  0.10222442115E+01  0.93800000000E+00 0.  1.
         22    1    1    2    0    0  0.33983270173E+00 -0.77043811680E-02  0.31945547594E+01  0.32125886343E+01  0.00000000000E+00 0. -1.
</event>
<event>
 5    1  0.3005426E+001  0.1599677E+01  0.7818608E-02  0.3353714E+00
         11   -1    0    0    0    0  0.00000000000E+00  0.00000000000E+00  0.39999999674E+01  0.40000000000E+01  0.51100000000E-03 0. -1.
    9000002   -1    0    0    0    0 -0.00000000000E+00 -0.00000000000E+00  0.00000000000E+00  0.93800000000E+00  0.93800000000E+00 0.  1.
         11    1    1    2    0    0 -0.11105985803E+00 -0.11662439874E+00  0.14527615856E+01  0.14616607089E+01  0.51100000000E-03 0. -1.
    9000002    1    1    2    0    0  0.29665821641E+00  0.30969480000E+00  0.12453565046E+00  0.10388792494E+01  0.93800000000E+00 0.  1.
         22    1    1    2    0    0 -0.18559835837E+00 -0.19307040126E+00  0.24227027313E+01  0.24374600417E+01  0.00000000000E+00 0. -1.
</event>
<event>
 5    1  0.3005426E+001  0.1599674E+01  0.7818608E-02  0.3353717E+00
         11   -1    0    0    0    0  0.00000000000E+00  0.00000000000E+00  0.39999999674E+01  0.40000000000E+01  0.51100000000E-03 0. -1.
    9000002   -1    0    0    0    0 -0.00000000000E+00 -0.00000000000E+00  0.00000000000E+00  0.93800000000E+00  0.93800000000E+00 0.  1.
         11    1    1    2    0    0  0.19470539196E-01 -0.61997888133E-01  0.69177491530E+00  0.69482057726E+00  0.51100000000E-03 0. -1.
    9000002    1    1    2    0    0 -0.10122028092E+00  0.34980454705E+00  0.89060108190E-01  0.10101408166E+01  0.93800000000E+00 0.  1.
         22    1    1    2    0    0  0.81749741722E-01 -0.28780665892E+00  0.32191649439E+01  0.32330386062E+01  0.00000000000E+00 0. -1.
</event>
<event>
 5    1  0.3005426E+001  0.1599641E+01  0.7818608E-02  0.3353753E+00
         11   -1    0    0    0    0  0.00000000000E+00  0.00000000000E+00  0.39999999674E+01  0.40000000000E+01  0.51100000000E-03 0. -1.
    9000002   -1    0    0    0    0 -0.00000000000E+00 -0.00000000000E+00  0.00000000000E+00  0.93800000000E+00  0.93800000000E+00 0. -1.
         11    1    1    2    0    0 -0.17053730494E-02  0.20321311093E-02  0.33978348472E-01  0.34085585516E-01  0.51100000000E-03 0. -1.
    9000002    1    1    2    0    0  0.33033788435E+00 -0.18377410651E+00  0.96152810106E-01  0.10158668234E+01  0.93800000000E+00 0. -1.
         22    1    1    2    0    0 -0.32863251130E+00  0.18174197540E+00  0.38698688088E+01  0.38880475911E+01  0.00000000000E+00 0. -1.
</event>
<event>
 5    1  0.3005426E+001  0.1599612E+01  0.7818608E-02  0.3353784E+00
         11   -1    0    0    0    0  0.00000000000E+00  0.00000000000E+00  0.39999999674E+01  0.40000000000E+01  0.51100000000E-03 0.  1.
    9000002   -1    0    0    0    0 -0.00000000000E+00 -0.00000000000E+00  0.00000000000E+00  0.93800000000E+00  0.93800000000E+00 0. -1.
         11    1    1    2    0    0  0.15433306817E+00  0.17032507844E+00  0.11239613857E+01  0.11472222042E+01  0.51100000000E-03 0.  1.
    9000002    1    1    2    0    0 -0.52170683992E+00 -0.54058405367E+00  0.40939353697E+00  0.12695889941E+01  0.93800000000E+00 0. -1.
         22    1    1    2    0    0  0.36737377175E+00  0.37025897523E+00  0.24666450447E+01  0.25211888016E+01  0.00000000000E+00 0.  1.
</event>
<event>
 5    1  0.3005426E+001  0.1599051E+01  0.7818608E-02  0.3354394E+00
         11   -1    0    0    0    0  0.00000000000E+00  0.00000000000E+00  0.39999999674E+01  0.40000000000E+01  0.51100000000E-03 0.  1.
    9000002   -1    0    0    0    0 -0.00000000000E+00 -0.00000000000E+00  0.00000000000E+00  0.93800000000E+00  0.93800000000E+00 0.  1.
         11    1    1    2    0    0 -0.14421752419E+00 -0.10290840827E+00  0.13955834923E+01  0.14067844113E+01  0.51100000000E-03 0.  1.
    9000002    1    1    2    0    0  0.40742087825E+00  0.20488596713E+00  0.14192050226E+00  0.10525946326E+01  0.93800000000E+00 0.  1.
         22    1    1    2    0    0 -0.26320335406E+00 -0.10197755886E+00  0.24624959728E+01  0.24786209562E+01  0.00000000000E+00 0. -1.
</event>
<event>
 5    1  0.3005426E+001  0.1599664E+01  0.7818608E-02  0.3353728E+00
         11   -1    0    0    0    0  0.00000000000E+00  0.00000000000E+00  0.39999999674E+01  0.40000000000E+01  0.51100000000E-03 0.  1.
    9000002   -1    0    0    0    0 -0.00000000000E+00 -0.00000000000E+00  0.00000000000E+00  0.93800000000E+00  0.93800000000E+00 0. -1.
         11    1    1    2    0    0  0.23029203550E-02  0.16621353596E-01  0.91353048505E-01  0.92882794045E-01  0.51100000000E-03 0.  1.
    9000002    1    1    2    0    0 -0.12957890705E+00 -0.69660005100E+00  0.35964595688E+00  0.12293215765E+01  0.93800000000E+00 0. -1.
         22    1    1    2    0    0  0.12727598670E+00  0.67997869740E+00  0.35490009620E+01  0.36157956294E+01  0.00000000000E+00 0.  1.
</event>
<event>
 5    1  0.3005426E+001  0.1599676E+01  0.7818608E-02  0.3353715E+00
         11   -1    0    0    0    0  0.00000000000E+00  0.00000000000E+00  0.39999999674E+01  0.40000000000E+01  0.51100000000E-03 0.  1.
    9000002   -1    0    0    0    0 -0.00000000000E+00 -0.00000000000E+00  0.00000000000E+00  0.93800000000E+00  0.93800000000E+00 0. -1.
         11    1    1    2    0    0  0.41787294468E-01  0.20464110138E+00  0.10825908639E+01  0.11025549411E+01  0.51100000000E-03 0.  1.
    9000002    1    1    2    0    0 -0.14119146613E+00 -0.68690154850E+00  0.35157488115E+00  0.12227909325E+01  0.93800000000E+00 0. -1.
         22    1    1    2    0    0  0.99404171661E-01  0.48226044712E+00  0.25658342223E+01  0.26126541265E+01  0.00000000000E+00 0.  1.
</event>
<event>
 5    1  0.3005426E+001  0.1598951E+01  0.7818608E-02  0.3354502E+00
         11   -1    0    0    0    0  0.00000000000E+00  0.00000000000E+00  0.39999999674E+01  0.40000000000E+01  0.51100000000E-03 0.  1.
    9000002   -1    0    0    0    0 -0.00000000000E+00 -0.00000000000E+00  0.00000000000E+00  0.93800000000E+00  0.93800000000E+00 0.  1.
         11    1    1    2    0    0 -0.15729009023E-01 -0.77497256207E-02  0.12605185270E+00  0.12726661252E+00  0.51100000000E-03 0.  1.
    9000002    1    1    2    0    0  0.14354451869E+00  0.32792906346E+00  0.86584891882E-01  0.10077119842E+01  0.93800000000E+00 0.  1.
         22    1    1    2    0    0 -0.12781550967E+00 -0.32017933784E+00  0.37873632228E+01  0.38030214033E+01  0.00000000000E+00 0.  1.
</event>
<event>
 5    1  0.3005426E+001  0.1599074E+01  0.7818608E-02  0.3354370E+00
         11   -1    0    0    0    0  0.00000000000E+00  0.00000000000E+00  0.39999999674E+01  0.40000000000E+01  0.51100000000E-03 0.  1.
    9000002   -1    0    0    0    0 -0.00000000000E+00 -0.00000000000E+00  0.00000000000E+00  0.93800000000E+00  0.93800000000E+00 0. -1.
         11    1    1    2    0    0  0.10321763512E+00 -0.91219778093E-01  0.89100844309E+00  0.90159371941E+00  0.51100000000E-03 0.  1.
    9000002    1    1    2    0    0 -0.33477674235E+00  0.38814386197E+00  0.18079017331E+00  0.10840941894E+01  0.93800000000E+00 0. -1.
         22    1    1    2    0    0  0.23155910723E+00 -0.29692408388E+00  0.29282013510E+01  0.29523120911E+01  0.00000000000E+00 0.  1.
</event>
<event>
 5    1  0.3005426E+001  0.1598060E+01  0.7818608E-02  0.3355472E+00
         11   -1    0    0    0    0  0.00000000000E+00  0.00000000000E+00  0.39999999674E+01  0.40000000000E+01  0.51100000000E-03 0.  1.
    9000002   -1    0    0    0    0 -0.00000000000E+00 -0.00000000000E+00  0.00000000000E+00  0.93800000000E+00  0.93800000000E+00 0. -1.
         11    1    1    2    0    0 -0.32665761839E-02 -0.28101198749E-01  0.47437754120E+00  0.47522064413E+00  0.51100000000E-03 0.  1.
    9000002    1    1    2    0    0 -0.18453413256E+00  0.38088548038E+00  0.12256719875E+00  0.10363364866E+01  0.93800000000E+00 0. -1.
         22    1    1    2    0    0  0.18780070874E+00 -0.35278428163E+00  0.34030552274E+01  0.34264428693E+01  0.00000000000E+00 0.  1.
</event>
<event>
 5    1  0.3005426E+001  0.1599677E+01  0.7818608E-02  0.3353714E+00
         11   -1    0    0    0    0  0.00000000000E+00  0.00000000000E+00  0.39999999674E+01  0.40000000000E+01  0.51100000000E-03 0. -1.
    9000002   -1    0    0    0    0 -0.00000000000E+00 -0.00000000000E+00  0.00000000000E+00  0.93800000000E+00  0.93800000000E+00 0.  1.
         11    1    1    2    0    0 -0.17090687364E+00 -0.12443398672E+00  0.10742966703E+01  0.10949002573E+01  0.51100000000E-03 0. -1.
    9000002    1    1    2    0    0  0.57970529990E+00  0.42050762688E+00  0.36817303020E+00  0.12362363363E+01  0.93800000000E+00 0.  1.
         22    1    1    2    0    0 -0.40879842626E+00 -0.29607364017E+00  0.25575302668E+01  0.26068634064E+01  0.00000000000E+00 0. -1.
</event>
<event>
 5    1  0.3005426E+001  0.1593782E+01  0.7818608E-02  0.3360140E+00
         11   -1    0    0    0    0  0.00000000000E+00  0.00000000000E+00  0.39999999674E+01  0.40000000000E+01  0.51100000000E-03 0. -1.
    9000002   -1    0    0    0    0 -0.00000000000E+00 -0.00000000000E+00  0.00000000000E+00  0.93800000000E+00  0.93800000000E+00 0. -1.
         11    1    1    2    0    0  0.78902929984E-01  0.17632849390E+00  0.97737093200E+00  0.99627888162E+00  0.51100000000E-03 0. -1.
    9000002    1    1    2    0    0 -0.53367773404E-01 -0.50073720891E+00  0.17904406190E+00  0.10795770689E+01  0.93800000000E+00 0. -1.
         22    1    1    2    0    0 -0.25535156579E-01  0.32440871501E+00  0.28435849735E+01  0.28621440495E+01  0.00000000000E+00 0. -1.
</event>
<event>
 5    1  0.3005426E+001  0.1590504E+01  0.7818608E-02  0.3363735E+00
         11   -1    0    0    0    0  0.00000000000E+00  0.00000000000E+00  0.39999999674E+01  0.40000000000E+01  0.51100000000E-03 0.  1.
    9000002   -1    0    0    0    0 -0.00000000000E+00 -0.00000000000E+00  0.00000000000E+00  0.93800000000E+00  0.93800000000E+00 0. -1.
         11    1    1    2    0    0 -0.26988508469E-02  0.16526547453E+00  0.14769348432E+01  0.14861550232E+01  0.51100000000E-03 0.  1.
    9000002    1    1    2    0    0  0.26619100921E+00 -0.29510667175E+00  0.11416020087E+00  0.10250961675E+01  0.93800000000E+00 0. -1.
         22    1    1    2    0    0 -0.26349215837E+00  0.12984119722E+00  0.24089049233E+01  0.24267488094E+01  0.00000000000E+00 0.  1.
</event>
<event>
 5    1  0.3005426E+001  0.1599677E+01  0.7818608E-02  0.3353714E+00
         11   -1    0    0    0    0  0.00000000000E+00  0.00000000000E+00  0.39999999674E+01  0.40000000000E+01  0.51100000000E-03 0.  1.
    9000002   -1    0    0    0    0 -0.00000000000E+00 -0.00000000000E+00  0.00000000000E+00  0.93800000000E+00  0.93800000000E+00 0. -1.
         11    1    1    2    0    0  0.16681931860E+00 -0.13453843968E-01  0.13399747212E+01  0.13503859469E+01  0.51100000000E-03 0.  1.
    9000002    1    1    2    0    0 -0.47820717247E+00  0.39901209034E-01  0.15711723168E+00  0.10652718107E+01  0.93800000000E+00 0. -1.
         22    1    1    2    0    0  0.31138785387E+00 -0.26447365066E-01  0.25029080145E+01  0.25223422424E+01  0.00000000000E+00 0. -1.
</event>
<event>
 5    1  0.3005426E+001  0.1599671E+01  0.7818608E-02  0.3353721E+00
         11   -1    0    0    0    0  0.00000000000E+00  0.00000000000E+00  0.39999999674E+01  0.40000000000E+01  0.51100000000E-03 0. -1.
    9000002   -1    0    0    0    0 -0.00000000000E+00 -0.00000000000E+00  0.00000000000E+00  0.93800000000E+00  0.93800000000E+00 0.  1.
         11    1    1    2    0    0 -0.14247363941E+00 -0.73345494240E-01  0.13794207212E+01  0.13886972624E+01  0.51100000000E-03 0. -1.
    9000002    1    1    2    0    0  0.40143350265E+00  0.21264584347E+00  0.14025540550E+00  0.10516095714E+01  0.93800000000E+00 0.  1.
         22    1    1    2    0    0 -0.25895986323E+00 -0.13930034923E+00  0.24803238407E+01  0.24976931663E+01  0.00000000000E+00 0. -1.
</event>
<event>
 5    1  0.3005426E+001  0.1513509E+01  0.7818608E-02  0.3452943E+00
         11   -1    0    0    0    0  0.00000000000E+00  0.00000000000E+00  0.39999999674E+01  0.40000000000E+01  0.51100000000E-03 0.  1.
    9000002   -1    0    0    0    0 -0.00000000000E+00 -0.00000000000E+00  0.00000000000E+00  0.93800000000E+00  0.93800000000E+00 0.  1.
         11    1    1    2    0    0  0.37312116914E+00 -0.14768804728E+00  0.13540521248E+01  0.14122636383E+01  0.51100000000E-03 0.  1.
    9000002    1    1    2    0    0 -0.13287942813E+00  0.17831393203E+00  0.10098438138E+00  0.96927532005E+00  0.93800000000E+00 0.  1.
         22    1    1    2    0    0 -0.24024174101E+00 -0.30625884759E-01  0.25449634611E+01  0.25564610416E+01  0.00000000000E+00 0.  1.
</event>
<event>
 5    1  0.3005426E+001  0.1598347E+01  0.7818608E-02  0.3355159E+00
         11   -1    0    0    0    0  0.00000000000E+00  0.00000000000E+00  0.39999999674E+01  0.40000000000E+01  0.51100000000E-03 0. -1.
    9000002   -1    0    0    0    0 -0.00000000000E+00 -0.00000000000E+00  0.00000000000E+00  0.93800000000E+00  0.93800000000E+00 0.  1.
         11    1    1    2    0    0 -0.65813184105E-01  0.14579460993E+00  0.85671231266E+00  0.87151803841E+00  0.51100000000E-03 0. -1.
    9000002    1    1    2    0    0  0.23454570595E+00 -0.49134651312E+00  0.20578195843E+00  0.11039127223E+01  0.93800000000E+00 0.  1.
         22    1    1    2    0    0 -0.16873252185E+00  0.34555190319E+00  0.29375056963E+01  0.29625692392E+01  0.00000000000E+00 0. -1.
</event>
<event>
 5    1  0.3005426E+001  0.1599677E+01  0.7818608E-02  0.3353714E+00
         11   -1    0    0    0    0  0.00000000000E+00  0.00000000000E+00  0.39999999674E+01  0.40000000000E+01  0.51100000000E-03 0.  1.
    9000002   -1    0    0    0    0 -0.00000000000E+00 -0.00000000000E+00  0.00000000000E+00  0.93800000000E+00  0.93800000000E+00 0.  1.
         11    1    1    2    0    0  0.62014422080E-02  0.96307149661E-01  0.80803561886E+00  0.81377843879E+00  0.51100000000E-03 0. -1.
    9000002    1    1    2    0    0 -0.31506264058E-01 -0.46043494869E+00  0.14491134988E+00  0.10553844257E+01  0.93800000000E+00 0.  1.
         22    1    1    2    0    0  0.25304821850E-01  0.36412779903E+00  0.30470529986E+01  0.30688371355E+01  0.00000000000E+00 0.  1.
</event>
<event>
 5    1  0.3005426E+001  0.1595419E+01  0.7818608E-02  0.3358350E+00
         11   -1    0    0    0    0  0.00000000000E+00  0.00000000000E+00  0.39999999674E+01  0.40000000000E+01  0.51100000000E-03 0. -1.
    9000002   -1    0    0    0    0 -0.00000000000E+00 -0.00000000000E+00  0.00000000000E+00  0.93800000000E+00  0.93800000000E+00 0.  1.
         11    1    1    2    0    0  0.28711697850E-01  0.21039971163E-01  0.10776770418E+01  0.10782648605E+01  0.51100000000E-03 0. -1.
    9000002    1    1    2    0    0 -0.31942011577E+00  0.61979036468E-01  0.74188652571E-01  0.99559960199E+00  0.93800000000E+00 0.  1.
         22    1    1    2    0    0  0.29070841792E+00 -0.83019007631E-01  0.28481342730E+01  0.28641355375E+01  0.00000000000E+00 0. -1.
</event>
<event>
 5    1  0.3005426E+001  0.1597949E+01  0.7818608E-02  0.3355592E+00
         11   -1    0    0    0    0  0.00000000000E+00  0.00000000000E+00  0.39999999674E+01  0.40000000000E+01  0.51100000000E-03 0. -1.
    9000002   -1    0    0    0    0 -0.00000000000E+00 -0.00000000000E+00  0.00000000000E+00  0.93800000000E+00  0.93800000000E+00 0.  1.
         11    1    1    2    0    0 -0.74066229116E-01  0.99971245612E-01  0.90413500039E+00  0.91265569427E+00  0.51100000000E-03 0. -1.
    9000002    1    1    2    0    0  0.42823393306E+00 -0.28463426205E+00  0.18301488567E+00  0.10852370308E+01  0.93800000000E+00 0.  1.
         22    1    1    2    0    0 -0.35416770394E+00  0.18466301644E+00  0.29128500813E+01  0.29401072750E+01  0.00000000000E+00 0. -1.
</event>
<event>
 5    1  0.3005426E+001  0.1503858E+01  0.7818608E-02  0.3464814E+00
         11   -1    0    0    0    0  0.00000000000E+00  0.00000000000E+00  0.39999999674E+01  0.40000000000E+01  0.51100000000E-03 0.  1.
    9000002   -1    0    0    0    0 -0.00000000000E+00 -0.00000000000E+00  0.00000000000E+00  0.93800000000E+00  0.93800000000E+00 0.  1.
         11    1    1    2    0    0  0.18549377956E+00  0.31740285832E+00  0.76137081663E+00  0.84548110461E+00  0.51100000000E-03 0.  1.
    9000002    1    1    2    0    0 -0.49424126763E+00 -0.11143552596E+00  0.26861455722E+00  0.10994044240E+01  0.93800000000E+00 0.  1.
         22    1    1    2    0    0  0.30874748807E+00 -0.20596733236E+00  0.29700145935E+01  0.29931144714E+01  0.00000000000E+00 0.  1.
</event>
<event>
 5    1  0.3005426E+001  0.1598838E+01  0.7818608E-02  0.3354626E+00
         11   -1    0    0    0    0  0.00000000000E+00  0.00000000000E+00  0.39999999674E+01  0.40000000000E+01  0.51100000000E-03 0.  1.
    9000002   -1    0    0    0    0 -0.00000000000E+00 -0.00000000000E+00  0.00000000000E+00  0.93800000000E+00  0.93800000000E+00 0. -1.
         11    1    1    2    0    0  0.50170399347E-01 -0.18812512125E+00  0.14773908914E+01  0.14901651711E+01  0.51100000000E-03 0.  1.
    9000002    1    1    2    0    0 -0.48676977860E-01  0.51957964221E+00  0.18790272402E+00  0.10897173425E+01  0.93800000000E+00 0. -1.
         22    1    1    2    0    0 -0.14934214875E-02 -0.33145452096E+00  0.23347063520E+01  0.23581174864E+01  0.00000000000E+00 0. -1.
</event>
<event>
 5    1  0.3005426E+001  0.1599675E+01  0.7818608E-02  0.3353716E+00
         11   -1    0    0    0    0  0.00000000000E+00  0.00000000000E+00  0.39999999674E+01  0.40000000000E+01  0.51100000000E-03 0.  1.
    9000002   -1    0    0    0    0 -0.00000000000E+00 -0.00000000000E+00  0.00000000000E+00  0.93800000000E+00  0.93800000000E+00 0.  1.
         11    1    1    2    0    0 -0.19648272087E-01 -0.85539826873E-01  0.36002653053E+00  0.37057047965E+00  0.51100000000E-03 0.  1.
    9000002    1    1    2    0    0  0.18457223188E+00  0.82995559552E+00  0.54222147630E+00  0.13772223236E+01  0.93800000000E+00 0.  1.
         22    1    1    2    0    0 -0.16492395980E+00 -0.74441576865E+00  0.30977519605E+01  0.31902071967E+01  0.00000000000E+00 0.  1.
</event>
<event>
 5    1  0.3005426E+001  0.1599677E+01  0.7818608E-02  0.3353714E+00
         11   -1    0    0    0    0  0.00000000000E+00  0.00000000000E+00  0.39999999674E+01  0.40000000000E+01  0.51100000000E-03 0.  1.
    9000002   -1    0    0    0    0 -0.00000000000E+00 -0.00000000000E+00  0.00000000000E+00  0.93800000000E+00  0.93800000000E+00 0. -1.
         11    1    1    2    0    0 -0.10840737222E+00 -0.56939231905E-01  0.98468822664E+00  0.99227284519E+00  0.51100000000E-03 0.  1.
    9000002    1    1    2    0    0  0.42199550349E+00  0.22316163314E+00  0.15542279041E+00  0.10638992261E+01  0.93800000000E+00 0. -1.
         22    1    1    2    0    0 -0.31358813127E+00 -0.16622240123E+00  0.28598889503E+01  0.28818279287E+01  0.00000000000E+00 0.  1.
</event>
<event>
 5    1  0.3005426E+001  0.1589666E+01  0.7818608E-02  0.3364656E+00
         11   -1    0    0    0    0  0.00000000000E+00  0.00000000000E+00  0.39999999674E+01  0.40000000000E+01  0.51100000000E-03 0. -1.
    9000002   -1    0    0    0    0 -0.00000000000E+00 -0.00000000000E+00  0.00000000000E+00  0.93800000000E+00  0.93800000000E+00 0. -1.
         11    1    1    2    0    0  0.11990699786E+00 -0.74638469297E-01  0.11851674999E+01  0.11935538753E+01  0.51100000000E-03 0. -1.
    9000002    1    1    2    0    0 -0.99537627501E-01  0.45739468610E+00  0.15805530028E+00  0.10601618349E+01  0.93800000000E+00 0. -1.
         22    1    1    2    0    0 -0.20369370359E-01 -0.38275621680E+00  0.26567771672E+01  0.26842842898E+01  0.00000000000E+00 0. -1.
</event>
<event>
 5    1  0.3005426E+001  0.1530319E+01  0.7818608E-02  0.3432648E+00
         11   -1    0    0    0    0  0.00000000000E+00  0.00000000000E+00  0.39999999674E+01  0.40000000000E+01  0.51100000000E-03 0.  1.
    9000002   -1    0    0    0    0 -0.00000000000E+00 -0.00000000000E+00  0.00000000000E+00  0.93800000000E+00  0.93800000000E+00 0.  1.
         11    1    1    2    0    0 -0.11898742778E+00  0.10489424709E+00 -0.54826080347E-02  0.15871714197E+00  0.51100000000E-03 0.  1.
    9000002    1    1    2    0    0 -0.66666151328E-01  0.25317381415E+00  0.25433639787E+00  0.10065149573E+01  0.93800000000E+00 0.  1.
         22    1    1    2    0    0  0.18565357911E+00 -0.35806806125E+00  0.37511461775E+01  0.37727679008E+01  0.00000000000E+00 0.  1.
</event>
<event>
 5    1  0.3005426E+001  0.1599517E+01  0.7818608E-02  0.3353887E+00
         11   -1    0    0    0    0  0.00000000000E+00  0.00000000000E+00  0.39999999674E+01  0.40000000000E+01  0.51100000000E-03 0. -1.
    9000002   -1    0    0    0    0 -0.00000000000E+00 -0.00000000000E+00  0.00000000000E+00  0.93800000000E+00  0.93800000000E+00 0. -1.
         11    1    1    2    0    0 -0.88137835671E-01 -0.63427172049E-01  0.10901983606E+01  0.10955929951E+01  0.51100000000E-03 0. -1.
    9000002    1    1    2    0    0  0.34083696586E+00  0.26556073121E+00  0.12660768548E+00  0.10404642451E+01  0.93800000000E+00 0. -1.
         22    1    1    2    0    0 -0.25269913019E+00 -0.20213355916E+00  0.27831939212E+01  0.28019427598E+01  0.00000000000E+00 0. -1.
</event>
<event>
 5    1  0.3005426E+001  0.1577727E+01  0.7818608E-02  0.3377898E+00
         11   -1    0    0    0    0  0.00000000000E+00  0.00000000000E+00  0.39999999674E+01  0.40000000000E+01  0.51100000000E-03 0. -1.
    9000002   -1    0    0    0    0 -0.00000000000E+00 -0.00000000000E+00  0.00000000000E+00  0.93800000000E+00  0.93800000000E+00 0. -1.
         11    1    1    2    0    0  0.29997765197E+00  0.79447343174E-01  0.95170533685E+00  0.10010203701E+01  0.51100000000E-03 0. -1.
    9000002    1    1    2    0    0 -0.58269569524E+00 -0.12189843429E+00  0.26905973718E+00  0.11430794564E+01  0.93800000000E+00 0. -1.
         22    1    1    2    0    0  0.28271804326E+00  0.42451091115E-01  0.27792348933E+01  0.27939001735E+01  0.00000000000E+00 0. -1.
</event>
<event>
 5    1  0.3005426E+001  0.1599599E+01  0.7818608E-02  0.3353798E+00
         11   -1    0    0    0    0  0.00000000000E+00  0.00000000000E+00  0.39999999674E+01  0.40000000000E+01  0.51100000000E-03 0.  1.
    9000002   -1    0    0    0    0 -0.00000000000E+00 -0.00000000000E+00  0.00000000000E+00  0.93800000000E+00  0.93800000000E+00 0. -1.
         11    1    1    2    0    0 -0.16719630828E+00  0.64011375745E-01  0.11747024254E+01  0.11882668518E+01  0.51100000000E-03 0.  1.
    9000002    1    1    2    0    0  0.52107072551E+00 -0.18047454444E+00  0.21016315148E+00  0.11081959720E+01  0.93800000000E+00 0. -1.
         22    1    1    2    0    0 -0.35387441723E+00  0.11646316869E+00  0.26151343905E+01  0.26415371762E+01  0.00000000000E+00 0.  1.
</event>
<event>
 5    1  0.3005426E+001  0.1599529E+01  0.7818608E-02  0.3353875E+00
         11   -1    0    0    0    0  0.00000000000E+00  0.00000000000E+00  0.39999999674E+01  0.40000000000E+01  0.51100000000E-03 0. -1.
    9000002   -1    0    0    0    0 -0.00000000000E+00 -0.00000000000E+00  0.00000000000E+00  0.93800000000E+00  0.93800000000E+00 0.  1.
         11    1    1    2    0    0  0.11594788424E+00  0.39743924501E-02  0.11344368288E+01  0.11403538430E+01  0.51100000000E-03 0. -1.
    9000002    1    1    2    0    0 -0.39031581725E+00  0.31408611885E-01  0.10343856238E+00  0.10217027328E+01  0.93800000000E+00 0.  1.
         22    1    1    2    0    0  0.27436793301E+00 -0.35383004335E-01  0.27621245762E+01  0.27759434242E+01  0.00000000000E+00 0. -1.
</event>
<event>
 5    1  0.3005426E+001  0.1599662E+01  0.7818608E-02  0.3353730E+00
         11   -1    0    0    0    0  0.00000000000E+00  0.00000000000E+00  0.39999999674E+01  0.40000000000E+01  0.51100000000E-03 0.  1.
    9000002   -1    0    0    0    0 -0.00000000000E+00 -0.00000000000E+00  0.00000000000E+00  0.93800000000E+00  0.93800000000E+00 0. -1.
         11    1    1    2    0    0 -0.42986770172E-01  0.11408574999E-01  0.47999840356E+00  0.48205471322E+00  0.51100000000E-03 0.  1.
    9000002    1    1    2    0    0  0.34869051927E+00 -0.11719034217E+00  0.90928393787E-01  0.10116474817E+01  0.93800000000E+00 0. -1.
         22    1    1    2    0    0 -0.30570374910E+00  0.10578176717E+00  0.34290731700E+01  0.34442978050E+01  0.00000000000E+00 0.  1.
</event>
<event>
 5    1  0.3005426E+001  0.1599608E+01  0.7818608E-02  0.3353789E+00
         11   -1    0    0    0    0  0.00000000000E+00  0.00000000000E+00  0.39999999674E+01  0.40000000000E+01  0.51100000000E-03 0. -1.
    9000002   -1    0    0    0    0 -0.00000000000E+00 -0.00000000000E+00  0.00000000000E+00  0.93800000000E+00  0.93800000000E+00 0. -1.
         11    1    1    2    0    0 -0.17197431953E-02 -0.64957506582E-01  0.78184140934E+00  0.78453724300E+00  0.51100000000E-03 0. -1.
    9000002    1    1    2    0    0  0.27967833802E-01  0.36031252401E+00  0.87742050687E-01  0.10090341828E+01  0.93800000000E+00 0. -1.
         22    1    1    2    0    0 -0.26248090607E-01 -0.29535501743E+00  0.31304165073E+01  0.31444285742E+01  0.00000000000E+00 0. -1.
</event>
<event>
 5    1  0.3005426E+001  0.1599327E+01  0.7818608E-02  0.3354094E+00
         11   -1    0    0    0    0  0.00000000000E+00  0.00000000000E+00  0.39999999674E+01  0.40000000000E+01  0.51100000000E-03 0. -1.
    9000002   -1    0    0    0    0 -0.00000000000E+00 -0.00000000000E+00  0.00000000000E+00  0.93800000000E+00  0.93800000000E+00 0. -1.
         11    1    1    2    0    0  0.41322076925E-01  0.64539361456E-01  0.87718074290E+00  0.88052209515E+00  0.51100000000E-03 0. -1.
    9000002    1    1    2    0    0 -0.19384302972E+00 -0.36857253319E+00  0.11752318350E+00  0.10329939647E+01  0.93800000000E+00 0. -1.
         22    1    1    2    0    0  0.15252095280E+00  0.30403317174E+00  0.30052960410E+01  0.30244839402E+01  0.00000000000E+00 0. -1.
</event>
<event>
 5    1  0.3005426E+001  0.1597801E+01  0.7818608E-02  0.3355754E+00
         11   -1    0    0    0    0  0.00000000000E+00  0.00000000000E+00  0.39999999674E+01  0.40000000000E+01  0.51100000000E-03 0. -1.
    9000002   -1    0    0    0    0 -0.00000000000E+00 -0.00000000000E+00  0.00000000000E+00  0.93800000000E+00  0.93800000000E+00 0. -1.
         11    1    1    2    0    0  0.71536614894E-01  0.58393974789E-02  0.88587477040E+00  0.88877778763E+00  0.51100000000E-03 0. -1.
    9000002    1    1    2    0    0 -0.49955576852E+00 -0.96094632142E-02  0.17257916497E+00  0.10766967427E+01  0.93800000000E+00 0. -1.
         22    1    1    2    0    0  0.42801915363E+00  0.37700657354E-02  0.29415460320E+01  0.29725254696E+01  0.00000000000E+00 0. -1.
</event>
<event>
 5    1  0.3005426E+001  0.1599634E+01  0.7818608E-02  0.3353760E+00
         11   -1    0    0    0    0  0.00000000000E+00  0.00000000000E+00  0.39999999674E+01  0.40000000000E+01  0.51100000000E-03 0.  1.
    9000002   -1    0    0    0    0 -0.00000000000E+00 -0.00000000000E+00  0.00000000000E+00  0.93800000000E+00  0.93800000000E+00 0.  1.
         11    1    1    2    0    0 -0.75471652500E-01  0.14677767274E+00  0.76889877283E+00  0.78641289380E+00  0.51100000000E-03 0.  1.
    9000002    1    1    2    0    0  0.33937983382E+00 -0.70647746254E+00  0.45011557852E+00  0.13025886191E+01  0.93800000000E+00 0.  1.
         22    1    1    2    0    0 -0.26390818132E+00  0.55969978980E+00  0.27809856160E+01  0.28489984871E+01  0.00000000000E+00 0.  1.
</event>
<event>
 5    1  0.3883762E+001  0.1599372E+01  0.7818608E-02  0.3354045E+00
         11   -1    0    0    0    0  0.00000000000E+00  0.00000000000E+00  0.39999999674E+01  0.40000000000E+01  0.51100000000E-03 0.  1.
    9000002   -1    0    0    0    0 -0.00000000000E+00 -0.00000000000E+00  0.00000000000E+00  0.93800000000E+00  0.93800000000E+00 0. -1.
         11    1    1    2    0    0  0.54426583560E-01 -0.96744970050E-01  0.14274724009E+01  0.14317819522E+01  0.51100000000E-03 0.  1.
    9000002    1    1    2    0    0 -0.12469973063E+00  0.31564735989E+00  0.77386911806E-01  0.10005078774E+01  0.93800000000E+00 0. -1.
         22    1    1    2    0    0  0.70273147071E-01 -0.21890238984E+00  0.24951406546E+01  0.25057101704E+01  0.00000000000E+00 0. -1.
</event>
<event>
 5    1  0.3005426E+001  0.1591986E+01  0.7818608E-02  0.3362107E+00
         11   -1    0    0    0    0  0.00000000000E+00  0.00000000000E+00  0.39999999674E+01  0.40000000000E+01  0.51100000000E-03 0. -1.
    9000002   -1    0    0    0    0 -0.00000000000E+00 -0.00000000000E+00  0.00000000000E+00  0.93800000000E+00  0.93800000000E+00 0.  1.
         11    1    1    2    0    0  0.96656829849E-01 -0.21987942752E-01  0.13818575897E+01  0.13854084855E+01  0.51100000000E-03 0. -1.
    9000002    1    1    2    0    0 -0.91924682972E-01  0.28335229285E+00  0.65224357447E-01  0.98632493936E+00  0.93800000000E+00 0.  1.
         22    1    1    2    0    0 -0.47321468771E-02 -0.26136435009E+00  0.25529180202E+01  0.25662665751E+01  0.00000000000E+00 0. -1.
</event>
<event>
 5    1  0.3005426E+001  0.1597312E+01  0.7818608E-02  0.3356286E+00
         11   -1    0    0    0    0  0.00000000000E+00  0.00000000000E+00  0.39999999674E+01  0.40000000000E+01  0.51100000000E-03 0.  1.
    9000002   -1    0    0    0    0 -0.00000000000E+00 -0.00000000000E+00  0.00000000000E+00  0.93800000000E+00  0.93800000000E+00 0. -1.
         11    1    1    2    0    0  0.92903374904E-01  0.14608478605E+00  0.10004346149E+01  0.10153036401E+01  0.51100000000E-03 0.  1.
    9000002    1    1    2    0    0 -0.15512563133E+00 -0.55032866400E+00  0.22905279019E+00  0.11221563085E+01  0.93800000000E+00 0. -1.
         22    1    1    2    0    0  0.62222256427E-01  0.40424387795E+00  0.27705125623E+01  0.28005400515E+01  0.00000000000E+00 0.  1.
</event>
<event>
 5    1  0.3005426E+001  0.1599676E+01  0.7818608E-02  0.3353715E+00
         11   -1    0    0    0    0  0.00000000000E+00  0.00000000000E+00  0.39999999674E+01  0.40000000000E+01  0.51100000000E-03 0.  1.
    9000002   -1    0    0    0    0 -0.00000000000E+00 -0.00000000000E+00  0.00000000000E+00  0.93800000000E+00  0.93800000000E+00 0.  1.
         11    1    1    2    0    0  0.36532177508E-02 -0.11024880050E+00  0.11111745988E+01  0.11166366438E+01  0.51100000000E-03 0.  1.
    9000002    1    1    2    0    0 -0.10955816056E-01  0.38308149520E+00  0.98861062961E-01  0.10180810241E+01  0.93800000000E+00 0.  1.
         22    1    1    2    0    0  0.73025983050E-02 -0.27283269470E+00  0.27899643056E+01  0.28032823321E+01  0.00000000000E+00 0.  1.
</event>
<event>
 5    1  0.3005426E+001  0.1477409E+01  0.7818608E-02  0.3498206E+00
         11   -1    0    0    0    0  0.00000000000E+00  0.00000000000E+00  0.39999999674E+01  0.40000000000E+01  0.51100000000E-03 0.  1.
    9000002   -1    0    0    0    0 -0.00000000000E+00 -0.00000000000E+00  0.00000000000E+00  0.93800000000E+00  0.93800000000E+00 0. -1.
         11    1    1    2    0    0  0.36314773203E+00  0.15030206713E+00  0.93947341046E+00  0.10183700392E+01  0.51100000000E-03 0.  1.
    9000002    1    1    2    0    0 -0.11528084149E+00 -0.31541040502E-01  0.10505022024E+00  0.95140110281E+00  0.93800000000E+00 0. -1.
         22    1    1    2    0    0 -0.24786689054E+00 -0.11876102663E+00  0.29554763367E+01  0.29682288580E+01  0.00000000000E+00 0.  1.
</event>
<event>
 5    1  0.3005426E+001  0.1595591E+01  0.7818608E-02  0.3358163E+00
         11   -1    0    0    0    0  0.00000000000E+00  0.00000000000E+00  0.39999999674E+01  0.40000000000E+01  0.51100000000E-03 0. -1.
    9000002   -1    0    0    0    0 -0.00000000000E+00 -0.00000000000E+00  0.00000000000E+00  0.93800000000E+00  0.93800000000E+00 0. -1.
         11    1    1    2    0    0 -0.91305374221E-01 -0.31981018417E-01  0.80859820532E+00  0.81436525937E+00  0.51100000000E-03 0. -1.
    9000002    1    1    2    0    0  0.33043360423E+00 -0.12544755744E+00  0.87098959137E-01  0.10061578828E+01  0.93800000000E+00 0. -1.
         22    1    1    2    0    0 -0.23912823001E+00  0.15742857585E+00  0.31043028029E+01  0.31174768578E+01  0.00000000000E+00 0. -1.
</event>
<event>
 5    1  0.3005426E+001  0.1599110E+01  0.7818608E-02  0.3354330E+00
         11   -1    0    0    0    0  0.00000000000E+00  0.00000000000E+00  0.39999999674E+01  0.40000000000E+01  0.51100000000E-03 0.  1.
    9000002   -1    0    0    0    0 -0.00000000000E+00 -0.00000000000E+00  0.00000000000E+00  0.93800000000E+00  0.93800000000E+00 0.  1.
         11    1    1    2    0    0 -0.62298198066E-01 -0.38372459858E-01  0.47694676657E+00  0.48252667328E+00  0.51100000000E-03 0.  1.
    9000002    1    1    2    0    0  0.42028245986E+00  0.18143073184E+00  0.14298419524E+00  0.10534908337E+01  0.93800000000E+00 0.  1.
         22    1    1    2    0    0 -0.35798426179E+00 -0.14305827198E+00  0.33800690055E+01  0.34019824931E+01  0.00000000000E+00 0.  1.
</event>
<event>
 5    1  0.3005426E+001  0.1598964E+01  0.7818608E-02  0.3354489E+00
         11   -1    0    0    0    0  0.00000000000E+00  0.00000000000E+00  0.39999999674E+01  0.40000000000E+01  0.51100000000E-03 0.  1.
    9000002   -1    0    0    0    0 -0.00000000000E+00 -0.00000000000E+00  0.00000000000E+00  0.93800000000E+00  0.93800000000E+00 0.  1.
         11    1    1    2    0    0 -0.63644879783E-01  0.33047280196E-01  0.41515329640E+00  0.42130192746E+00  0.51100000000E-03 0.  1.
    9000002    1    1    2    0    0  0.42202735185E+00 -0.22321822498E+00  0.15608984959E+00  0.10640213827E+01  0.93800000000E+00 0.  1.
         22    1    1    2    0    0 -0.35838247207E+00  0.19017094479E+00  0.34287568214E+01  0.34526766899E+01  0.00000000000E+00 0.  1.
</event>
<event>
 5    1  0.3005426E+001  0.1598939E+01  0.7818608E-02  0.3354516E+00
         11   -1    0    0    0    0  0.00000000000E+00  0.00000000000E+00  0.39999999674E+01  0.40000000000E+01  0.51100000000E-03 0.  1.
    9000002   -1    0    0    0    0 -0.00000000000E+00 -0.00000000000E+00  0.00000000000E+00  0.93800000000E+00  0.93800000000E+00 0. -1.
         11    1    1    2    0    0 -0.10243362087E-01 -0.34456788464E-01  0.18491876852E+00  0.18838102030E+00  0.51100000000E-03 0.  1.
    9000002    1    1    2    0    0  0.14238092202E+00  0.43299050492E+00  0.14186506125E+00  0.10524841091E+01  0.93800000000E+00 0. -1.
         22    1    1    2    0    0 -0.13213755993E+00 -0.39853371646E+00  0.36732161376E+01  0.36971348706E+01  0.00000000000E+00 0.  1.
</event>
<event>
 5    1  0.3005426E+001  0.1599675E+01  0.7818608E-02  0.3353716E+00
         11   -1    0    0    0    0  0.00000000000E+00  0.00000000000E+00  0.39999999674E+01  0.40000000000E+01  0.51100000000E-03 0. -1.
    9000002   -1    0    0    0    0 -0.00000000000E+00 -0.00000000000E+00  0.00000000000E+00  0.93800000000E+00  0.93800000000E+00 0.  1.
         11    1    1    2    0    0 -0.10780706884E-01 -0.44276795420E-02  0.13329146245E+00  0.13380098307E+00  0.51100000000E-03 0.  1.
    9000002    1    1    2    0    0  0.32502371344E+00  0.13901080390E+00  0.83824188613E-01  0.10059000509E+01  0.93800000000E+00 0.  1.
         22    1    1    2    0    0 -0.31424300655E+00 -0.13458312435E+00  0.37828843163E+01  0.37982989660E+01  0.00000000000E+00 0. -1.
</event>
<event>
 5    1  0.3005426E+001  0.1598753E+01  0.7818608E-02  0.3354718E+00
         11   -1    0    0    0    0  0.00000000000E+00  0.00000000000E+00  0.39999999674E+01  0.40000000000E+01  0.51100000000E-03 0. -1.
    9000002   -1    0    0    0    0 -0.00000000000E+00 -0.00000000000E+00  0.00000000000E+00  0.93800000000E+00  0.93800000000E+00 0. -1.
         11    1    1    2    0    0  0.88015530012E-01 -0.11053224812E+00  0.10190272422E+01  0.10287764057E+01  0.51100000000E-03 0. -1.
    9000002    1    1    2    0    0 -0.44198748198E+00  0.37958905386E+00  0.23686853771E+00  0.11293323196E+01  0.93800000000E+00 0. -1.
         22    1    1    2    0    0  0.35397195197E+00 -0.26905680573E+00  0.27441041874E+01  0.27798912747E+01  0.00000000000E+00 0. -1.
</event>
<event>
 5    1  0.3005426E+001  0.1583149E+01  0.7818608E-02  0.3371859E+00
         11   -1    0    0    0    0  0.00000000000E+00  0.00000000000E+00  0.39999999674E+01  0.40000000000E+01  0.51100000000E-03 0. -1.
    9000002   -1    0    0    0    0 -0.00000000000E+00 -0.00000000000E+00  0.00000000000E+00  0.93800000000E+00  0.93800000000E+00 0. -1.
         11    1    1    2    0    0 -0.50662551262E-01 -0.71635880329E-01  0.11212901477E+01  0.11247178535E+01  0.51100000000E-03 0. -1.
    9000002    1    1    2    0    0 -0.10185558526E+00 -0.15141029440E+00  0.34439560421E-01  0.95620589876E+00  0.93800000000E+00 0. -1.
         22    1    1    2    0    0  0.15251813652E+00  0.22304617472E+00  0.28442702592E+01  0.28570762478E+01  0.00000000000E+00 0. -1.
</event>
<event>
 5    1  0.3005426E+001  0.1517293E+01  0.7818608E-02  0.3448332E+00
         11   -1    0    0    0    0  0.00000000000E+00  0.00000000000E+00  0.39999999674E+01  0.40000000000E+01  0.51100000000E-03 0.  1.
    9000002   -1    0    0    0    0 -0.00000000000E+00 -0.00000000000E+00  0.00000000000E+00  0.93800000000E+00  0.93800000000E+00 0. -1.
         11    1    1    2    0    0  0.15393004583E+00 -0.16162548927E+00  0.55600868108E+00  0.59913535394E+00  0.51100000000E-03 0.  1.
    9000002    1    1    2    0    0  0.12675596850E+00 -0.74795068324E-01  0.77724110824E-01  0.95265230551E+00  0.93800000000E+00 0. -1.
         22    1    1    2    0    0 -0.28068601433E+00  0.23642055759E+00  0.33662671755E+01  0.33862123405E+01  0.00000000000E+00 0.  1.
</event>
<event>
 5    1  0.3005426E+001  0.1599672E+01  0.7818608E-02  0.3353719E+00
         11   -1    0    0    0    0  0.00000000000E+00  0.00000000000E+00  0.39999999674E+01  0.40000000000E+01  0.51100000000E-03 0. -1.
    9000002   -1    0    0    0    0 -0.00000000000E+00 -0.00000000000E+00  0.00000000000E+00  0.93800000000E+00  0.93800000000E+00 0.  1.
         11    1    1    2    0    0 -0.22447564766E-01  0.17288087859E-01  0.21129713881E+00  0.21318891419E+00  0.51100000000E-03 0.  1.
    9000002    1    1    2    0    0  0.41006129320E+00 -0.33100456944E+00  0.19100844373E+00  0.10927225241E+01  0.93800000000E+00 0.  1.
         22    1    1    2    0    0 -0.38761372843E+00  0.31371648158E+00  0.35976943848E+01  0.36320885617E+01  0.00000000000E+00 0. -1.
</event>
<event>
 5    1  0.3005426E+001  0.1597489E+01  0.7818608E-02  0.3356093E+00
         11   -1    0    0    0    0  0.00000000000E+00  0.00000000000E+00  0.39999999674E+01  0.40000000000E+01  0.51100000000E-03 0.  1.
    9000002   -1    0    0    0    0 -0.00000000000E+00 -0.00000000000E+00  0.00000000000E+00  0.93800000000E+00  0.93800000000E+00 0.  1.
         11    1    1    2    0    0 -0.76778839295E-01 -0.82523395693E-02  0.12140857685E+01  0.12165391920E+01  0.51100000000E-03 0.  1.
    9000002    1    1    2    0    0  0.37434132639E+00  0.13456501786E+00  0.10852491762E+00  0.10246271665E+01  0.93800000000E+00 0.  1.
         22    1    1    2    0    0 -0.29756248710E+00 -0.12631267829E+00  0.26773892812E+01  0.26968336414E+01  0.00000000000E+00 0.  1.
</event>
<event>
 5    1  0.3005426E+001  0.1597671E+01  0.7818608E-02  0.3355895E+00
         11   -1    0    0    0    0  0.00000000000E+00  0.00000000000E+00  0.39999999674E+01  0.40000000000E+01  0.51100000000E-03 0.  1.
    9000002   -1    0    0    0    0 -0.00000000000E+00 -0.00000000000E+00  0.00000000000E+00  0.93800000000E+00  0.93800000000E+00 0.  1.
         11    1    1    2    0    0  0.12871122944E+00  0.83319908530E-02  0.14251902718E+01  0.14310148758E+01  0.51100000000E-03 0.  1.
    9000002    1    1    2    0    0 -0.48536876713E+00  0.32134287764E-02  0.16267421747E+00  0.10685972428E+01  0.93800000000E+00 0.  1.
         22    1    1    2    0    0  0.35665753769E+00 -0.11545419629E-01  0.24121354781E+01  0.24383878815E+01  0.00000000000E+00 0.  1.
</event>
<event>
 5    1  0.3005426E+001  0.1599493E+01  0.7818608E-02  0.3353914E+00
         11   -1    0    0    0    0  0.00000000000E+00  0.00000000000E+00  0.39999999674E+01  0.40000000000E+01  0.51100000000E-03 0.  1.
    9000002   -1    0    0    0    0 -0.00000000000E+00 -0.00000000000E+00  0.00000000000E+00  0.93800000000E+00  0.93800000000E+00 0.  1.
         11    1    1    2    0    0  0.12573774879E+00  0.14591208305E+00  0.13997371709E+01  0.14129277144E+01  0.51100000000E-03 0.  1.
    9000002    1    1    2    0    0 -0.30088890768E+00 -0.40415748457E+00  0.17407331175E+00  0.10788989410E+01  0.93800000000E+00 0.  1.
         22    1    1    2    0    0  0.17515115889E+00  0.25824540153E+00  0.24261894847E+01  0.24461733446E+01  0.00000000000E+00 0.  1.
</event>
<event>
 5    1  0.3005426E+001  0.1599676E+01  0.7818608E-02  0.3353716E+00
         11   -1    0    0    0    0  0.00000000000E+00  0.00000000000E+00  0.39999999674E+01  0.40000000000E+01  0.51100000000E-03 0.  1.
    9000002   -1    0    0    0    0 -0.00000000000E+00 -0.00000000000E+00  0.00000000000E+00  0.93800000000E+00  0.93800000000E+00 0.  1.
         11    1    1    2    0    0  0.14062257209E+00 -0.58406260859E-01  0.61598758925E+00  0.63452893576E+00  0.51100000000E-03 0.  1.
    9000002    1    1    2    0    0 -0.78458833657E+00  0.32464471247E+00  0.54054717296E+00  0.13758663792E+01  0.93800000000E+00 0.  1.
         22    1    1    2    0    0  0.64396576448E+00 -0.26623845161E+00  0.28434652052E+01  0.29276046850E+01  0.00000000000E+00 0.  1.
</event>
<event>
 5    1  0.3005426E+001  0.1599676E+01  0.7818608E-02  0.3353715E+00
         11   -1    0    0    0    0  0.00000000000E+00  0.00000000000E+00  0.39999999674E+01  0.40000000000E+01  0.51100000000E-03 0. -1.
    9000002   -1    0    0    0    0 -0.00000000000E+00 -0.00000000000E+00  0.00000000000E+00  0.93800000000E+00  0.93800000000E+00 0. -1.
         11    1    1    2    0    0 -0.69615169443E-01  0.13874392106E+00  0.13171016657E+01  0.13262176316E+01  0.51100000000E-03 0.  1.
    9000002    1    1    2    0    0  0.20399167179E+00 -0.40880909424E+00  0.14191685908E+00  0.10529586281E+01  0.93800000000E+00 0. -1.
         22    1    1    2    0    0 -0.13437650235E+00  0.27006517319E+00  0.25409814425E+01  0.25588237402E+01  0.00000000000E+00 0. -1.
</event>
<event>
 5    1  0.3005426E+001  0.1598834E+01  0.7818608E-02  0.3354629E+00
         11   -1    0    0    0    0  0.00000000000E+00  0.00000000000E+00  0.39999999674E+01  0.40000000000E+01  0.51100000000E-03 0. -1.
    9000002   -1    0    0    0    0 -0.00000000000E+00 -0.00000000000E+00  0.00000000000E+00  0.93800000000E+00  0.93800000000E+00 0.  1.
         11    1    1    2    0    0 -0.43624258512E-02  0.24456144208E-03  0.14960688170E+00  0.14967154287E+00  0.51100000000E-03 0. -1.
    9000002    1    1    2    0    0  0.11520571549E+00 -0.35654648813E+00  0.95094581073E-01  0.10145367093E+01  0.93800000000E+00 0.  1.
         22    1    1    2    0    0 -0.11084328964E+00  0.35630192669E+00  0.37552985046E+01  0.37737917479E+01  0.00000000000E+00 0. -1.
</event>
<event>
 5    1  0.3005426E+001  0.1599560E+01  0.7818608E-02  0.3353841E+00
         11   -1    0    0    0    0  0.00000000000E+00  0.00000000000E+00  0.39999999674E+01  0.40000000000E+01  0.51100000000E-03 0.  1.
    9000002   -1    0    0    0    0 -0.00000000000E+00 -0.00000000000E+00  0.00000000000E+00  0.93800000000E+00  0.93800000000E+00 0.  1.
         11    1    1    2    0    0 -0.75209225288E-01 -0.11161409758E+00  0.11913565185E+01  0.11989348396E+01  0.51100000000E-03 0.  1.
    9000002    1    1    2    0    0  0.20761502558E+00  0.37566656031E+00  0.12485294827E+00  0.10390676696E+01  0.93800000000E+00 0.  1.
         22    1    1    2    0    0 -0.13240580029E+00 -0.26405246272E+00  0.26837905006E+01  0.26999974907E+01  0.00000000000E+00 0.  1.
</event>
<event>
 5    1  0.3005426E+001  0.1597735E+01  0.7818608E-02  0.3355825E+00
         11   -1    0    0    0    0  0.00000000000E+00  0.00000000000E+00  0.39999999674E+01  0.40000000000E+01  0.51100000000E-03 0. -1.
    9000002   -1    0    0    0    0 -0.00000000000E+00 -0.00000000000E+00  0.00000000000E+00  0.93800000000E+00  0.93800000000E+00 0.  1.
         11    1    1    2    0    0 -0.52617429253E-01  0.86447129376E-01  0.98404737651E+00  0.98923768650E+00  0.51100000000E-03 0. -1.
    9000002    1    1    2    0    0  0.30368421509E+00 -0.18704896456E+00  0.86931530734E-01  0.10072797569E+01  0.93800000000E+00 0.  1.
         22    1    1    2    0    0 -0.25106678583E+00  0.10060183519E+00  0.29290210601E+01  0.29414825566E+01  0.00000000000E+00 0. -1.
</event>
<event>
 5    1  0.3005426E+001  0.1596450E+01  0.7818608E-02  0.3357226E+00
         11   -1    0    0    0    0  0.00000000000E+00  0.00000000000E+00  0.39999999674E+01  0.40000000000E+01  0.51100000000E-03 0. -1.
    9000002   -1    0    0    0    0 -0.00000000000E+00 -0.00000000000E+00  0.00000000000E+00  0.93800000000E+00  0.93800000000E+00 0.  1.
         11    1    1    2    0    0 -0.32936644696E+00 -0.20017109430E+00  0.13858517444E+01  0.14384491795E+01  0.51100000000E-03 0. -1.
    9000002    1    1    2    0    0  0.83021131906E+00  0.59222230610E+00  0.85306022997E+00  0.16271244114E+01  0.93800000000E+00 0.  1.
         22    1    1    2    0    0 -0.50084487211E+00 -0.39205121180E+00  0.17610879930E+01  0.18724264092E+01  0.00000000000E+00 0. -1.
</event>
<event>
 5    1  0.3005426E+001  0.1599676E+01  0.7818608E-02  0.3353715E+00
         11   -1    0    0    0    0  0.00000000000E+00  0.00000000000E+00  0.39999999674E+01  0.40000000000E+01  0.51100000000E-03 0.  1.
    9000002   -1    0    0    0    0 -0.00000000000E+00 -0.00000000000E+00  0.00000000000E+00  0.93800000000E+00  0.93800000000E+00 0.  1.
         11    1    1    2    0    0 -0.36435809955E-01 -0.91298620885E-01  0.90429267720E+00  0.90961998306E+00  0.51100000000E-03 0.  1.
    9000002    1    1    2    0    0  0.15970893164E+00  0.39249916173E+00  0.12150173957E+00  0.10364213465E+01  0.93800000000E+00 0.  1.
         22    1    1    2    0    0 -0.12327312169E+00 -0.30120054084E+00  0.29742055506E+01  0.29919586704E+01  0.00000000000E+00 0.  1.
</event>
<event>
 5    1  0.3005426E+001  0.1599545E+01  0.7818608E-02  0.3353857E+00
         11   -1    0    0    0    0  0.00000000000E+00  0.00000000000E+00  0.39999999674E+01  0.40000000000E+01  0.51100000000E-03 0.  1.
    9000002   -1    0    0    0    0 -0.00000000000E+00 -0.00000000000E+00  0.00000000000E+00  0.93800000000E+00  0.93800000000E+00 0.  1.
         11    1    1    2    0    0 -0.11712201822E-01  0.13774791734E-01  0.18518389262E+00  0.18606519224E+00  0.51100000000E-03 0.  1.
    9000002    1    1    2    0    0  0.13319984696E+00 -0.33842120242E+00  0.88933329688E-01  0.10099624976E+01  0.93800000000E+00 0.  1.
         22    1    1    2    0    0 -0.12148764514E+00  0.32464641069E+00  0.37258827451E+01  0.37419723101E+01  0.00000000000E+00 0.  1.
</event>
<event>
 5    1  0.3005426E+001  0.1582522E+01  0.7818608E-02  0.3372555E+00
         11   -1    0    0    0    0  0.00000000000E+00  0.00000000000E+00  0.39999999674E+01  0.40000000000E+01  0.51100000000E-03 0.  1.
    9000002   -1    0    0    0    0 -0.00000000000E+00 -0.00000000000E+00  0.00000000000E+00  0.93800000000E+00  0.93800000000E+00 0.  1.
         11    1    1    2    0    0 -0.83117742296E-01  0.61637590548E-01  0.30972646762E+00  0.32655550450E+00  0.51100000000E-03 0.  1.
    9000002    1    1    2    0    0  0.45776890654E+00  0.15029538810E+00  0.17381096700E+00  0.10687353871E+01  0.93800000000E+00 0.  1.
         22    1    1    2    0    0 -0.37465116424E+00 -0.21193297865E+00  0.35164625327E+01  0.35427091084E+01  0.00000000000E+00 0.  1.
</event>
<event>
 5    1  0.3005426E+001  0.1598934E+01  0.7818608E-02  0.3354521E+00
         11   -1    0    0    0    0  0.00000000000E+00  0.00000000000E+00  0.39999999674E+01  0.40000000000E+01  0.51100000000E-03 0.  1.
    9000002   -1    0    0    0    0 -0.00000000000E+00 -0.00000000000E+00  0.00000000000E+00  0.93800000000E+00  0.93800000000E+00 0.  1.
         11    1    1    2    0    0 -0.67848160288E-01  0.42140262924E-01  0.56562900034E+00  0.57124040628E+00  0.51100000000E-03 0.  1.
    9000002    1    1    2    0    0  0.42345277716E+00 -0.13424235717E+00  0.13455151910E+00  0.10465569150E+01  0.93800000000E+00 0.  1.
         22    1    1    2    0    0 -0.35560461687E+00  0.92102094246E-01  0.32998194479E+01  0.33202026788E+01  0.00000000000E+00 0.  1.
</event>
<event>
 5    1  0.3005426E+001  0.1599509E+01  0.7818608E-02  0.3353896E+00
         11   -1    0    0    0    0  0.00000000000E+00  0.00000000000E+00  0.39999999674E+01  0.40000000000E+01  0.51100000000E-03 0. -1.
    9000002   -1    0    0    0    0 -0.00000000000E+00 -0.00000000000E+00  0.00000000000E+00  0.93800000000E+00  0.93800000000E+00 0. -1.
         11    1    1    2    0    0  0.96387483751E-01 -0.44471287526E-01  0.97716482683E+00  0.98291383262E+00  0.51100000000E-03 0. -1.
    9000002    1    1    2    0    0 -0.40282922339E+00  0.12678290919E+00  0.12079549890E+00  0.10357513417E+01  0.93800000000E+00 0. -1.
         22    1    1    2    0    0  0.30644173964E+00 -0.82311621661E-01  0.29020396416E+01  0.29193348257E+01  0.00000000000E+00 0. -1.
</event>
<event>
 5    1  0.3005426E+001  0.1599666E+01  0.7818608E-02  0.3353726E+00
         11   -1    0    0    0    0  0.00000000000E+00  0.00000000000E+00  0.39999999674E+01  0.40000000000E+01  0.51100000000E-03 0.  1.
    9000002   -1    0    0    0    0 -0.00000000000E+00 -0.00000000000E+00  0.00000000000E+00  0.93800000000E+00  0.93800000000E+00 0.  1.
         11    1    1    2    0    0 -0.48168869155E-01 -0.82929188868E-01  0.57428658725E+00  0.58223950032E+00  0.51100000000E-03 0.  1.
    9000002    1    1    2    0    0  0.29513531658E+00  0.53811680688E+00  0.26360134219E+00  0.11515225662E+01  0.93800000000E+00 0.  1.
         22    1    1    2    0    0 -0.24696644742E+00 -0.45518761801E+00  0.31621120379E+01  0.32042379334E+01  0.00000000000E+00 0.  1.
</event>
<event>
 5    1  0.3005426E+001  0.1585615E+01  0.7818608E-02  0.3369126E+00
         11   -1    0    0    0    0  0.00000000000E+00  0.00000000000E+00  0.39999999674E+01  0.40000000000E+01  0.51100000000E-03 0. -1.
    9000002   -1    0    0    0    0 -0.00000000000E+00 -0.00000000000E+00  0.00000000000E+00  0.93800000000E+00  0.93800000000E+00 0.  1.
         11    1    1    2    0    0 -0.63777298914E-01  0.18852464963E+00  0.12526641670E+01  0.12683756793E+01  0.51100000000E-03 0. -1.
    9000002    1    1    2    0    0  0.38581190617E+00 -0.21494870674E+00  0.14448230459E+00  0.10467917223E+01  0.93800000000E+00 0.  1.
         22    1    1    2    0    0 -0.32203460726E+00  0.26424057118E-01  0.26028534957E+01  0.26228325984E+01  0.00000000000E+00 0. -1.
</event>
<event>
 5    1  0.3005426E+001  0.1599668E+01  0.7818608E-02  0.3353723E+00
         11   -1    0    0    0    0  0.00000000000E+00  0.00000000000E+00  0.39999999674E+01  0.40000000000E+01  0.51100000000E-03 0.  1.
    9000002   -1    0    0    0    0 -0.00000000000E+00 -0.00000000000E+00  0.00000000000E+00  0.93800000000E+00  0.93800000000E+00 0. -1.
         11    1    1    2    0    0 -0.58552098758E-01  0.17967783901E+00  0.14184390788E+01  0.14309724510E+01  0.51100000000E-03 0.  1.
    9000002    1    1    2    0    0  0.14891629414E+00 -0.48266820332E+00  0.17481968130E+00  0.10796066775E+01  0.93800000000E+00 0. -1.
         22    1    1    2    0    0 -0.90364195386E-01  0.30299036432E+00  0.24067412072E+01  0.24274208715E+01  0.00000000000E+00 0.  1.
</event>
<event>
 5    1  0.3005426E+001  0.1599672E+01  0.7818608E-02  0.3353720E+00
         11   -1    0    0    0    0  0.00000000000E+00  0.00000000000E+00  0.39999999674E+01  0.40000000000E+01  0.51100000000E-03 0. -1.
    9000002   -1    0    0    0    0 -0.00000000000E+00 -0.00000000000E+00  0.00000000000E+00  0.93800000000E+00  0.93800000000E+00 0. -1.
         11    1    1    2    0    0 -0.11813269913E-01  0.18001550076E-02  0.10207112054E+00  0.10276949291E+00  0.51100000000E-03 0.  1.
    9000002    1    1    2    0    0  0.42223223640E+00 -0.80856226868E-01  0.12516842053E+00  0.10393887263E+01  0.93800000000E+00 0. -1.
         22    1    1    2    0    0 -0.41041896649E+00  0.79056071860E-01  0.37727604263E+01  0.37958417808E+01  0.00000000000E+00 0. -1.
</event>
<event>
 5    1  0.3005426E+001  0.1598533E+01  0.7818608E-02  0.3354957E+00
         11   -1    0    0    0    0  0.00000000000E+00  0.00000000000E+00  0.39999999674E+01  0.40000000000E+01  0.51100000000E-03 0.  1.
    9000002   -1    0    0    0    0 -0.00000000000E+00 -0.00000000000E+00  0.00000000000E+00  0.93800000000E+00  0.93800000000E+00 0. -1.
         11    1    1    2    0    0 -0.13132139690E+00 -0.10642899113E+00  0.13695824889E+01  0.13799742369E+01  0.51100000000E-03 0.  1.
    9000002    1    1    2    0    0  0.35593986600E+00  0.19284074079E+00  0.11156502800E+00  0.10277020458E+01  0.93800000000E+00 0. -1.
         22    1    1    2    0    0 -0.22461846909E+00 -0.86411749655E-01  0.25188524505E+01  0.25303237173E+01  0.00000000000E+00 0.  1.
</event>
<event>
 5    1  0.3005426E+001  0.1599668E+01  0.7818608E-02  0.3353724E+00
         11   -1    0    0    0    0  0.00000000000E+00  0.00000000000E+00  0.39999999674E+01  0.40000000000E+01  0.51100000000E-03 0. -1.
    9000002   -1    0    0    0    0 -0.00000000000E+00 -0.00000000000E+00  0.00000000000E+00  0.93800000000E+00  0.93800000000E+00 0.  1.
         11    1    1    2    0    0  0.73813150454E-01  0.72629315108E-01  0.74365723041E+00  0.75083269511E+00  0.51100000000E-03 0. -1.
    9000002    1    1    2    0    0 -0.37324757526E+00 -0.38568956540E+00  0.19848616295E+00  0.10987770248E+01  0.93800000000E+00 0.  1.
         22    1    1    2    0    0  0.29943442481E+00  0.31306025029E+00  0.30578565740E+01  0.30883902801E+01  0.00000000000E+00 0. -1.
</event>
<event>
 5    1  0.3005426E+001  0.1599103E+01  0.7818608E-02  0.3354338E+00
         11   -1    0    0    0    0  0.00000000000E+00  0.00000000000E+00  0.39999999674E+01  0.40000000000E+01  0.51100000000E-03 0.  1.
    9000002   -1    0    0    0    0 -0.00000000000E+00 -0.00000000000E+00  0.00000000000E+00  0.93800000000E+00  0.93800000000E+00 0.  1.
         11    1    1    2    0    0  0.19800186670E-01  0.49561778839E-01  0.89314129321E+00  0.89473462438E+00  0.51100000000E-03 0.  1.
    9000002    1    1    2    0    0 -0.17089875385E+00 -0.28356535632E+00  0.73807292247E-01  0.99745035554E+00  0.93800000000E+00 0.  1.
         22    1    1    2    0    0  0.15109856718E+00  0.23400357748E+00  0.30330513819E+01  0.30458150201E+01  0.00000000000E+00 0.  1.
</event>
<event>
 5    1  0.3005426E+001  0.1596256E+01  0.7818608E-02  0.3357437E+00
         11   -1    0    0    0    0  0.00000000000E+00  0.00000000000E+00  0.39999999674E+01  0.40000000000E+01  0.51100000000E-03 0.  1.
    9000002   -1    0    0    0    0 -0.00000000000E+00 -0.00000000000E+00  0.00000000000E+00  0.93800000000E+00  0.93800000000E+00 0.  1.
         11    1    1    2    0    0  0.93772995077E-01 -0.15370931740E-01  0.13980046470E+01  0.14012304929E+01  0.51100000000E-03 0.  1.
    9000002    1    1    2    0    0 -0.29372629716E+00 -0.14377119728E+00  0.74255275756E-01  0.99614413655E+00  0.93800000000E+00 0.  1.
         22    1    1    2    0    0  0.19995330209E+00  0.15914212902E+00  0.25277400446E+01  0.25406253705E+01  0.00000000000E+00 0.  1.
</event>
<event>
 5    1  0.3005426E+001  0.1599676E+01  0.7818608E-02  0.3353715E+00
         11   -1    0    0    0    0  0.00000000000E+00  0.00000000000E+00  0.39999999674E+01  0.40000000000E+01  0.51100000000E-03 0. -1.
    9000002   -1    0    0    0    0 -0.00000000000E+00 -0.00000000000E+00  0.00000000000E+00  0.93800000000E+00  0.93800000000E+00 0. -1.
         11    1    1    2    0    0 -0.79087475545E-01 -0.24196093915E-01  0.59142381088E+00  0.59717892206E+00  0.51100000000E-03 0. -1.
    9000002    1    1    2    0    0  0.50842843883E+00  0.15907969022E+00  0.19539712465E+00  0.10962800106E+01  0.93800000000E+00 0. -1.
         22    1    1    2    0    0 -0.42934096328E+00 -0.13488359631E+00  0.32131790318E+01  0.32445410674E+01  0.00000000000E+00 0. -1.
</event>
<event>
 5    1  0.3005426E+001  0.1599645E+01  0.7818608E-02  0.3353749E+00
         11   -1    0    0    0    0  0.00000000000E+00  0.00000000000E+00  0.39999999674E+01  0.40000000000E+01  0.51100000000E-03 0.  1.
    9000002   -1    0    0    0    0 -0.00000000000E+00 -0.00000000000E+00  0.00000000000E+00  0.93800000000E+00  0.93800000000E+00 0. -1.
         11    1    1    2    0    0  0.41590140499E-01 -0.13565676926E+00  0.13462185018E+01  0.13536753727E+01  0.51100000000E-03 0.  1.
    9000002    1    1    2    0    0 -0.13279682635E+00  0.37823922969E+00  0.10843414510E+00  0.10258176621E+01  0.93800000000E+00 0. -1.
         22    1    1    2    0    0  0.91206685850E-01 -0.24258246043E+00  0.25453473204E+01  0.25585069653E+01  0.00000000000E+00 0.  1.
</event>
<event>
 5    1  0.3005426E+001  0.1599677E+01  0.7818608E-02  0.3353715E+00
         11   -1    0    0    0    0  0.00000000000E+00  0.00000000000E+00  0.39999999674E+01  0.40000000000E+01  0.51100000000E-03 0. -1.
    9000002   -1    0    0    0    0 -0.00000000000E+00 -0.00000000000E+00  0.00000000000E+00  0.93800000000E+00  0.93800000000E+00 0. -1.
         11    1    1    2    0    0  0.11281269342E+00 -0.10050259702E+00  0.11288231267E+01  0.11388895417E+01  0.51100000000E-03 0. -1.
    9000002    1    1    2    0    0 -0.38308181858E+00  0.34203443537E+00  0.18096314327E+00  0.10845878913E+01  0.93800000000E+00 0. -1.
         22    1    1    2    0    0  0.27026912516E+00 -0.24153183835E+00  0.26902136974E+01  0.27145225670E+01  0.00000000000E+00 0. -1.
</event>
<event>
 5    1  0.3005426E+001  0.1599636E+01  0.7818608E-02  0.3353758E+00
         11   -1    0    0    0    0  0.00000000000E+00  0.00000000000E+00  0.39999999674E+01  0.40000000000E+01  0.51100000000E-03 0. -1.
    9000002   -1    0    0    0    0 -0.00000000000E+00 -0.00000000000E+00  0.00000000000E+00  0.93800000000E+00  0.93800000000E+00 0. -1.
         11    1    1    2    0    0  0.11904772996E-01 -0.71034745994E-01  0.64520329344E+00  0.64921122121E+00  0.51100000000E-03 0. -1.
    9000002    1    1    2    0    0 -0.37354368369E-01  0.42412537404E+00  0.12273025560E+00  0.10373930776E+01  0.93800000000E+00 0. -1.
         22    1    1    2    0    0  0.25449595373E-01 -0.35309062804E+00  0.32320664183E+01  0.32513957012E+01  0.00000000000E+00 0. -1.
</event>
<event>
 5    1  0.3005426E+001  0.1566977E+01  0.7818608E-02  0.3390004E+00
         11   -1    0    0    0    0  0.00000000000E+00  0.00000000000E+00  0.39999999674E+01  0.40000000000E+01  0.51100000000E-03 0. -1.
    9000002   -1    0    0    0    0 -0.00000000000E+00 -0.00000000000E+00  0.00000000000E+00  0.93800000000E+00  0.93800000000E+00 0. -1.
         11    1    1    2    0    0 -0.58283939291E-01 -0.10934419203E+00  0.38788095660E+00  0.40719168401E+00  0.51100000000E-03 0. -1.
    9000002    1    1    2    0    0  0.35587632789E+00 -0.20282163075E+00  0.14124000604E+00  0.10332363302E+01  0.93800000000E+00 0. -1.
         22    1    1    2    0    0 -0.29759238860E+00  0.31216582279E+00  0.34708790047E+01  0.34975719858E+01  0.00000000000E+00 0. -1.
</event>
<event>
 5    1  0.3005426E+001  0.1599589E+01  0.7818608E-02  0.3353810E+00
         11   -1    0    0    0    0  0.00000000000E+00  0.00000000000E+00  0.39999999674E+01  0.40000000000E+01  0.51100000000E-03 0. -1.
    9000002   -1    0    0    0    0 -0.00000000000E+00 -0.00000000000E+00  0.00000000000E+00  0.93800000000E+00  0.93800000000E+00 0. -1.
         11    1    1    2    0    0 -0.19058955043E+00  0.46263496330E-01  0.10426338558E+01  0.10609195569E+01  0.51100000000E-03 0. -1.
    9000002    1    1    2    0    0  0.63989741366E+00 -0.15406081885E+00  0.30638960749E+00  0.11861374404E+01  0.93800000000E+00 0. -1.
         22    1    1    2    0    0 -0.44930786323E+00  0.10779732252E+00  0.26509765041E+01  0.26909430028E+01  0.00000000000E+00 0. -1.
</event>
<event>
 5    1  0.3005426E+001  0.1599607E+01  0.7818608E-02  0.3353790E+00
         11   -1    0    0    0    0  0.00000000000E+00  0.00000000000E+00  0.39999999674E+01  0.40000000000E+01  0.51100000000E-03 0. -1.
    9000002   -1    0    0    0    0 -0.00000000000E+00 -0.00000000000E+00  0.00000000000E+00  0.93800000000E+00  0.93800000000E+00 0.  1.
         11    1    1    2    0    0 -0.14061834646E+00 -0.45160942826E-01  0.10589026107E+01  0.10691529499E+01  0.51100000000E-03 0. -1.
    9000002    1    1    2    0    0  0.53432458932E+00  0.16800498472E+00  0.21718106089E+00  0.11138851174E+01  0.93800000000E+00 0.  1.
         22    1    1    2    0    0 -0.39370624286E+00 -0.12284404189E+00  0.27239162958E+01  0.27549619327E+01  0.00000000000E+00 0. -1.
</event>
<event>
 5    1  0.3005426E+001  0.1599677E+01  0.7818608E-02  0.3353714E+00
         11   -1    0    0    0    0  0.00000000000E+00  0.00000000000E+00  0.39999999674E+01  0.40000000000E+01  0.51100000000E-03 0. -1.
    9000002   -1    0    0    0    0 -0.00000000000E+00 -0.00000000000E+00  0.00000000000E+00  0.93800000000E+00  0.93800000000E+00 0. -1.
         11    1    1    2    0    0 -0.15439177712E+00  0.21565601976E-01  0.11277798010E+01  0.11385031563E+01  0.51100000000E-03 0. -1.
    9000002    1    1    2    0    0  0.52196265648E+00 -0.70950320470E-01  0.19083485271E+00  0.10925845065E+01  0.93800000000E+00 0. -1.
         22    1    1    2    0    0 -0.36757087936E+00  0.49384718493E-01  0.26813853136E+01  0.27069123373E+01  0.00000000000E+00 0. -1.
</event>
<event>
 5    1  0.3005426E+001  0.1565910E+01  0.7818608E-02  0.3391215E+00
         11   -1    0    0    0    0  0.00000000000E+00  0.00000000000E+00  0.39999999674E+01  0.40000000000E+01  0.51100000000E-03 0. -1.
    9000002   -1    0    0    0    0 -0.00000000000E+00 -0.00000000000E+00  0.00000000000E+00  0.93800000000E+00  0.93800000000E+00 0. -1.
         11    1    1    2    0    0  0.14910795321E+00  0.49100980647E-01  0.95232932459E+00  0.96518158479E+00  0.51100000000E-03 0. -1.
    9000002    1    1    2    0    0  0.14268941600E+00 -0.13206565924E-01  0.38859852969E-01  0.94967824604E+00  0.93800000000E+00 0. -1.
         22    1    1    2    0    0 -0.29179736921E+00 -0.35894414723E-01  0.30088107898E+01  0.30231401692E+01  0.00000000000E+00 0. -1.
</event>
<event>
 5    1  0.3005426E+001  0.1599673E+01  0.7818608E-02  0.3353719E+00
         11   -1    0    0    0    0  0.00000000000E+00  0.00000000000E+00  0.39999999674E+01  0.40000000000E+01  0.51100000000E-03 0. -1.
    9000002   -1    0    0    0    0 -0.00000000000E+00 -0.00000000000E+00  0.00000000000E+00  0.93800000000E+00  0.93800000000E+00 0.  1.
         11    1    1    2    0    0  0.49122452194E-01  0.88320897196E-01  0.10621163672E+01  0.10669137898E+01  0.51100000000E-03 0. -1.
    9000002    1    1    2    0    0 -0.17988949189E+00 -0.31721148501E+00  0.89317883591E-01  0.10103489693E+01  0.93800000000E+00 0.  1.
         22    1    1    2    0    0  0.13076703969E+00  0.22889058781E+00  0.28485657166E+01  0.28607372409E+01  0.00000000000E+00 0. -1.
</event>
<event>
 5    1  0.3005426E+001  0.1599671E+01  0.7818608E-02  0.3353721E+00
         11   -1    0    0    0    0  0.00000000000E+00  0.00000000000E+00  0.39999999674E+01  0.40000000000E+01  0.51100000000E-03 0. -1.
    9000002   -1    0    0    0    0 -0.00000000000E+00 -0.00000000000E+00  0.00000000000E+00  0.93800000000E+00  0.93800000000E+00 0. -1.
         11    1    1    2    0    0  0.21940933330E-01  0.86140510151E-01  0.73056651738E+00  0.73595467896E+00  0.51100000000E-03 0. -1.
    9000002    1    1    2    0    0 -0.11123288145E+00 -0.44328280956E+00  0.14201678913E+00  0.10530361682E+01  0.93800000000E+00 0. -1.
         22    1    1    2    0    0  0.89291948125E-01  0.35714229940E+00  0.31274166609E+01  0.31490091528E+01  0.00000000000E+00 0. -1.
</event>
<event>
 5    1  0.3005426E+001  0.1599400E+01  0.7818608E-02  0.3354015E+00
         11   -1    0    0    0    0  0.00000000000E+00  0.00000000000E+00  0.39999999674E+01  0.40000000000E+01  0.51100000000E-03 0. -1.
    9000002   -1    0    0    0    0 -0.00000000000E+00 -0.00000000000E+00  0.00000000000E+00  0.93800000000E+00  0.93800000000E+00 0. -1.
         11    1    1    2    0    0 -0.54023296767E-01 -0.16571269617E+00  0.12679602073E+01  0.12798838082E+01  0.51100000000E-03 0. -1.
    9000002    1    1    2    0    0  0.12463609073E+00  0.46041036095E+00  0.15540577564E+00  0.10637230893E+01  0.93800000000E+00 0. -1.
         22    1    1    2    0    0 -0.70612793959E-01 -0.29469766478E+00  0.25766339845E+01  0.25943931025E+01  0.00000000000E+00 0. -1.
</event>
<event>
 5    1  0.3005426E+001  0.1599676E+01  0.7818608E-02  0.3353716E+00
         11   -1    0    0    0    0  0.00000000000E+00  0.00000000000E+00  0.39999999674E+01  0.40000000000E+01  0.51100000000E-03 0.  1.
    9000002   -1    0    0    0    0 -0.00000000000E+00 -0.00000000000E+00  0.00000000000E+00  0.93800000000E+00  0.93800000000E+00 0. -1.
         11    1    1    2    0    0  0.25894580444E-01  0.52957118184E-01  0.50961344833E+00  0.51301180639E+00  0.51100000000E-03 0.  1.
    9000002    1    1    2    0    0 -0.19128450536E+00 -0.39782101854E+00  0.13217567447E+00  0.10450673345E+01  0.93800000000E+00 0. -1.
         22    1    1    2    0    0  0.16538992492E+00  0.34486390036E+00  0.33582108446E+01  0.33799208591E+01  0.00000000000E+00 0.  1.
</event>
<event>
 5    1  0.3005426E+001  0.1591729E+01  0.7818608E-02  0.3362390E+00
         11   -1    0    0    0    0  0.00000000000E+00  0.00000000000E+00  0.39999999674E+01  0.40000000000E+01  0.51100000000E-03 0. -1.
    9000002   -1    0    0    0    0 -0.00000000000E+00 -0.00000000000E+00  0.00000000000E+00  0.93800000000E+00  0.93800000000E+00 0.  1.
         11    1    1    2    0    0 -0.12765985000E-01 -0.19223340908E+00  0.11594300059E+01  0.11753275517E+01  0.51100000000E-03 0. -1.
    9000002    1    1    2    0    0 -0.21804323787E+00  0.43860694109E+00  0.17109068695E+00  0.10719304667E+01  0.93800000000E+00 0.  1.
         22    1    1    2    0    0  0.23080922287E+00 -0.24637353202E+00  0.26694792745E+01  0.26907419816E+01  0.00000000000E+00 0. -1.
</event>
<event>
 5    1  0.3005426E+001  0.1599658E+01  0.7818608E-02  0.3353735E+00
         11   -1    0    0    0    0  0.00000000000E+00  0.00000000000E+00  0.39999999674E+01  0.40000000000E+01  0.51100000000E-03 0. -1.
    9000002   -1    0    0    0    0 -0.00000000000E+00 -0.00000000000E+00  0.00000000000E+00  0.93800000000E+00  0.93800000000E+00 0. -1.
         11    1    1    2    0    0 -0.44047227012E-01 -0.12349689746E-01  0.50506752930E+00  0.50713523179E+00  0.51100000000E-03 0. -1.
    9000002    1    1    2    0    0  0.36524830949E+00  0.10684178483E+00  0.97464137415E-01  0.10169389129E+01  0.93800000000E+00 0. -1.
         22    1    1    2    0    0 -0.32120108248E+00 -0.94492095086E-01  0.33974683006E+01  0.34139258553E+01  0.00000000000E+00 0. -1.
</event>
<event>
 5    1  0.3005426E+001  0.1513092E+01  0.7818608E-02  0.3453452E+00
         11   -1    0    0    0    0  0.00000000000E+00  0.00000000000E+00  0.39999999674E+01  0.40000000000E+01  0.51100000000E-03 0. -1.
    9000002   -1    0    0    0    0 -0.00000000000E+00 -0.00000000000E+00  0.00000000000E+00  0.93800000000E+00  0.93800000000E+00 0.  1.
         11    1    1    2    0    0  0.11910500738E+00  0.17705045577E+00  0.37431447253E+00  0.43086477245E+00  0.51100000000E-03 0. -1.
    9000002    1    1    2    0    0 -0.21286782273E+00  0.14190055682E+00  0.11306030427E+00  0.97881311310E+00  0.93800000000E+00 0.  1.
         22    1    1    2    0    0  0.93762815352E-01 -0.31895101259E+00  0.35126251906E+01  0.35283221145E+01  0.00000000000E+00 0. -1.
</event>
<event>
 5    1  0.3005426E+001  0.1599677E+01  0.7818608E-02  0.3353714E+00
         11   -1    0    0    0    0  0.00000000000E+00  0.00000000000E+00  0.39999999674E+01  0.40000000000E+01  0.51100000000E-03 0.  1.
    9000002   -1    0    0    0    0 -0.00000000000E+00 -0.00000000000E+00  0.00000000000E+00  0.93800000000E+00  0.93800000000E+00 0. -1.
         11    1    1    2    0    0  0.13380574228E+00  0.10461648406E+00  0.13913291513E+01  0.14016581801E+01  0.51100000000E-03 0. -1.
    9000002    1    1    2    0    0 -0.37166616694E+00 -0.29011561613E+00  0.15147801759E+00  0.10607037288E+01  0.93800000000E+00 0. -1.
         22    1    1    2    0    0  0.23786042466E+00  0.18549913207E+00  0.24571927984E+01  0.24756380911E+01  0.00000000000E+00 0.  1.
</event>
<event>
 5    1  0.3005426E+001  0.1557651E+01  0.7818608E-02  0.3400650E+00
         11   -1    0    0    0    0  0.00000000000E+00  0.00000000000E+00  0.39999999674E+01  0.40000000000E+01  0.51100000000E-03 0.  1.
    9000002   -1    0    0    0    0 -0.00000000000E+00 -0.00000000000E+00  0.00000000000E+00  0.93800000000E+00  0.93800000000E+00 0. -1.
         11    1    1    2    0    0  0.53718534436E-01 -0.10305342228E-01  0.23317005494E-01  0.59462802546E-01  0.51100000000E-03 0.  1.
    9000002    1    1    2    0    0 -0.25687055961E+00  0.46318790467E+00  0.23302961575E+00  0.11021217361E+01  0.93800000000E+00 0. -1.
         22    1    1    2    0    0  0.20315202517E+00 -0.45288256244E+00  0.37436533461E+01  0.37764154613E+01  0.00000000000E+00 0.  1.
</event>
<event>
 5    1  0.3005426E+001  0.1599301E+01  0.7818608E-02  0.3354122E+00
         11   -1    0    0    0    0  0.00000000000E+00  0.00000000000E+00  0.39999999674E+01  0.40000000000E+01  0.51100000000E-03 0. -1.
    9000002   -1    0    0    0    0 -0.00000000000E+00 -0.00000000000E+00  0.00000000000E+00  0.93800000000E+00  0.93800000000E+00 0. -1.
         11    1    1    2    0    0 -0.55279871359E-02  0.49253893397E-02  0.34384850114E-01  0.35176656184E-01  0.51100000000E-03 0. -1.
    9000002    1    1    2    0    0  0.15806401075E+00 -0.38940219719E+00  0.11976929550E+00  0.10347980416E+01  0.93800000000E+00 0. -1.
         22    1    1    2    0    0 -0.15253602362E+00  0.38447680785E+00  0.38458458217E+01  0.38680253023E+01  0.00000000000E+00 0. -1.
</event>
<event>
 5    1  0.3005426E+001  0.1595881E+01  0.7818608E-02  0.3357847E+00
         11   -1    0    0    0    0  0.00000000000E+00  0.00000000000E+00  0.39999999674E+01  0.40000000000E+01  0.51100000000E-03 0.  1.
    9000002   -1    0    0    0    0 -0.00000000000E+00 -0.00000000000E+00  0.00000000000E+00  0.93800000000E+00  0.93800000000E+00 0.  1.
         11    1    1    2    0    0 -0.54546854822E-01  0.35553745522E-01  0.47689612080E+00  0.48132068244E+00  0.51100000000E-03 0.  1.
    9000002    1    1    2    0    0  0.53939526842E-01 -0.35345320130E+00  0.88866662142E-01  0.10077598532E+01  0.93800000000E+00 0.  1.
         22    1    1    2    0    0  0.60732798043E-03  0.31789945578E+00  0.34342371844E+01  0.34489194644E+01  0.00000000000E+00 0.  1.
</event>
<event>
 5    1  0.3005426E+001  0.1599676E+01  0.7818608E-02  0.3353715E+00
         11   -1    0    0    0    0  0.00000000000E+00  0.00000000000E+00  0.39999999674E+01  0.40000000000E+01  0.51100000000E-03 0.  1.
    9000002   -1    0    0    0    0 -0.00000000000E+00 -0.00000000000E+00  0.00000000000E+00  0.93800000000E+00  0.93800000000E+00 0.  1.
         11    1    1    2    0    0 -0.11426051605E+00  0.21235111787E+00  0.12976578152E+01  0.13198729217E+01  0.51100000000E-03 0.  1.
    9000002    1    1    2    0    0  0.32534692221E+00 -0.60223591541E+00  0.33348487089E+00  0.12081369445E+01  0.93800000000E+00 0.  1.
         22    1    1    2    0    0 -0.21108640615E+00  0.38988479754E+00  0.23688572812E+01  0.24099901338E+01  0.00000000000E+00 0.  1.
</event>
<event>
 5    1  0.3005426E+001  0.1599677E+01  0.7818608E-02  0.3353714E+00
         11   -1    0    0    0    0  0.00000000000E+00  0.00000000000E+00  0.39999999674E+01  0.40000000000E+01  0.51100000000E-03 0. -1.
    9000002   -1    0    0    0    0 -0.00000000000E+00 -0.00000000000E+00  0.00000000000E+00  0.93800000000E+00  0.93800000000E+00 0.  1.
         11    1    1    2    0    0  0.64969947086E-01 -0.11236750606E+00  0.13758821399E+01  0.13819911268E+01  0.51100000000E-03 0. -1.
    9000002    1    1    2    0    0 -0.18443828377E+00  0.31850545648E+00  0.91015813393E-01  0.10117267836E+01  0.93800000000E+00 0.  1.
         22    1    1    2    0    0  0.11946833668E+00 -0.20613795042E+00  0.25331020140E+01  0.25442820896E+01  0.00000000000E+00 0. -1.
</event>
<event>
 5    1  0.3005426E+001  0.1454749E+01  0.7818608E-02  0.3527862E+00
         11   -1    0    0    0    0  0.00000000000E+00  0.00000000000E+00  0.39999999674E+01  0.40000000000E+01  0.51100000000E-03 0. -1.
    9000002   -1    0    0    0    0 -0.00000000000E+00 -0.00000000000E+00  0.00000000000E+00  0.93800000000E+00  0.93800000000E+00 0.  1.
         11    1    1    2    0    0 -0.55398083243E-01 -0.15705531954E+00  0.88037295854E-01  0.18837767279E+00  0.51100000000E-03 0. -1.
    9000002    1    1    2    0    0  0.30251555908E+00 -0.56784333656E+00  0.48228982287E+00  0.12354793368E+01  0.93800000000E+00 0.  1.
         22    1    1    2    0    0 -0.24711747584E+00  0.72489865611E+00  0.34296728486E+01  0.35141429904E+01  0.00000000000E+00 0. -1.
</event>
<event>
 5    1  0.3005426E+001  0.1599644E+01  0.7818608E-02  0.3353750E+00
         11   -1    0    0    0    0  0.00000000000E+00  0.00000000000E+00  0.39999999674E+01  0.40000000000E+01  0.51100000000E-03 0.  1.
    9000002   -1    0    0    0    0 -0.00000000000E+00 -0.00000000000E+00  0.00000000000E+00  0.93800000000E+00  0.93800000000E+00 0.  1.
         11    1    1    2    0    0 -0.12728725062E+00 -0.11758367704E+00  0.64888250344E+00  0.67162246066E+00  0.51100000000E-03 0.  1.
    9000002    1    1    2    0    0  0.65904892419E+00  0.63642062982E+00  0.64714351187E+00  0.14621954136E+01  0.93800000000E+00 0.  1.
         22    1    1    2    0    0 -0.53176167356E+00 -0.51883695279E+00  0.27039739521E+01  0.28041821258E+01  0.00000000000E+00 0.  1.
</event>
<event>
 5    1  0.3005426E+001  0.1591507E+01  0.7818608E-02  0.3362634E+00
         11   -1    0    0    0    0  0.00000000000E+00  0.00000000000E+00  0.39999999674E+01  0.40000000000E+01  0.51100000000E-03 0.  1.
    9000002   -1    0    0    0    0 -0.00000000000E+00 -0.00000000000E+00  0.00000000000E+00  0.93800000000E+00  0.93800000000E+00 0. -1.
         11    1    1    2    0    0  0.12530708191E+00  0.10256869020E+00  0.14734583694E+01  0.14823299324E+01  0.51100000000E-03 0.  1.
    9000002    1    1    2    0    0 -0.57206981523E-01 -0.32076524103E+00  0.77515153394E-01  0.99599978795E+00  0.93800000000E+00 0. -1.
         22    1    1    2    0    0 -0.68100100392E-01  0.21819655083E+00  0.24490264446E+01  0.24596702796E+01  0.00000000000E+00 0.  1.
</event>
<event>
 5    1  0.3005426E+001  0.1594256E+01  0.7818608E-02  0.3359622E+00
         11   -1    0    0    0    0  0.00000000000E+00  0.00000000000E+00  0.39999999674E+01  0.40000000000E+01  0.51100000000E-03 0.  1.
    9000002   -1    0    0    0    0 -0.00000000000E+00 -0.00000000000E+00  0.00000000000E+00  0.93800000000E+00  0.93800000000E+00 0.  1.
         11    1    1    2    0    0  0.15573695266E+00  0.22809496960E-01  0.88056782098E+00  0.89452457766E+00  0.51100000000E-03 0.  1.
    9000002    1    1    2    0    0 -0.37528320782E+00 -0.21029726307E+00  0.12995950342E+00  0.10400941772E+01  0.93800000000E+00 0.  1.
         22    1    1    2    0    0  0.21954625517E+00  0.18748776611E+00  0.29894726430E+01  0.30033812451E+01  0.00000000000E+00 0.  1.
</event>
<event>
 5    1  0.3005426E+001  0.1595595E+01  0.7818608E-02  0.3358158E+00
         11   -1    0    0    0    0  0.00000000000E+00  0.00000000000E+00  0.39999999674E+01  0.40000000000E+01  0.51100000000E-03 0.  1.
    9000002   -1    0    0    0    0 -0.00000000000E+00 -0.00000000000E+00  0.00000000000E+00  0.93800000000E+00  0.93800000000E+00 0.  1.
         11    1    1    2    0    0 -0.36220016540E-01 -0.16171590774E+00  0.10990541616E+01  0.11114784009E+01  0.51100000000E-03 0.  1.
    9000002    1    1    2    0    0 -0.76616406469E-01  0.43406793159E+00  0.13528618398E+00  0.10451944291E+01  0.93800000000E+00 0.  1.
         22    1    1    2    0    0  0.11283642301E+00 -0.27235202385E+00  0.27656596218E+01  0.27813271701E+01  0.00000000000E+00 0.  1.
</event>
<event>
 5    1  0.3005426E+001  0.1591369E+01  0.7818608E-02  0.3362785E+00
         11   -1    0    0    0    0  0.00000000000E+00  0.00000000000E+00  0.39999999674E+01  0.40000000000E+01  0.51100000000E-03 0.  1.
    9000002   -1    0    0    0    0 -0.00000000000E+00 -0.00000000000E+00  0.00000000000E+00  0.93800000000E+00  0.93800000000E+00 0. -1.
         11    1    1    2    0    0  0.83972555099E-02  0.57407449720E-01  0.25577982452E+00  0.26227792308E+00  0.51100000000E-03 0.  1.
    9000002    1    1    2    0    0 -0.41777442029E+00 -0.93886015096E-01  0.13123004512E+00  0.10394303126E+01  0.93800000000E+00 0. -1.
         22    1    1    2    0    0  0.40937716478E+00  0.36478565377E-01  0.36129900977E+01  0.36362917643E+01  0.00000000000E+00 0.  1.
</event>
<event>
 5    1  0.3005426E+001  0.1597217E+01  0.7818608E-02  0.3356390E+00
         11   -1    0    0    0    0  0.00000000000E+00  0.00000000000E+00  0.39999999674E+01  0.40000000000E+01  0.51100000000E-03 0. -1.
    9000002   -1    0    0    0    0 -0.00000000000E+00 -0.00000000000E+00  0.00000000000E+00  0.93800000000E+00  0.93800000000E+00 0. -1.
         11    1    1    2    0    0 -0.85907885335E-01 -0.13684916533E-01  0.52017149451E+00  0.52739556930E+00  0.51100000000E-03 0. -1.
    9000002    1    1    2    0    0  0.39762206254E+00 -0.80748832907E-01  0.11318265643E+00  0.10282402406E+01  0.93800000000E+00 0. -1.
         22    1    1    2    0    0 -0.31171417720E+00  0.94433749440E-01  0.33666458164E+01  0.33823641901E+01  0.00000000000E+00 0. -1.
</event>
<event>
 5    1  0.3005426E+001  0.1599518E+01  0.7818608E-02  0.3353887E+00
         11   -1    0    0    0    0  0.00000000000E+00  0.00000000000E+00  0.39999999674E+01  0.40000000000E+01  0.51100000000E-03 0.  1.
    9000002   -1    0    0    0    0 -0.00000000000E+00 -0.00000000000E+00  0.00000000000E+00  0.93800000000E+00  0.93800000000E+00 0.  1.
         11    1    1    2    0    0 -0.15835399455E-01 -0.23947979005E-01  0.37127105514E+00  0.37237981025E+00  0.51100000000E-03 0.  1.
    9000002    1    1    2    0    0  0.25549206905E+00  0.28131281728E+00  0.97297876464E-01  0.10167221721E+01  0.93800000000E+00 0.  1.
         22    1    1    2    0    0 -0.23965666960E+00 -0.25736483827E+00  0.35314310358E+01  0.35488980176E+01  0.00000000000E+00 0.  1.
</event>
<event>
 5    1  0.3005426E+001  0.1457784E+01  0.7818608E-02  0.3523831E+00
         11   -1    0    0    0    0  0.00000000000E+00  0.00000000000E+00  0.39999999674E+01  0.40000000000E+01  0.51100000000E-03 0.  1.
    9000002   -1    0    0    0    0 -0.00000000000E+00 -0.00000000000E+00  0.00000000000E+00  0.93800000000E+00  0.93800000000E+00 0.  1.
         11    1    1    2    0    0  0.21845373750E+00  0.24568933041E+00  0.69526164971E+00  0.76907366694E+00  0.51100000000E-03 0.  1.
    9000002    1    1    2    0    0  0.14768064536E+00  0.40878285585E-01  0.12878406169E+00  0.95911935743E+00  0.93800000000E+00 0.  1.
         22    1    1    2    0    0 -0.36613438286E+00 -0.28656761599E+00  0.31759542560E+01  0.32098069756E+01  0.00000000000E+00 0.  1.
</event>
<event>
 5    1  0.3005426E+001  0.1599032E+01  0.7818608E-02  0.3354415E+00
         11   -1    0    0    0    0  0.00000000000E+00  0.00000000000E+00  0.39999999674E+01  0.40000000000E+01  0.51100000000E-03 0.  1.
    9000002   -1    0    0    0    0 -0.00000000000E+00 -0.00000000000E+00  0.00000000000E+00  0.93800000000E+00  0.93800000000E+00 0.  1.
         11    1    1    2    0    0  0.42142337115E-01 -0.10281783907E-01  0.68868947746E+00  0.69005445375E+00  0.51100000000E-03 0.  1.
    9000002    1    1    2    0    0 -0.34970410013E+00 -0.15525714922E-01  0.82680273114E-01  0.10045964528E+01  0.93800000000E+00 0.  1.
         22    1    1    2    0    0  0.30756176301E+00  0.25807498829E-01  0.32286302168E+01  0.32433490934E+01  0.00000000000E+00 0.  1.
</event>
<event>
 5    1  0.3005426E+001  0.1599567E+01  0.7818608E-02  0.3353833E+00
         11   -1    0    0    0    0  0.00000000000E+00  0.00000000000E+00  0.39999999674E+01  0.40000000000E+01  0.51100000000E-03 0. -1.
    9000002   -1    0    0    0    0 -0.00000000000E+00 -0.00000000000E+00  0.00000000000E+00  0.93800000000E+00  0.93800000000E+00 0. -1.
         11    1    1    2    0    0  0.26237275231E+00 -0.47334004952E-01  0.83204063819E+00  0.87371153930E+00  0.51100000000E-03 0. -1.
    9000002    1    1    2    0    0 -0.97406165255E+00  0.20630753041E+00  0.79577521934E+00  0.15825489249E+01  0.93800000000E+00 0. -1.
         22    1    1    2    0    0  0.71168890024E+00 -0.15897352546E+00  0.23721841098E+01  0.24817395358E+01  0.00000000000E+00 0. -1.
</event>
<event>
 5    1  0.3005426E+001  0.1599665E+01  0.7818608E-02  0.3353727E+00
         11   -1    0    0    0    0  0.00000000000E+00  0.00000000000E+00  0.39999999674E+01  0.40000000000E+01  0.51100000000E-03 0.  1.
    9000002   -1    0    0    0    0 -0.00000000000E+00 -0.00000000000E+00  0.00000000000E+00  0.93800000000E+00  0.93800000000E+00 0. -1.
         11    1    1    2    0    0 -0.20523615188E+00 -0.40055536906E-01  0.14607485164E+01  0.14756397980E+01  0.51100000000E-03 0.  1.
    9000002    1    1    2    0    0  0.54258266323E+00  0.10085726645E+00  0.21045193481E+00  0.11084683809E+01  0.93800000000E+00 0. -1.
         22    1    1    2    0    0 -0.33734651135E+00 -0.60801729541E-01  0.23287995161E+01  0.23538918211E+01  0.00000000000E+00 0. -1.
</event>
<event>
 5    1  0.3005426E+001  0.1599644E+01  0.7818608E-02  0.3353750E+00
         11   -1    0    0    0    0  0.00000000000E+00  0.00000000000E+00  0.39999999674E+01  0.40000000000E+01  0.51100000000E-03 0.  1.
    9000002   -1    0    0    0    0 -0.00000000000E+00 -0.00000000000E+00  0.00000000000E+00  0.93800000000E+00  0.93800000000E+00 0. -1.
         11    1    1    2    0    0 -0.40113053543E-02 -0.21733330740E-01  0.23187523937E+00  0.23292663221E+00  0.51100000000E-03 0.  1.
    9000002    1    1    2    0    0  0.55861401695E-01  0.41693439470E+00  0.11971377652E+00  0.10349541893E+01  0.93800000000E+00 0. -1.
         22    1    1    2    0    0 -0.51850096341E-01 -0.39520106396E+00  0.36484109515E+01  0.36701191785E+01  0.00000000000E+00 0.  1.
</event>
<event>
 5    1  0.3005426E+001  0.1599674E+01  0.7818608E-02  0.3353718E+00
         11   -1    0    0    0    0  0.00000000000E+00  0.00000000000E+00  0.39999999674E+01  0.40000000000E+01  0.51100000000E-03 0. -1.
    9000002   -1    0    0    0    0 -0.00000000000E+00 -0.00000000000E+00  0.00000000000E+00  0.93800000000E+00  0.93800000000E+00 0.  1.
         11    1    1    2    0    0 -0.18469184290E-01 -0.30275057989E-01  0.31295731949E+00  0.31496068778E+00  0.51100000000E-03 0. -1.
    9000002    1    1    2    0    0  0.21717844421E+00  0.36763568958E+00  0.12342662296E+00  0.10379790981E+01  0.93800000000E+00 0.  1.
         22    1    1    2    0    0 -0.19870925992E+00 -0.33736063159E+00  0.35636160249E+01  0.35850602141E+01  0.00000000000E+00 0. -1.
</event>
<event>
 5    1  0.3005426E+001  0.1599675E+01  0.7818608E-02  0.3353716E+00
         11   -1    0    0    0    0  0.00000000000E+00  0.00000000000E+00  0.39999999674E+01  0.40000000000E+01  0.51100000000E-03 0. -1.
    9000002   -1    0    0    0    0 -0.00000000000E+00 -0.00000000000E+00  0.00000000000E+00  0.93800000000E+00  0.93800000000E+00 0.  1.
         11    1    1    2    0    0 -0.14277379685E+00  0.71037408595E-01  0.14192619296E+01  0.14281930389E+01  0.51100000000E-03 0. -1.
    9000002    1    1    2    0    0  0.38986903922E+00 -0.18977797859E+00  0.12739556818E+00  0.10411950728E+01  0.93800000000E+00 0.  1.
         22    1    1    2    0    0 -0.24709524237E+00  0.11874056999E+00  0.24533424696E+01  0.24686118883E+01  0.00000000000E+00 0. -1.
</event>
<event>
 5    1  0.3005426E+001  0.1556923E+01  0.7818608E-02  0.3401488E+00
         11   -1    0    0    0    0  0.00000000000E+00  0.00000000000E+00  0.39999999674E+01  0.40000000000E+01  0.51100000000E-03 0. -1.
    9000002   -1    0    0    0    0 -0.00000000000E+00 -0.00000000000E+00  0.00000000000E+00  0.93800000000E+00  0.93800000000E+00 0. -1.
         11    1    1    2    0    0 -0.10947128307E+00 -0.89023058449E-01  0.43446171869E+00  0.45680007978E+00  0.51100000000E-03 0. -1.
    9000002    1    1    2    0    0  0.61812445595E-01 -0.27218855706E+00  0.85758137623E-01  0.98239800854E+00  0.93800000000E+00 0. -1.
         22    1    1    2    0    0  0.47658837472E-01  0.36121161551E+00  0.34797801110E+01  0.34988019117E+01  0.00000000000E+00 0. -1.
</event>
<event>
 5    1  0.3005426E+001  0.1599677E+01  0.7818608E-02  0.3353715E+00
         11   -1    0    0    0    0  0.00000000000E+00  0.00000000000E+00  0.39999999674E+01  0.40000000000E+01  0.51100000000E-03 0.  1.
    9000002   -1    0    0    0    0 -0.00000000000E+00 -0.00000000000E+00  0.00000000000E+00  0.93800000000E+00  0.93800000000E+00 0. -1.
         11    1    1    2    0    0 -0.29803935342E-02  0.10650994387E+00  0.11422813291E+01  0.11472402307E+01  0.51100000000E-03 0.  1.
    9000002    1    1    2    0    0  0.11401081297E-01 -0.36256197210E+00  0.88353515151E-01  0.10095699638E+01  0.93800000000E+00 0. -1.
         22    1    1    2    0    0 -0.84206877629E-02  0.25605202822E+00  0.27693651231E+01  0.27811898055E+01  0.00000000000E+00 0.  1.
</event>
<event>
 5    1  0.3005426E+001  0.1599553E+01  0.7818608E-02  0.3353848E+00
         11   -1    0    0    0    0  0.00000000000E+00  0.00000000000E+00  0.39999999674E+01  0.40000000000E+01  0.51100000000E-03 0. -1.
    9000002   -1    0    0    0    0 -0.00000000000E+00 -0.00000000000E+00  0.00000000000E+00  0.93800000000E+00  0.93800000000E+00 0.  1.
         11    1    1    2    0    0  0.11059253507E+00  0.94671710115E-01  0.12809874880E+01  0.12892333563E+01  0.51100000000E-03 0. -1.
    9000002    1    1    2    0    0 -0.29829285051E+00 -0.29729290642E+00  0.12007357467E+00  0.10351924267E+01  0.93800000000E+00 0.  1.
         22    1    1    2    0    0  0.18770031543E+00  0.20262119630E+00  0.25989389047E+01  0.26135742171E+01  0.00000000000E+00 0. -1.
</event>
<event>
 5    1  0.3005426E+001  0.1599667E+01  0.7818608E-02  0.3353725E+00
         11   -1    0    0    0    0  0.00000000000E+00  0.00000000000E+00  0.39999999674E+01  0.40000000000E+01  0.51100000000E-03 0.  1.
    9000002   -1    0    0    0    0 -0.00000000000E+00 -0.00000000000E+00  0.00000000000E+00  0.93800000000E+00  0.93800000000E+00 0.  1.
         11    1    1    2    0    0  0.13722349889E-01 -0.11160934581E-01  0.13891973669E+00  0.14004222117E+00  0.51100000000E-03 0.  1.
    9000002    1    1    2    0    0 -0.35803610504E+00  0.28064738325E+00  0.14067050420E+00  0.10519434381E+01  0.93800000000E+00 0.  1.
         22    1    1    2    0    0  0.34431375515E+00 -0.26948644867E+00  0.37204097265E+01  0.37460143407E+01  0.00000000000E+00 0.  1.
</event>
<event>
 5    1  0.3005426E+001  0.1594407E+01  0.7818608E-02  0.3359456E+00
         11   -1    0    0    0    0  0.00000000000E+00  0.00000000000E+00  0.39999999674E+01  0.40000000000E+01  0.51100000000E-03 0.  1.
    9000002   -1    0    0    0    0 -0.00000000000E+00 -0.00000000000E+00  0.00000000000E+00  0.93800000000E+00  0.93800000000E+00 0. -1.
         11    1    1    2    0    0  0.25725292570E-01  0.77922317921E-01  0.74028904734E+00  0.74482334352E+00  0.51100000000E-03 0.  1.
    9000002    1    1    2    0    0  0.19443746548E+00 -0.26518504706E+00  0.76540255645E-01  0.99691095284E+00  0.93800000000E+00 0. -1.
         22    1    1    2    0    0 -0.22016275805E+00  0.18726272914E+00  0.31831706644E+01  0.31962657036E+01  0.00000000000E+00 0.  1.
</event>
<event>
 5    1  0.3005426E+001  0.1599673E+01  0.7818608E-02  0.3353718E+00
         11   -1    0    0    0    0  0.00000000000E+00  0.00000000000E+00  0.39999999674E+01  0.40000000000E+01  0.51100000000E-03 0. -1.
    9000002   -1    0    0    0    0 -0.00000000000E+00 -0.00000000000E+00  0.00000000000E+00  0.93800000000E+00  0.93800000000E+00 0.  1.
         11    1    1    2    0    0  0.77182118465E-01 -0.54455966402E-01  0.87880286988E+00  0.88386496532E+00  0.51100000000E-03 0. -1.
    9000002    1    1    2    0    0 -0.33621648181E+00  0.24739400519E+00  0.11780484380E+00  0.10334250324E+01  0.93800000000E+00 0.  1.
         22    1    1    2    0    0  0.25903436335E+00 -0.19293803879E+00  0.30033922537E+01  0.30207100022E+01  0.00000000000E+00 0. -1.
</event>
<event>
 5    1  0.3005426E+001  0.1599675E+01  0.7818608E-02  0.3353716E+00
         11   -1    0    0    0    0  0.00000000000E+00  0.00000000000E+00  0.39999999674E+01  0.40000000000E+01  0.51100000000E-03 0. -1.
    9000002   -1    0    0    0    0 -0.00000000000E+00 -0.00000000000E+00  0.00000000000E+00  0.93800000000E+00  0.93800000000E+00 0.  1.
         11    1    1    2    0    0  0.80003822973E-01  0.84791578493E-01  0.36980151623E+00  0.38774172589E+00  0.51100000000E-03 0.  1.
    9000002    1    1    2    0    0 -0.68363046386E+00 -0.73771282945E+00  0.81650692266E+00  0.15994056348E+01  0.93800000000E+00 0. -1.
         22    1    1    2    0    0  0.60362664088E+00  0.65292125096E+00  0.28136915285E+01  0.29508526393E+01  0.00000000000E+00 0. -1.
</event>
<event>
 5    1  0.3005426E+001  0.1599669E+01  0.7818608E-02  0.3353722E+00
         11   -1    0    0    0    0  0.00000000000E+00  0.00000000000E+00  0.39999999674E+01  0.40000000000E+01  0.51100000000E-03 0.  1.
    9000002   -1    0    0    0    0 -0.00000000000E+00 -0.00000000000E+00  0.00000000000E+00  0.93800000000E+00  0.93800000000E+00 0. -1.
         11    1    1    2    0    0 -0.11433307199E-01  0.33207727840E-01  0.30379285025E+00  0.30581666188E+00  0.51100000000E-03 0.  1.
    9000002    1    1    2    0    0  0.16715882472E+00 -0.41942906663E+00  0.13849789410E+00  0.10501849748E+01  0.93800000000E+00 0. -1.
         22    1    1    2    0    0 -0.15572551752E+00  0.38622133879E+00  0.35577092230E+01  0.35819983633E+01  0.00000000000E+00 0.  1.
</event>
<event>
 5    1  0.3005426E+001  0.1599491E+01  0.7818608E-02  0.3353916E+00
         11   -1    0    0    0    0  0.00000000000E+00  0.00000000000E+00  0.39999999674E+01  0.40000000000E+01  0.51100000000E-03 0.  1.
    9000002   -1    0    0    0    0 -0.00000000000E+00 -0.00000000000E+00  0.00000000000E+00  0.93800000000E+00  0.93800000000E+00 0.  1.
         11    1    1    2    0    0  0.18710266433E-01  0.15767358589E+00  0.94766833570E+00  0.96087802002E+00  0.51100000000E-03 0.  1.
    9000002    1    1    2    0    0 -0.90450372952E-01 -0.66580790908E+00  0.32051116669E+00  0.11975194569E+01  0.93800000000E+00 0.  1.
         22    1    1    2    0    0  0.71740106520E-01  0.50813432319E+00  0.27318204650E+01  0.27796025230E+01  0.00000000000E+00 0.  1.
</event>
<event>
 5    1  0.3005426E+001  0.1599675E+01  0.7818608E-02  0.3353717E+00
         11   -1    0    0    0    0  0.00000000000E+00  0.00000000000E+00  0.39999999674E+01  0.40000000000E+01  0.51100000000E-03 0. -1.
    9000002   -1    0    0    0    0 -0.00000000000E+00 -0.00000000000E+00  0.00000000000E+00  0.93800000000E+00  0.93800000000E+00 0. -1.
         11    1    1    2    0    0  0.53012903199E-01  0.61920498120E-01  0.87576340842E+00  0.87954893249E+00  0.51100000000E-03 0. -1.
    9000002    1    1    2    0    0 -0.23006043176E+00 -0.27700559463E+00  0.87038535315E-01  0.10085036482E+01  0.93800000000E+00 0. -1.
         22    1    1    2    0    0  0.17704752856E+00  0.21508509651E+00  0.30371980236E+01  0.30499474194E+01  0.00000000000E+00 0. -1.
</event>
<event>
 5    1  0.3005426E+001  0.1466209E+01  0.7818608E-02  0.3512739E+00
         11   -1    0    0    0    0  0.00000000000E+00  0.00000000000E+00  0.39999999674E+01  0.40000000000E+01  0.51100000000E-03 0.  1.
    9000002   -1    0    0    0    0 -0.00000000000E+00 -0.00000000000E+00  0.00000000000E+00  0.93800000000E+00  0.93800000000E+00 0. -1.
         11    1    1    2    0    0  0.39460660911E-02  0.15171593909E+00  0.39225768217E-01  0.15675528580E+00  0.51100000000E-03 0.  1.
    9000002    1    1    2    0    0  0.19886148995E+00  0.15234952954E+00  0.18564730827E+00  0.98846608157E+00  0.93800000000E+00 0. -1.
         22    1    1    2    0    0 -0.20280755605E+00 -0.30406546864E+00  0.37751268909E+01  0.37927786326E+01  0.00000000000E+00 0.  1.
</event>
<event>
 5    1  0.3005426E+001  0.1599009E+01  0.7818608E-02  0.3354440E+00
         11   -1    0    0    0    0  0.00000000000E+00  0.00000000000E+00  0.39999999674E+01  0.40000000000E+01  0.51100000000E-03 0. -1.
    9000002   -1    0    0    0    0 -0.00000000000E+00 -0.00000000000E+00  0.00000000000E+00  0.93800000000E+00  0.93800000000E+00 0.  1.
         11    1    1    2    0    0 -0.21019207003E+00  0.82641524508E-01  0.14026741257E+01  0.14207411066E+01  0.51100000000E-03 0. -1.
    9000002    1    1    2    0    0  0.57150338285E+00 -0.14123194321E+00  0.24187652679E+00  0.11335390741E+01  0.93800000000E+00 0.  1.
         22    1    1    2    0    0 -0.36131131281E+00  0.58590418703E-01  0.23554493149E+01  0.23837198193E+01  0.00000000000E+00 0. -1.
</event>
<event>
 5    1  0.3184697E+001  0.1592561E+01  0.7818608E-02  0.3361478E+00
         11   -1    0    0    0    0  0.00000000000E+00  0.00000000000E+00  0.39999999674E+01  0.40000000000E+01  0.51100000000E-03 0.  1.
    9000002   -1    0    0    0    0 -0.00000000000E+00 -0.00000000000E+00  0.00000000000E+00  0.93800000000E+00  0.93800000000E+00 0.  1.
         11    1    1    2    0    0 -0.38097020450E-02  0.70977433033E-02  0.14151992559E+01  0.14152222747E+01  0.51100000000E-03 0.  1.
    9000002    1    1    2    0    0 -0.23764098659E+00  0.91500254711E-01  0.48561105356E-01  0.97316376632E+00  0.93800000000E+00 0.  1.
         22    1    1    2    0    0  0.24145068864E+00 -0.98597998015E-01  0.25362396061E+01  0.25496139589E+01  0.00000000000E+00 0.  1.
</event>
<event>
 5    1  0.3005426E+001  0.1599673E+01  0.7818608E-02  0.3353718E+00
         11   -1    0    0    0    0  0.00000000000E+00  0.00000000000E+00  0.39999999674E+01  0.40000000000E+01  0.51100000000E-03 0. -1.
    9000002   -1    0    0    0    0 -0.00000000000E+00 -0.00000000000E+00  0.00000000000E+00  0.93800000000E+00  0.93800000000E+00 0. -1.
         11    1    1    2    0    0  0.65476682701E-02 -0.28595851769E-01  0.14794268498E+00  0.15082404933E+00  0.51100000000E-03 0. -1.
    9000002    1    1    2    0    0 -0.14416969784E+00  0.71083678458E+00  0.37862059668E+00  0.12446973095E+01  0.93800000000E+00 0. -1.
         22    1    1    2    0    0  0.13762202957E+00 -0.68224093281E+00  0.34734366857E+01  0.35424786412E+01  0.00000000000E+00 0. -1.
</event>
<event>
 5    1  0.3005426E+001  0.1599150E+01  0.7818608E-02  0.3354287E+00
         11   -1    0    0    0    0  0.00000000000E+00  0.00000000000E+00  0.39999999674E+01  0.40000000000E+01  0.51100000000E-03 0. -1.
    9000002   -1    0    0    0    0 -0.00000000000E+00 -0.00000000000E+00  0.00000000000E+00  0.93800000000E+00  0.93800000000E+00 0.  1.
         11    1    1    2    0    0  0.81923784830E-01 -0.68598054490E-01  0.84293217168E+00  0.84967764874E+00  0.51100000000E-03 0. -1.
    9000002    1    1    2    0    0 -0.30204725698E+00  0.38850853240E+00  0.16603428549E+00  0.10721859956E+01  0.93800000000E+00 0.  1.
         22    1    1    2    0    0  0.22012347215E+00 -0.31991047791E+00  0.29910335102E+01  0.30161363557E+01  0.00000000000E+00 0. -1.
</event>
<event>
 5    1  0.3005426E+001  0.1560120E+01  0.7818608E-02  0.3397819E+00
         11   -1    0    0    0    0  0.00000000000E+00  0.00000000000E+00  0.39999999674E+01  0.40000000000E+01  0.51100000000E-03 0.  1.
    9000002   -1    0    0    0    0 -0.00000000000E+00 -0.00000000000E+00  0.00000000000E+00  0.93800000000E+00  0.93800000000E+00 0.  1.
         11    1    1    2    0    0  0.81310404897E-01  0.10195711928E-01  0.14258698516E+00  0.16445863901E+00  0.51100000000E-03 0.  1.
    9000002    1    1    2    0    0  0.23908300781E+00  0.26408652650E+00  0.11784449142E+00  0.10102641745E+01  0.93800000000E+00 0.  1.
         22    1    1    2    0    0 -0.32039341271E+00 -0.27428223843E+00  0.37395684908E+01  0.37632771865E+01  0.00000000000E+00 0.  1.
</event>
<event>
 5    1  0.3005426E+001  0.1563986E+01  0.7818608E-02  0.3393404E+00
         11   -1    0    0    0    0  0.00000000000E+00  0.00000000000E+00  0.39999999674E+01  0.40000000000E+01  0.51100000000E-03 0. -1.
    9000002   -1    0    0    0    0 -0.00000000000E+00 -0.00000000000E+00  0.00000000000E+00  0.93800000000E+00  0.93800000000E+00 0. -1.
         11    1    1    2    0    0 -0.30678833581E-01  0.86607026043E-01  0.10968932872E+01  0.11007348057E+01  0.51100000000E-03 0. -1.
    9000002    1    1    2    0    0  0.92320498963E-01  0.41682689829E+00  0.15432037452E+00  0.10420779796E+01  0.93800000000E+00 0. -1.
         22    1    1    2    0    0 -0.61641665381E-01 -0.50343392433E+00  0.27487863057E+01  0.27951872147E+01  0.00000000000E+00 0. -1.
</event>
<event>
 5    1  0.3005426E+001  0.1535201E+01  0.7818608E-02  0.3426843E+00
         11   -1    0    0    0    0  0.00000000000E+00  0.00000000000E+00  0.39999999674E+01  0.40000000000E+01  0.51100000000E-03 0.  1.
    9000002   -1    0    0    0    0 -0.00000000000E+00 -0.00000000000E+00  0.00000000000E+00  0.93800000000E+00  0.93800000000E+00 0. -1.
         11    1    1    2    0    0 -0.12650298415E+00 -0.12909770339E+00  0.44000920220E+00  0.47568643155E+00  0.51100000000E-03 0.  1.
    9000002    1    1    2    0    0 -0.11062154493E-01 -0.16222035788E+00  0.66833434549E-01  0.95433145382E+00  0.93800000000E+00 0. -1.
         22    1    1    2    0    0  0.13756513864E+00  0.29131806126E+00  0.34931573306E+01  0.35079821146E+01  0.00000000000E+00 0.  1.
</event>
<event>
 5    1  0.3005426E+001  0.1599677E+01  0.7818608E-02  0.3353714E+00
         11   -1    0    0    0    0  0.00000000000E+00  0.00000000000E+00  0.39999999674E+01  0.40000000000E+01  0.51100000000E-03 0. -1.
    9000002   -1    0    0    0    0 -0.00000000000E+00 -0.00000000000E+00  0.00000000000E+00  0.93800000000E+00  0.93800000000E+00 0. -1.
         11    1    1    2    0    0 -0.18572264183E+00  0.80941289279E-01  0.13064060556E+01  0.13220217227E+01  0.51100000000E-03 0. -1.
    9000002    1    1    2    0    0  0.53536980829E+00 -0.23175219669E+00  0.23662206927E+00  0.11296742521E+01  0.93800000000E+00 0. -1.
         22    1    1    2    0    0 -0.34964716646E+00  0.15081090741E+00  0.24569718425E+01  0.24863040251E+01  0.00000000000E+00 0. -1.
</event>
<event>
 5    1  0.3005426E+001  0.1599396E+01  0.7818608E-02  0.3354019E+00
         11   -1    0    0    0    0  0.00000000000E+00  0.00000000000E+00  0.39999999674E+01  0.40000000000E+01  0.51100000000E-03 0.  1.
    9000002   -1    0    0    0    0 -0.00000000000E+00 -0.00000000000E+00  0.00000000000E+00  0.93800000000E+00  0.93800000000E+00 0.  1.
         11    1    1    2    0    0 -0.64251486967E-01 -0.69524993421E-01  0.55959767163E+00  0.56754893490E+00  0.51100000000E-03 0.  1.
    9000002    1    1    2    0    0  0.34017301999E+00  0.44448646992E+00  0.21705901394E+00  0.11136626603E+01  0.93800000000E+00 0.  1.
         22    1    1    2    0    0 -0.27592153302E+00 -0.37496147650E+00  0.32233432818E+01  0.32567884048E+01  0.00000000000E+00 0.  1.
</event>
