<event>
 5    1  0.8240609E+001  0.1599265E+01  0.7818608E-02  0.3354161E+00
         11   -1    0    0    0    0  0.00000000000E+00  0.00000000000E+00  0.39999999674E+01  0.40000000000E+01  0.51100000000E-03 0. -1.
    9000002   -1    0    0    0    0 -0.00000000000E+00 -0.00000000000E+00  0.00000000000E+00  0.93800000000E+00  0.93800000000E+00 0. -1.
         11    1    1    2    0    0  0.10547993506E+00  0.52176159563E-01  0.12135902390E+01  0.12192825340E+01  0.51100000000E-03 0. -1.
    9000002    1    1    2    0    0 -0.37201476186E+00 -0.10299299557E+00  0.10066770691E+00  0.10193039426E+01  0.93800000000E+00 0. -1.
         22    1    1    2    0    0  0.26653482680E+00  0.50816836009E-01  0.26857420215E+01  0.26994135234E+01  0.00000000000E+00 0. -1.
</event>
<event>
 5    1  0.8240609E+001  0.1559447E+01  0.7818608E-02  0.3398590E+00
         11   -1    0    0    0    0  0.00000000000E+00  0.00000000000E+00  0.39999999674E+01  0.40000000000E+01  0.51100000000E-03 0.  1.
    9000002   -1    0    0    0    0 -0.00000000000E+00 -0.00000000000E+00  0.00000000000E+00  0.93800000000E+00  0.93800000000E+00 0.  1.
         11    1    1    2    0    0 -0.12986104730E-01 -0.13699646321E+00  0.58077347524E+00  0.59685405294E+00  0.51100000000E-03 0.  1.
    9000002    1    1    2    0    0  0.41785992811E+00 -0.19029517814E+00  0.17926401554E+00  0.10596219900E+01  0.93800000000E+00 0.  1.
         22    1    1    2    0    0 -0.40487382338E+00  0.32729164135E+00  0.32399624766E+01  0.32815239571E+01  0.00000000000E+00 0.  1.
</event>
<event>
 5    1  0.8240609E+001  0.1599000E+01  0.7818608E-02  0.3354449E+00
         11   -1    0    0    0    0  0.00000000000E+00  0.00000000000E+00  0.39999999674E+01  0.40000000000E+01  0.51100000000E-03 0.  1.
    9000002   -1    0    0    0    0 -0.00000000000E+00 -0.00000000000E+00  0.00000000000E+00  0.93800000000E+00  0.93800000000E+00 0. -1.
         11    1    1    2    0    0 -0.42942258131E-01 -0.90702995433E-01  0.39843833586E+00  0.41088251303E+00  0.51100000000E-03 0.  1.
    9000002    1    1    2    0    0  0.22939947203E+00  0.87476741089E+00  0.62823410479E+00  0.14465006849E+01  0.93800000000E+00 0. -1.
         22    1    1    2    0    0 -0.18645721390E+00 -0.78406441546E+00  0.29733275267E+01  0.30806168021E+01  0.00000000000E+00 0.  1.
</event>
<event>
 5    1  0.8240609E+001  0.1594787E+01  0.7818608E-02  0.3359041E+00
         11   -1    0    0    0    0  0.00000000000E+00  0.00000000000E+00  0.39999999674E+01  0.40000000000E+01  0.51100000000E-03 0. -1.
    9000002   -1    0    0    0    0 -0.00000000000E+00 -0.00000000000E+00  0.00000000000E+00  0.93800000000E+00  0.93800000000E+00 0. -1.
         11    1    1    2    0    0 -0.14630537597E+00 -0.11130738209E+00  0.13563257745E+01  0.13687273154E+01  0.51100000000E-03 0. -1.
    9000002    1    1    2    0    0  0.46350654613E+00  0.92839159581E-01  0.15660814647E+00  0.10619922502E+01  0.93800000000E+00 0. -1.
         22    1    1    2    0    0 -0.31720117017E+00  0.18468222513E-01  0.24870660464E+01  0.25072804344E+01  0.00000000000E+00 0. -1.
</event>
<event>
 5    1  0.8240609E+001  0.1571866E+01  0.7818608E-02  0.3384477E+00
         11   -1    0    0    0    0  0.00000000000E+00  0.00000000000E+00  0.39999999674E+01  0.40000000000E+01  0.51100000000E-03 0.  1.
    9000002   -1    0    0    0    0 -0.00000000000E+00 -0.00000000000E+00  0.00000000000E+00  0.93800000000E+00  0.93800000000E+00 0.  1.
         11    1    1    2    0    0  0.99017253719E-02 -0.14890991896E+00  0.14437690113E+01  0.14514618242E+01  0.51100000000E-03 0.  1.
    9000002    1    1    2    0    0  0.50231575425E-01 -0.11570651745E+00  0.31189672825E-01  0.94695723506E+00  0.93800000000E+00 0.  1.
         22    1    1    2    0    0 -0.60133300797E-01  0.26461643641E+00  0.25250412833E+01  0.25395809407E+01  0.00000000000E+00 0.  1.
</event>
<event>
 5    1  0.8240609E+001  0.1598714E+01  0.7818608E-02  0.3354761E+00
         11   -1    0    0    0    0  0.00000000000E+00  0.00000000000E+00  0.39999999674E+01  0.40000000000E+01  0.51100000000E-03 0. -1.
    9000002   -1    0    0    0    0 -0.00000000000E+00 -0.00000000000E+00  0.00000000000E+00  0.93800000000E+00  0.93800000000E+00 0. -1.
         11    1    1    2    0    0  0.17978612039E+00  0.24691009519E+00  0.71930182277E+00  0.78146210244E+00  0.51100000000E-03 0. -1.
    9000002    1    1    2    0    0 -0.57972073182E+00 -0.97998942488E+00  0.11578449213E+01  0.18753411054E+01  0.93800000000E+00 0. -1.
         22    1    1    2    0    0  0.39993461143E+00  0.73307932969E+00  0.21228532233E+01  0.22811967922E+01  0.00000000000E+00 0. -1.
</event>
<event>
 5    1  0.8240609E+001  0.1576429E+01  0.7818608E-02  0.3379351E+00
         11   -1    0    0    0    0  0.00000000000E+00  0.00000000000E+00  0.39999999674E+01  0.40000000000E+01  0.51100000000E-03 0.  1.
    9000002   -1    0    0    0    0 -0.00000000000E+00 -0.00000000000E+00  0.00000000000E+00  0.93800000000E+00  0.93800000000E+00 0. -1.
         11    1    1    2    0    0 -0.81509026478E-01 -0.94635723675E-01  0.78089546580E+00  0.79082085913E+00  0.51100000000E-03 0.  1.
    9000002    1    1    2    0    0 -0.26380461697E+00  0.17684545925E+00  0.86005402979E-01  0.99403627788E+00  0.93800000000E+00 0. -1.
         22    1    1    2    0    0  0.34531364345E+00 -0.82209735571E-01  0.31330990986E+01  0.31531428630E+01  0.00000000000E+00 0.  1.
</event>
<event>
 5    1  0.8240609E+001  0.1533661E+01  0.7818608E-02  0.3428670E+00
         11   -1    0    0    0    0  0.00000000000E+00  0.00000000000E+00  0.39999999674E+01  0.40000000000E+01  0.51100000000E-03 0.  1.
    9000002   -1    0    0    0    0 -0.00000000000E+00 -0.00000000000E+00  0.00000000000E+00  0.93800000000E+00  0.93800000000E+00 0. -1.
         11    1    1    2    0    0 -0.28758188956E+00  0.14575500604E+00  0.12206709027E+01  0.12625314169E+01  0.51100000000E-03 0.  1.
    9000002    1    1    2    0    0  0.20987303732E+00  0.11837541052E+00  0.90603370204E-01  0.97268309346E+00  0.93800000000E+00 0. -1.
         22    1    1    2    0    0  0.77708852235E-01 -0.26413041655E+00  0.26887256945E+01  0.27027854896E+01  0.00000000000E+00 0.  1.
</event>
<event>
 5    1  0.8240609E+001  0.1599669E+01  0.7818608E-02  0.3353723E+00
         11   -1    0    0    0    0  0.00000000000E+00  0.00000000000E+00  0.39999999674E+01  0.40000000000E+01  0.51100000000E-03 0. -1.
    9000002   -1    0    0    0    0 -0.00000000000E+00 -0.00000000000E+00  0.00000000000E+00  0.93800000000E+00  0.93800000000E+00 0.  1.
         11    1    1    2    0    0  0.13010579034E+00  0.28530503346E-01  0.10354114355E+01  0.10439437764E+01  0.51100000000E-03 0. -1.
    9000002    1    1    2    0    0 -0.47529968056E+00 -0.97230609437E-01  0.16073264583E+00  0.10681959376E+01  0.93800000000E+00 0.  1.
         22    1    1    2    0    0  0.34519389022E+00  0.68700106091E-01  0.28038558860E+01  0.28258602860E+01  0.00000000000E+00 0. -1.
</event>
<event>
 5    1  0.8240609E+001  0.1556401E+01  0.7818608E-02  0.3402088E+00
         11   -1    0    0    0    0  0.00000000000E+00  0.00000000000E+00  0.39999999674E+01  0.40000000000E+01  0.51100000000E-03 0. -1.
    9000002   -1    0    0    0    0 -0.00000000000E+00 -0.00000000000E+00  0.00000000000E+00  0.93800000000E+00  0.93800000000E+00 0. -1.
         11    1    1    2    0    0  0.14308282866E+00 -0.28057115920E-01  0.82491106634E+00  0.83769829061E+00  0.51100000000E-03 0. -1.
    9000002    1    1    2    0    0  0.54125989879E-01 -0.49923866327E+00  0.21285115568E+00  0.10850430776E+01  0.93800000000E+00 0. -1.
         22    1    1    2    0    0 -0.19720881854E+00  0.52729577919E+00  0.29622377453E+01  0.30152586318E+01  0.00000000000E+00 0. -1.
</event>
<event>
 5    1  0.8240609E+001  0.1598917E+01  0.7818608E-02  0.3354540E+00
         11   -1    0    0    0    0  0.00000000000E+00  0.00000000000E+00  0.39999999674E+01  0.40000000000E+01  0.51100000000E-03 0. -1.
    9000002   -1    0    0    0    0 -0.00000000000E+00 -0.00000000000E+00  0.00000000000E+00  0.93800000000E+00  0.93800000000E+00 0.  1.
         11    1    1    2    0    0 -0.78587719824E-01  0.12859346703E+00  0.97205595369E+00  0.98366932843E+00  0.51100000000E-03 0. -1.
    9000002    1    1    2    0    0  0.20321842347E+00 -0.46312593406E+00  0.17595675165E+00  0.10800870969E+01  0.93800000000E+00 0.  1.
         22    1    1    2    0    0 -0.12463070364E+00  0.33453246703E+00  0.28519872620E+01  0.28742435747E+01  0.00000000000E+00 0. -1.
</event>
<event>
 5    1  0.8240609E+001  0.1557527E+01  0.7818608E-02  0.3400793E+00
         11   -1    0    0    0    0  0.00000000000E+00  0.00000000000E+00  0.39999999674E+01  0.40000000000E+01  0.51100000000E-03 0. -1.
    9000002   -1    0    0    0    0 -0.00000000000E+00 -0.00000000000E+00  0.00000000000E+00  0.93800000000E+00  0.93800000000E+00 0. -1.
         11    1    1    2    0    0 -0.39583200195E-01 -0.19685551098E+00  0.10861802519E+01  0.11045844118E+01  0.51100000000E-03 0. -1.
    9000002    1    1    2    0    0  0.10499379195E+00 -0.85847173915E-01  0.43801111474E-01  0.94876549842E+00  0.93800000000E+00 0. -1.
         22    1    1    2    0    0 -0.65410591752E-01  0.28270268490E+00  0.28700186040E+01  0.28846500898E+01  0.00000000000E+00 0. -1.
</event>
<event>
 5    1  0.8240609E+001  0.1598557E+01  0.7818608E-02  0.3354931E+00
         11   -1    0    0    0    0  0.00000000000E+00  0.00000000000E+00  0.39999999674E+01  0.40000000000E+01  0.51100000000E-03 0. -1.
    9000002   -1    0    0    0    0 -0.00000000000E+00 -0.00000000000E+00  0.00000000000E+00  0.93800000000E+00  0.93800000000E+00 0. -1.
         11    1    1    2    0    0 -0.53305594825E-01 -0.17641071072E-01  0.66223810089E+00  0.66461436730E+00  0.51100000000E-03 0. -1.
    9000002    1    1    2    0    0  0.38019524271E+00 -0.61466165999E-01  0.10078554907E+00  0.10189839248E+01  0.93800000000E+00 0. -1.
         22    1    1    2    0    0 -0.32688964788E+00  0.79107237072E-01  0.32369763174E+01  0.32544017079E+01  0.00000000000E+00 0. -1.
</event>
<event>
 5    1  0.8240609E+001  0.1595240E+01  0.7818608E-02  0.3358545E+00
         11   -1    0    0    0    0  0.00000000000E+00  0.00000000000E+00  0.39999999674E+01  0.40000000000E+01  0.51100000000E-03 0. -1.
    9000002   -1    0    0    0    0 -0.00000000000E+00 -0.00000000000E+00  0.00000000000E+00  0.93800000000E+00  0.93800000000E+00 0.  1.
         11    1    1    2    0    0 -0.13238293440E-01  0.11015370409E+00  0.13074797065E+01  0.13121785454E+01  0.51100000000E-03 0. -1.
    9000002    1    1    2    0    0 -0.18375449758E+00 -0.29290775685E+00  0.83701124459E-01  0.10032001533E+01  0.93800000000E+00 0.  1.
         22    1    1    2    0    0  0.19699279102E+00  0.18275405276E+00  0.26088191364E+01  0.26226213013E+01  0.00000000000E+00 0. -1.
</event>
<event>
 5    1  0.8240609E+001  0.1599645E+01  0.7818608E-02  0.3353749E+00
         11   -1    0    0    0    0  0.00000000000E+00  0.00000000000E+00  0.39999999674E+01  0.40000000000E+01  0.51100000000E-03 0. -1.
    9000002   -1    0    0    0    0 -0.00000000000E+00 -0.00000000000E+00  0.00000000000E+00  0.93800000000E+00  0.93800000000E+00 0. -1.
         11    1    1    2    0    0 -0.17287524710E-01  0.30704847118E-02  0.13087983917E+00  0.13205332184E+00  0.51100000000E-03 0.  1.
    9000002    1    1    2    0    0  0.44219557175E+00 -0.66920300662E-01  0.13581978245E+00  0.10480010800E+01  0.93800000000E+00 0. -1.
         22    1    1    2    0    0 -0.42490804704E+00  0.63849815950E-01  0.37333003457E+01  0.37579455982E+01  0.00000000000E+00 0. -1.
</event>
<event>
 5    1  0.8240609E+001  0.1599677E+01  0.7818608E-02  0.3353714E+00
         11   -1    0    0    0    0  0.00000000000E+00  0.00000000000E+00  0.39999999674E+01  0.40000000000E+01  0.51100000000E-03 0.  1.
    9000002   -1    0    0    0    0 -0.00000000000E+00 -0.00000000000E+00  0.00000000000E+00  0.93800000000E+00  0.93800000000E+00 0.  1.
         11    1    1    2    0    0  0.95279443483E-01  0.94469868194E-01  0.12751897957E+01  0.12822293105E+01  0.51100000000E-03 0.  1.
    9000002    1    1    2    0    0 -0.28920107088E+00 -0.28815826883E+00  0.11254464659E+00  0.10291660433E+01  0.93800000000E+00 0.  1.
         22    1    1    2    0    0  0.19392162740E+00  0.19368840064E+00  0.26122655250E+01  0.26266046462E+01  0.00000000000E+00 0. -1.
</event>
<event>
 5    1  0.8240609E+001  0.1599677E+01  0.7818608E-02  0.3353714E+00
         11   -1    0    0    0    0  0.00000000000E+00  0.00000000000E+00  0.39999999674E+01  0.40000000000E+01  0.51100000000E-03 0.  1.
    9000002   -1    0    0    0    0 -0.00000000000E+00 -0.00000000000E+00  0.00000000000E+00  0.93800000000E+00  0.93800000000E+00 0. -1.
         11    1    1    2    0    0 -0.83763558354E-01  0.47863399457E-01  0.84173686285E+00  0.84724757073E+00  0.51100000000E-03 0. -1.
    9000002    1    1    2    0    0  0.38435458601E+00 -0.22066520166E+00  0.13327393345E+00  0.10459577049E+01  0.93800000000E+00 0. -1.
         22    1    1    2    0    0 -0.30059102766E+00  0.17280180220E+00  0.30249891711E+01  0.30447947244E+01  0.00000000000E+00 0.  1.
</event>
<event>
 5    1  0.8240609E+001  0.1599494E+01  0.7818608E-02  0.3353913E+00
         11   -1    0    0    0    0  0.00000000000E+00  0.00000000000E+00  0.39999999674E+01  0.40000000000E+01  0.51100000000E-03 0. -1.
    9000002   -1    0    0    0    0 -0.00000000000E+00 -0.00000000000E+00  0.00000000000E+00  0.93800000000E+00  0.93800000000E+00 0. -1.
         11    1    1    2    0    0  0.23737841639E-01  0.15312375247E-01  0.21348975886E+00  0.21535109059E+00  0.51100000000E-03 0. -1.
    9000002    1    1    2    0    0 -0.29790492645E+00 -0.29947880472E+00  0.12087087631E+00  0.10358033927E+01  0.93800000000E+00 0. -1.
         22    1    1    2    0    0  0.27416708481E+00  0.28416642947E+00  0.36656393322E+01  0.36868455167E+01  0.00000000000E+00 0. -1.
</event>
<event>
 5    1  0.8240609E+001  0.1599570E+01  0.7818608E-02  0.3353830E+00
         11   -1    0    0    0    0  0.00000000000E+00  0.00000000000E+00  0.39999999674E+01  0.40000000000E+01  0.51100000000E-03 0. -1.
    9000002   -1    0    0    0    0 -0.00000000000E+00 -0.00000000000E+00  0.00000000000E+00  0.93800000000E+00  0.93800000000E+00 0. -1.
         11    1    1    2    0    0  0.81025515096E-01  0.42706152948E-01  0.11019639928E+01  0.11057639224E+01  0.51100000000E-03 0. -1.
    9000002    1    1    2    0    0 -0.32741087197E+00 -0.15353617502E+00  0.87884502765E-01  0.10091278026E+01  0.93800000000E+00 0. -1.
         22    1    1    2    0    0  0.24638535687E+00  0.11083002207E+00  0.28101514718E+01  0.28231082750E+01  0.00000000000E+00 0. -1.
</event>
<event>
 5    1  0.8240609E+001  0.1539072E+01  0.7818608E-02  0.3422268E+00
         11   -1    0    0    0    0  0.00000000000E+00  0.00000000000E+00  0.39999999674E+01  0.40000000000E+01  0.51100000000E-03 0. -1.
    9000002   -1    0    0    0    0 -0.00000000000E+00 -0.00000000000E+00  0.00000000000E+00  0.93800000000E+00  0.93800000000E+00 0. -1.
         11    1    1    2    0    0  0.26302583247E+00 -0.11128838980E+00  0.11373615865E+01  0.11726718781E+01  0.51100000000E-03 0. -1.
    9000002    1    1    2    0    0  0.24709539228E-01  0.34575937360E+00  0.13095135311E+00  0.10085397179E+01  0.93800000000E+00 0. -1.
         22    1    1    2    0    0 -0.28773537170E+00 -0.23447098381E+00  0.27316870278E+01  0.27567884039E+01  0.00000000000E+00 0. -1.
</event>
<event>
 5    1  0.8240609E+001  0.1588054E+01  0.7818608E-02  0.3366432E+00
         11   -1    0    0    0    0  0.00000000000E+00  0.00000000000E+00  0.39999999674E+01  0.40000000000E+01  0.51100000000E-03 0.  1.
    9000002   -1    0    0    0    0 -0.00000000000E+00 -0.00000000000E+00  0.00000000000E+00  0.93800000000E+00  0.93800000000E+00 0.  1.
         11    1    1    2    0    0 -0.91545931610E-01  0.69847507945E-01  0.84265647588E+00  0.85048781851E+00  0.51100000000E-03 0.  1.
    9000002    1    1    2    0    0  0.58426574209E+00  0.13733217319E+00  0.26298919277E+00  0.11442175924E+01  0.93800000000E+00 0.  1.
         22    1    1    2    0    0 -0.49271981048E+00 -0.20717968113E+00  0.28943542987E+01  0.29432945891E+01  0.00000000000E+00 0.  1.
</event>
<event>
 5    1  0.8240609E+001  0.1565542E+01  0.7818608E-02  0.3391633E+00
         11   -1    0    0    0    0  0.00000000000E+00  0.00000000000E+00  0.39999999674E+01  0.40000000000E+01  0.51100000000E-03 0.  1.
    9000002   -1    0    0    0    0 -0.00000000000E+00 -0.00000000000E+00  0.00000000000E+00  0.93800000000E+00  0.93800000000E+00 0. -1.
         11    1    1    2    0    0  0.77791195660E-01  0.25688221617E+00  0.79660006163E+00  0.84060208328E+00  0.51100000000E-03 0.  1.
    9000002    1    1    2    0    0 -0.34234562526E+00 -0.35002465320E+00  0.19495079752E+00  0.10759031548E+01  0.93800000000E+00 0. -1.
         22    1    1    2    0    0  0.26455442960E+00  0.93142437032E-01  0.30084491082E+01  0.30214947620E+01  0.00000000000E+00 0.  1.
</event>
<event>
 5    1  0.8240609E+001  0.1549310E+01  0.7818608E-02  0.3410288E+00
         11   -1    0    0    0    0  0.00000000000E+00  0.00000000000E+00  0.39999999674E+01  0.40000000000E+01  0.51100000000E-03 0.  1.
    9000002   -1    0    0    0    0 -0.00000000000E+00 -0.00000000000E+00  0.00000000000E+00  0.93800000000E+00  0.93800000000E+00 0. -1.
         11    1    1    2    0    0  0.21144238979E+00 -0.34068420407E-02  0.10601543888E+01  0.10810398143E+01  0.51100000000E-03 0.  1.
    9000002    1    1    2    0    0  0.94245000938E-01 -0.12450409158E+00  0.54308312770E-01  0.95245828353E+00  0.93800000000E+00 0. -1.
         22    1    1    2    0    0 -0.30568739072E+00  0.12791093362E+00  0.28855372658E+01  0.29045019022E+01  0.00000000000E+00 0.  1.
</event>
<event>
 5    1  0.8240609E+001  0.1599674E+01  0.7818608E-02  0.3353717E+00
         11   -1    0    0    0    0  0.00000000000E+00  0.00000000000E+00  0.39999999674E+01  0.40000000000E+01  0.51100000000E-03 0. -1.
    9000002   -1    0    0    0    0 -0.00000000000E+00 -0.00000000000E+00  0.00000000000E+00  0.93800000000E+00  0.93800000000E+00 0. -1.
         11    1    1    2    0    0  0.89413279733E-01 -0.18952240667E-01  0.97856165160E+00  0.98282098528E+00  0.51100000000E-03 0. -1.
    9000002    1    1    2    0    0 -0.36144412857E+00  0.69819515882E-01  0.91054955583E-01  0.10117567039E+01  0.93800000000E+00 0. -1.
         22    1    1    2    0    0  0.27203084883E+00 -0.50867275216E-01  0.29303833602E+01  0.29434223109E+01  0.00000000000E+00 0.  1.
</event>
<event>
 5    1  0.8240609E+001  0.1599674E+01  0.7818608E-02  0.3353718E+00
         11   -1    0    0    0    0  0.00000000000E+00  0.00000000000E+00  0.39999999674E+01  0.40000000000E+01  0.51100000000E-03 0. -1.
    9000002   -1    0    0    0    0 -0.00000000000E+00 -0.00000000000E+00  0.00000000000E+00  0.93800000000E+00  0.93800000000E+00 0.  1.
         11    1    1    2    0    0  0.13956873582E-01 -0.93344999843E-01  0.87334979831E+00  0.87843509416E+00  0.51100000000E-03 0. -1.
    9000002    1    1    2    0    0 -0.56611034976E-01  0.40922579844E+00  0.11532129359E+00  0.10314133818E+01  0.93800000000E+00 0.  1.
         22    1    1    2    0    0  0.42654161394E-01 -0.31588079860E+00  0.30113288755E+01  0.30281515240E+01  0.00000000000E+00 0. -1.
</event>
<event>
 5    1  0.8240609E+001  0.1553032E+01  0.7818608E-02  0.3405973E+00
         11   -1    0    0    0    0  0.00000000000E+00  0.00000000000E+00  0.39999999674E+01  0.40000000000E+01  0.51100000000E-03 0. -1.
    9000002   -1    0    0    0    0 -0.00000000000E+00 -0.00000000000E+00  0.00000000000E+00  0.93800000000E+00  0.93800000000E+00 0.  1.
         11    1    1    2    0    0  0.76730618028E-01  0.84927601264E-01  0.14885623648E+00  0.18777306905E+00  0.51100000000E-03 0. -1.
    9000002    1    1    2    0    0 -0.46309113341E+00  0.12288769798E+00  0.19910609674E+00  0.10719337768E+01  0.93800000000E+00 0.  1.
         22    1    1    2    0    0  0.38636051538E+00 -0.20781529924E+00  0.36520376341E+01  0.36782931541E+01  0.00000000000E+00 0. -1.
</event>
<event>
 5    1  0.8240609E+001  0.1599671E+01  0.7818608E-02  0.3353721E+00
         11   -1    0    0    0    0  0.00000000000E+00  0.00000000000E+00  0.39999999674E+01  0.40000000000E+01  0.51100000000E-03 0.  1.
    9000002   -1    0    0    0    0 -0.00000000000E+00 -0.00000000000E+00  0.00000000000E+00  0.93800000000E+00  0.93800000000E+00 0.  1.
         11    1    1    2    0    0  0.11117715707E+00  0.12216839144E+00  0.12014511043E+01  0.12127532698E+01  0.51100000000E-03 0.  1.
    9000002    1    1    2    0    0 -0.35231405207E+00 -0.37928990958E+00  0.18401440274E+00  0.10870562668E+01  0.93800000000E+00 0.  1.
         22    1    1    2    0    0  0.24113689500E+00  0.25712151814E+00  0.26145344603E+01  0.26381904634E+01  0.00000000000E+00 0.  1.
</event>
<event>
 5    1  0.8240609E+001  0.1599671E+01  0.7818608E-02  0.3353721E+00
         11   -1    0    0    0    0  0.00000000000E+00  0.00000000000E+00  0.39999999674E+01  0.40000000000E+01  0.51100000000E-03 0.  1.
    9000002   -1    0    0    0    0 -0.00000000000E+00 -0.00000000000E+00  0.00000000000E+00  0.93800000000E+00  0.93800000000E+00 0. -1.
         11    1    1    2    0    0 -0.82341770753E-01  0.57377193716E-01  0.86316058559E+00  0.86897570001E+00  0.51100000000E-03 0.  1.
    9000002    1    1    2    0    0  0.35882919196E+00 -0.26246154913E+00  0.13413593158E+00  0.10466522354E+01  0.93800000000E+00 0. -1.
         22    1    1    2    0    0 -0.27648742121E+00  0.20508435541E+00  0.30027034502E+01  0.30223720646E+01  0.00000000000E+00 0.  1.
</event>
<event>
 5    1  0.8240609E+001  0.1599676E+01  0.7818608E-02  0.3353715E+00
         11   -1    0    0    0    0  0.00000000000E+00  0.00000000000E+00  0.39999999674E+01  0.40000000000E+01  0.51100000000E-03 0.  1.
    9000002   -1    0    0    0    0 -0.00000000000E+00 -0.00000000000E+00  0.00000000000E+00  0.93800000000E+00  0.93800000000E+00 0. -1.
         11    1    1    2    0    0  0.89983322230E-01 -0.13192927083E+00  0.14428085208E+01  0.14516194472E+01  0.51100000000E-03 0.  1.
    9000002    1    1    2    0    0 -0.24205446105E+00  0.35648471992E+00  0.12575993542E+00  0.10398707992E+01  0.93800000000E+00 0. -1.
         22    1    1    2    0    0  0.15207113882E+00 -0.22455544909E+00  0.24314315111E+01  0.24465097536E+01  0.00000000000E+00 0.  1.
</event>
<event>
 5    1  0.8240609E+001  0.1599676E+01  0.7818608E-02  0.3353715E+00
         11   -1    0    0    0    0  0.00000000000E+00  0.00000000000E+00  0.39999999674E+01  0.40000000000E+01  0.51100000000E-03 0. -1.
    9000002   -1    0    0    0    0 -0.00000000000E+00 -0.00000000000E+00  0.00000000000E+00  0.93800000000E+00  0.93800000000E+00 0.  1.
         11    1    1    2    0    0  0.30672671883E-01 -0.63920276734E-01  0.53492373634E+00  0.53960196386E+00  0.51100000000E-03 0. -1.
    9000002    1    1    2    0    0 -0.22261139543E+00  0.45389651064E+00  0.17512225573E+00  0.10798563239E+01  0.93800000000E+00 0.  1.
         22    1    1    2    0    0  0.19193872354E+00 -0.38997623390E+00  0.32899539753E+01  0.33185417123E+01  0.00000000000E+00 0. -1.
</event>
<event>
 5    1  0.8240609E+001  0.1599637E+01  0.7818608E-02  0.3353757E+00
         11   -1    0    0    0    0  0.00000000000E+00  0.00000000000E+00  0.39999999674E+01  0.40000000000E+01  0.51100000000E-03 0.  1.
    9000002   -1    0    0    0    0 -0.00000000000E+00 -0.00000000000E+00  0.00000000000E+00  0.93800000000E+00  0.93800000000E+00 0.  1.
         11    1    1    2    0    0  0.20122267172E-02 -0.13255337474E-01  0.11519152244E+00  0.11597025908E+00  0.51100000000E-03 0.  1.
    9000002    1    1    2    0    0 -0.15008869673E+00  0.45889258358E+00  0.15916141343E+00  0.10669045766E+01  0.93800000000E+00 0.  1.
         22    1    1    2    0    0  0.14807647001E+00 -0.44563724611E+00  0.37256470315E+01  0.37551251643E+01  0.00000000000E+00 0.  1.
</event>
<event>
 5    1  0.8240609E+001  0.1595326E+01  0.7818608E-02  0.3358452E+00
         11   -1    0    0    0    0  0.00000000000E+00  0.00000000000E+00  0.39999999674E+01  0.40000000000E+01  0.51100000000E-03 0.  1.
    9000002   -1    0    0    0    0 -0.00000000000E+00 -0.00000000000E+00  0.00000000000E+00  0.93800000000E+00  0.93800000000E+00 0. -1.
         11    1    1    2    0    0 -0.21095208895E-01 -0.54097352958E-01  0.12810529507E+01  0.12823682993E+01  0.51100000000E-03 0.  1.
    9000002    1    1    2    0    0 -0.34741083709E-01  0.36992144648E+00  0.96350382527E-01  0.10134970230E+01  0.93800000000E+00 0. -1.
         22    1    1    2    0    0  0.55836292604E-01 -0.31582409352E+00  0.26225966341E+01  0.26421346777E+01  0.00000000000E+00 0.  1.
</event>
<event>
 5    1  0.8240609E+001  0.1599677E+01  0.7818608E-02  0.3353714E+00
         11   -1    0    0    0    0  0.00000000000E+00  0.00000000000E+00  0.39999999674E+01  0.40000000000E+01  0.51100000000E-03 0. -1.
    9000002   -1    0    0    0    0 -0.00000000000E+00 -0.00000000000E+00  0.00000000000E+00  0.93800000000E+00  0.93800000000E+00 0.  1.
         11    1    1    2    0    0 -0.10715514236E+00 -0.12900110327E+00  0.10972307326E+01  0.11099725451E+01  0.51100000000E-03 0. -1.
    9000002    1    1    2    0    0  0.36743819445E+00  0.44461364746E+00  0.23100135651E+00  0.11251212152E+01  0.93800000000E+00 0.  1.
         22    1    1    2    0    0 -0.26028305210E+00 -0.31561254419E+00  0.26717678783E+01  0.27029062397E+01  0.00000000000E+00 0. -1.
</event>
<event>
 5    1  0.8240609E+001  0.1599312E+01  0.7818608E-02  0.3354110E+00
         11   -1    0    0    0    0  0.00000000000E+00  0.00000000000E+00  0.39999999674E+01  0.40000000000E+01  0.51100000000E-03 0.  1.
    9000002   -1    0    0    0    0 -0.00000000000E+00 -0.00000000000E+00  0.00000000000E+00  0.93800000000E+00  0.93800000000E+00 0.  1.
         11    1    1    2    0    0  0.61615258749E-01 -0.34171271037E-01  0.50185002132E+00  0.50677196143E+00  0.51100000000E-03 0.  1.
    9000002    1    1    2    0    0 -0.37888286654E+00  0.33638715172E+00  0.17626024537E+00  0.10805647674E+01  0.93800000000E+00 0.  1.
         22    1    1    2    0    0  0.31726760779E+00 -0.30221588069E+00  0.33218897007E+01  0.33506632712E+01  0.00000000000E+00 0.  1.
</event>
<event>
 5    1  0.8240609E+001  0.1584827E+01  0.7818608E-02  0.3369998E+00
         11   -1    0    0    0    0  0.00000000000E+00  0.00000000000E+00  0.39999999674E+01  0.40000000000E+01  0.51100000000E-03 0. -1.
    9000002   -1    0    0    0    0 -0.00000000000E+00 -0.00000000000E+00  0.00000000000E+00  0.93800000000E+00  0.93800000000E+00 0.  1.
         11    1    1    2    0    0 -0.28139916988E-01 -0.65219893320E-01  0.81614263692E+00  0.81922802340E+00  0.51100000000E-03 0. -1.
    9000002    1    1    2    0    0  0.10975709407E+00 -0.25826449607E+00  0.64041756757E-01  0.98116895397E+00  0.93800000000E+00 0.  1.
         22    1    1    2    0    0 -0.81617177081E-01  0.32348438939E+00  0.31198155737E+01  0.31376030226E+01  0.00000000000E+00 0. -1.
</event>
<event>
 5    1  0.8240609E+001  0.1599676E+01  0.7818608E-02  0.3353715E+00
         11   -1    0    0    0    0  0.00000000000E+00  0.00000000000E+00  0.39999999674E+01  0.40000000000E+01  0.51100000000E-03 0.  1.
    9000002   -1    0    0    0    0 -0.00000000000E+00 -0.00000000000E+00  0.00000000000E+00  0.93800000000E+00  0.93800000000E+00 0.  1.
         11    1    1    2    0    0 -0.27516077219E-01 -0.26903714316E-01  0.42227577456E+00  0.42402598417E+00  0.51100000000E-03 0.  1.
    9000002    1    1    2    0    0  0.25740862339E+00  0.24504063964E+00  0.84739690383E-01  0.10066424040E+01  0.93800000000E+00 0.  1.
         22    1    1    2    0    0 -0.22989254617E+00 -0.21813692533E+00  0.34929845024E+01  0.35073316118E+01  0.00000000000E+00 0.  1.
</event>
<event>
 5    1  0.8240609E+001  0.1599675E+01  0.7818608E-02  0.3353716E+00
         11   -1    0    0    0    0  0.00000000000E+00  0.00000000000E+00  0.39999999674E+01  0.40000000000E+01  0.51100000000E-03 0. -1.
    9000002   -1    0    0    0    0 -0.00000000000E+00 -0.00000000000E+00  0.00000000000E+00  0.93800000000E+00  0.93800000000E+00 0. -1.
         11    1    1    2    0    0 -0.96555560335E-01 -0.65933026687E-01  0.12965783252E+01  0.13018393736E+01  0.51100000000E-03 0. -1.
    9000002    1    1    2    0    0  0.29580200145E+00  0.20137533683E+00  0.85936313647E-01  0.10076109866E+01  0.93800000000E+00 0. -1.
         22    1    1    2    0    0 -0.19924644111E+00 -0.13544231014E+00  0.26174853285E+01  0.26285496398E+01  0.00000000000E+00 0. -1.
</event>
<event>
 5    1  0.8240609E+001  0.1599674E+01  0.7818608E-02  0.3353717E+00
         11   -1    0    0    0    0  0.00000000000E+00  0.00000000000E+00  0.39999999674E+01  0.40000000000E+01  0.51100000000E-03 0. -1.
    9000002   -1    0    0    0    0 -0.00000000000E+00 -0.00000000000E+00  0.00000000000E+00  0.93800000000E+00  0.93800000000E+00 0.  1.
         11    1    1    2    0    0 -0.88949810227E-02  0.82883166938E-02  0.13738595913E+00  0.13792381872E+00  0.51100000000E-03 0. -1.
    9000002    1    1    2    0    0  0.24878222073E+00 -0.25114306525E+00  0.83825363556E-01  0.10059006532E+01  0.93800000000E+00 0.  1.
         22    1    1    2    0    0 -0.23988723970E+00  0.24285474856E+00  0.37787886447E+01  0.37941755281E+01  0.00000000000E+00 0. -1.
</event>
<event>
 5    1  0.8240609E+001  0.1599668E+01  0.7818608E-02  0.3353724E+00
         11   -1    0    0    0    0  0.00000000000E+00  0.00000000000E+00  0.39999999674E+01  0.40000000000E+01  0.51100000000E-03 0. -1.
    9000002   -1    0    0    0    0 -0.00000000000E+00 -0.00000000000E+00  0.00000000000E+00  0.93800000000E+00  0.93800000000E+00 0.  1.
         11    1    1    2    0    0 -0.13439966911E+00  0.15310607814E+00  0.14108607474E+01  0.14254939677E+01  0.51100000000E-03 0. -1.
    9000002    1    1    2    0    0  0.35239174385E+00 -0.41339878106E+00  0.20355895122E+00  0.11028865490E+01  0.93800000000E+00 0.  1.
         22    1    1    2    0    0 -0.21799207474E+00  0.26029270292E+00  0.23855802687E+01  0.24096194833E+01  0.00000000000E+00 0. -1.
</event>
<event>
 5    1  0.8240609E+001  0.1594225E+01  0.7818608E-02  0.3359655E+00
         11   -1    0    0    0    0  0.00000000000E+00  0.00000000000E+00  0.39999999674E+01  0.40000000000E+01  0.51100000000E-03 0.  1.
    9000002   -1    0    0    0    0 -0.00000000000E+00 -0.00000000000E+00  0.00000000000E+00  0.93800000000E+00  0.93800000000E+00 0.  1.
         11    1    1    2    0    0  0.41270709763E-01 -0.18646647432E-01  0.46027353084E+00  0.46249643594E+00  0.51100000000E-03 0.  1.
    9000002    1    1    2    0    0  0.11178668176E+00  0.30938344562E+00  0.76744313029E-01  0.99696944197E+00  0.93800000000E+00 0.  1.
         22    1    1    2    0    0 -0.15305739152E+00 -0.29073679818E+00  0.34629821235E+01  0.34785341221E+01  0.00000000000E+00 0.  1.
</event>
<event>
 5    1  0.8240609E+001  0.1599671E+01  0.7818608E-02  0.3353721E+00
         11   -1    0    0    0    0  0.00000000000E+00  0.00000000000E+00  0.39999999674E+01  0.40000000000E+01  0.51100000000E-03 0. -1.
    9000002   -1    0    0    0    0 -0.00000000000E+00 -0.00000000000E+00  0.00000000000E+00  0.93800000000E+00  0.93800000000E+00 0. -1.
         11    1    1    2    0    0 -0.12689048971E+00  0.17647067097E-01  0.12597990507E+01  0.12662963811E+01  0.51100000000E-03 0. -1.
    9000002    1    1    2    0    0  0.38453675675E+00 -0.51841652423E-01  0.10140467359E+00  0.10201387073E+01  0.93800000000E+00 0. -1.
         22    1    1    2    0    0 -0.25764626704E+00  0.34194585326E-01  0.26387962430E+01  0.26515649117E+01  0.00000000000E+00 0. -1.
</event>
<event>
 5    1  0.8240609E+001  0.1599673E+01  0.7818608E-02  0.3353718E+00
         11   -1    0    0    0    0  0.00000000000E+00  0.00000000000E+00  0.39999999674E+01  0.40000000000E+01  0.51100000000E-03 0.  1.
    9000002   -1    0    0    0    0 -0.00000000000E+00 -0.00000000000E+00  0.00000000000E+00  0.93800000000E+00  0.93800000000E+00 0. -1.
         11    1    1    2    0    0 -0.34331936693E-02  0.10614089628E-01  0.10889379736E+00  0.10946490735E+00  0.51100000000E-03 0.  1.
    9000002    1    1    2    0    0  0.11758240329E+00 -0.39987565081E+00  0.11744425908E+00  0.10331327657E+01  0.93800000000E+00 0. -1.
         22    1    1    2    0    0 -0.11414920963E+00  0.38926156118E+00  0.37736619109E+01  0.37954023269E+01  0.00000000000E+00 0.  1.
</event>
<event>
 5    1  0.8240609E+001  0.1539699E+01  0.7818608E-02  0.3421530E+00
         11   -1    0    0    0    0  0.00000000000E+00  0.00000000000E+00  0.39999999674E+01  0.40000000000E+01  0.51100000000E-03 0.  1.
    9000002   -1    0    0    0    0 -0.00000000000E+00 -0.00000000000E+00  0.00000000000E+00  0.93800000000E+00  0.93800000000E+00 0.  1.
         11    1    1    2    0    0  0.11111971929E+00  0.25332771251E+00  0.12026854782E+01  0.12340887904E+01  0.51100000000E-03 0.  1.
    9000002    1    1    2    0    0  0.81562943586E-01 -0.58948125589E-01  0.51816836727E-01  0.94480494275E+00  0.93800000000E+00 0.  1.
         22    1    1    2    0    0 -0.19268266287E+00 -0.19437958692E+00  0.27454976524E+01  0.27591062668E+01  0.00000000000E+00 0.  1.
</event>
<event>
 5    1  0.8240609E+001  0.1521737E+01  0.7818608E-02  0.3442948E+00
         11   -1    0    0    0    0  0.00000000000E+00  0.00000000000E+00  0.39999999674E+01  0.40000000000E+01  0.51100000000E-03 0. -1.
    9000002   -1    0    0    0    0 -0.00000000000E+00 -0.00000000000E+00  0.00000000000E+00  0.93800000000E+00  0.93800000000E+00 0. -1.
         11    1    1    2    0    0 -0.12175051840E+00 -0.22498531112E+00  0.92951276995E+00  0.96407252299E+00  0.51100000000E-03 0. -1.
    9000002    1    1    2    0    0 -0.27738019485E+00  0.33252192067E-01  0.11499660190E+00  0.98545101310E+00  0.93800000000E+00 0. -1.
         22    1    1    2    0    0  0.39913071326E+00  0.19173311906E+00  0.29554905955E+01  0.29884764639E+01  0.00000000000E+00 0. -1.
</event>
<event>
 5    1  0.8240609E+001  0.1574138E+01  0.7818608E-02  0.3381920E+00
         11   -1    0    0    0    0  0.00000000000E+00  0.00000000000E+00  0.39999999674E+01  0.40000000000E+01  0.51100000000E-03 0.  1.
    9000002   -1    0    0    0    0 -0.00000000000E+00 -0.00000000000E+00  0.00000000000E+00  0.93800000000E+00  0.93800000000E+00 0.  1.
         11    1    1    2    0    0 -0.47406941019E-01 -0.10071011218E+00  0.40908775537E+00  0.42396108014E+00  0.51100000000E-03 0.  1.
    9000002    1    1    2    0    0 -0.51293150369E+00  0.35690521852E+00  0.30052671965E+00  0.11664649038E+01  0.93800000000E+00 0.  1.
         22    1    1    2    0    0  0.56033844471E+00 -0.25619510633E+00  0.32903854923E+01  0.33475740161E+01  0.00000000000E+00 0.  1.
</event>
<event>
 5    1  0.8240609E+001  0.1599674E+01  0.7818608E-02  0.3353717E+00
         11   -1    0    0    0    0  0.00000000000E+00  0.00000000000E+00  0.39999999674E+01  0.40000000000E+01  0.51100000000E-03 0.  1.
    9000002   -1    0    0    0    0 -0.00000000000E+00 -0.00000000000E+00  0.00000000000E+00  0.93800000000E+00  0.93800000000E+00 0.  1.
         11    1    1    2    0    0 -0.97126940719E-03  0.10339591999E+00  0.86015674670E+00  0.86634955396E+00  0.51100000000E-03 0.  1.
    9000002    1    1    2    0    0  0.85860329449E-02 -0.45782417940E+00  0.14257928144E+00  0.10534939728E+01  0.93800000000E+00 0.  1.
         22    1    1    2    0    0 -0.76147635377E-02  0.35442825941E+00  0.29972639392E+01  0.30181564733E+01  0.00000000000E+00 0.  1.
</event>
<event>
 5    1  0.8240609E+001  0.1599676E+01  0.7818608E-02  0.3353715E+00
         11   -1    0    0    0    0  0.00000000000E+00  0.00000000000E+00  0.39999999674E+01  0.40000000000E+01  0.51100000000E-03 0. -1.
    9000002   -1    0    0    0    0 -0.00000000000E+00 -0.00000000000E+00  0.00000000000E+00  0.93800000000E+00  0.93800000000E+00 0.  1.
         11    1    1    2    0    0  0.97048915656E-01  0.38756450281E-01  0.11008983820E+01  0.11058472151E+01  0.51100000000E-03 0. -1.
    9000002    1    1    2    0    0 -0.34266452178E+00 -0.14155987564E+00  0.92386477795E-01  0.10128363314E+01  0.93800000000E+00 0.  1.
         22    1    1    2    0    0  0.24561560612E+00  0.10280342536E+00  0.28067151076E+01  0.28193164536E+01  0.00000000000E+00 0. -1.
</event>
<event>
 5    1  0.8240609E+001  0.1599279E+01  0.7818608E-02  0.3354147E+00
         11   -1    0    0    0    0  0.00000000000E+00  0.00000000000E+00  0.39999999674E+01  0.40000000000E+01  0.51100000000E-03 0. -1.
    9000002   -1    0    0    0    0 -0.00000000000E+00 -0.00000000000E+00  0.00000000000E+00  0.93800000000E+00  0.93800000000E+00 0. -1.
         11    1    1    2    0    0 -0.93855107203E-01  0.19756179872E-01  0.11538622155E+01  0.11578416823E+01  0.51100000000E-03 0. -1.
    9000002    1    1    2    0    0  0.33200052411E+00 -0.14003527408E+00  0.87478820114E-01  0.10086281624E+01  0.93800000000E+00 0. -1.
         22    1    1    2    0    0 -0.23814541691E+00  0.12027909421E+00  0.27586589317E+01  0.27715301553E+01  0.00000000000E+00 0. -1.
</event>
<event>
 5    1  0.8240609E+001  0.1584249E+01  0.7818608E-02  0.3370638E+00
         11   -1    0    0    0    0  0.00000000000E+00  0.00000000000E+00  0.39999999674E+01  0.40000000000E+01  0.51100000000E-03 0. -1.
    9000002   -1    0    0    0    0 -0.00000000000E+00 -0.00000000000E+00  0.00000000000E+00  0.93800000000E+00  0.93800000000E+00 0.  1.
         11    1    1    2    0    0 -0.50526764451E-01 -0.51676860319E-01  0.10180687152E+01  0.10206309920E+01  0.51100000000E-03 0. -1.
    9000002    1    1    2    0    0 -0.13635121913E+00 -0.18281802693E+00  0.46272504523E-01  0.96643635621E+00  0.93800000000E+00 0.  1.
         22    1    1    2    0    0  0.18687798358E+00  0.23449488725E+00  0.29356587476E+01  0.29509326518E+01  0.00000000000E+00 0. -1.
</event>
<event>
 5    1  0.8240609E+001  0.1520588E+01  0.7818608E-02  0.3444338E+00
         11   -1    0    0    0    0  0.00000000000E+00  0.00000000000E+00  0.39999999674E+01  0.40000000000E+01  0.51100000000E-03 0. -1.
    9000002   -1    0    0    0    0 -0.00000000000E+00 -0.00000000000E+00  0.00000000000E+00  0.93800000000E+00  0.93800000000E+00 0. -1.
         11    1    1    2    0    0  0.95864491808E-01 -0.28406187697E+00  0.12038400604E+01  0.12406096496E+01  0.51100000000E-03 0. -1.
    9000002    1    1    2    0    0 -0.14600853292E+00 -0.79558047675E-01  0.79379248217E-01  0.95592522704E+00  0.93800000000E+00 0. -1.
         22    1    1    2    0    0  0.50144041116E-01  0.36361992464E+00  0.27167806588E+01  0.27414651233E+01  0.00000000000E+00 0. -1.
</event>
<event>
 5    1  0.8240609E+001  0.1576171E+01  0.7818608E-02  0.3379640E+00
         11   -1    0    0    0    0  0.00000000000E+00  0.00000000000E+00  0.39999999674E+01  0.40000000000E+01  0.51100000000E-03 0.  1.
    9000002   -1    0    0    0    0 -0.00000000000E+00 -0.00000000000E+00  0.00000000000E+00  0.93800000000E+00  0.93800000000E+00 0. -1.
         11    1    1    2    0    0 -0.16898246463E-01 -0.86909303375E-01  0.57525128418E+00  0.58202498127E+00  0.51100000000E-03 0.  1.
    9000002    1    1    2    0    0  0.67988100149E+00 -0.81327553350E-01  0.36003802612E+00  0.12158633671E+01  0.93800000000E+00 0. -1.
         22    1    1    2    0    0 -0.66298275503E+00  0.16823685672E+00  0.30647106571E+01  0.31401116517E+01  0.00000000000E+00 0.  1.
</event>
<event>
 5    1  0.8240609E+001  0.1599677E+01  0.7818608E-02  0.3353714E+00
         11   -1    0    0    0    0  0.00000000000E+00  0.00000000000E+00  0.39999999674E+01  0.40000000000E+01  0.51100000000E-03 0. -1.
    9000002   -1    0    0    0    0 -0.00000000000E+00 -0.00000000000E+00  0.00000000000E+00  0.93800000000E+00  0.93800000000E+00 0. -1.
         11    1    1    2    0    0 -0.84338924042E-01  0.11126443261E+00  0.11638884905E+01  0.11722327020E+01  0.51100000000E-03 0. -1.
    9000002    1    1    2    0    0  0.27836736825E+00 -0.37027015976E+00  0.14603521163E+00  0.10562947818E+01  0.93800000000E+00 0. -1.
         22    1    1    2    0    0 -0.19402844421E+00  0.25900572715E+00  0.26900762652E+01  0.27094725163E+01  0.00000000000E+00 0. -1.
</event>
<event>
 5    1  0.8240609E+001  0.1599615E+01  0.7818608E-02  0.3353782E+00
         11   -1    0    0    0    0  0.00000000000E+00  0.00000000000E+00  0.39999999674E+01  0.40000000000E+01  0.51100000000E-03 0.  1.
    9000002   -1    0    0    0    0 -0.00000000000E+00 -0.00000000000E+00  0.00000000000E+00  0.93800000000E+00  0.93800000000E+00 0.  1.
         11    1    1    2    0    0  0.37434007336E-01  0.10339567997E-01  0.14675804532E+00  0.15181039674E+00  0.51100000000E-03 0.  1.
    9000002    1    1    2    0    0 -0.85284090641E+00 -0.15505985004E+00  0.56733830676E+00  0.13975327986E+01  0.93800000000E+00 0.  1.
         22    1    1    2    0    0  0.81540689908E+00  0.14472028204E+00  0.32859036153E+01  0.33886568047E+01  0.00000000000E+00 0.  1.
</event>
<event>
 5    1  0.8240609E+001  0.1587158E+01  0.7818608E-02  0.3367420E+00
         11   -1    0    0    0    0  0.00000000000E+00  0.00000000000E+00  0.39999999674E+01  0.40000000000E+01  0.51100000000E-03 0.  1.
    9000002   -1    0    0    0    0 -0.00000000000E+00 -0.00000000000E+00  0.00000000000E+00  0.93800000000E+00  0.93800000000E+00 0. -1.
         11    1    1    2    0    0  0.14750104545E-01 -0.22974671182E-01  0.14450761350E+01  0.14453341129E+01  0.51100000000E-03 0.  1.
    9000002    1    1    2    0    0  0.22217065607E+00 -0.17515838276E+00  0.63091306345E-01  0.98176614955E+00  0.93800000000E+00 0. -1.
         22    1    1    2    0    0 -0.23692076061E+00  0.19813305394E+00  0.24918325261E+01  0.25108997375E+01  0.00000000000E+00 0.  1.
</event>
<event>
 5    1  0.8240609E+001  0.1594093E+01  0.7818608E-02  0.3359799E+00
         11   -1    0    0    0    0  0.00000000000E+00  0.00000000000E+00  0.39999999674E+01  0.40000000000E+01  0.51100000000E-03 0. -1.
    9000002   -1    0    0    0    0 -0.00000000000E+00 -0.00000000000E+00  0.00000000000E+00  0.93800000000E+00  0.93800000000E+00 0.  1.
         11    1    1    2    0    0 -0.10523298550E+00 -0.14478456918E+00  0.13672103382E+01  0.13788766887E+01  0.51100000000E-03 0. -1.
    9000002    1    1    2    0    0  0.46939931878E+00  0.52513035063E+00  0.36128479386E+00  0.12273827064E+01  0.93800000000E+00 0.  1.
         22    1    1    2    0    0 -0.36416633328E+00 -0.38034578145E+00  0.22715048353E+01  0.23317406049E+01  0.00000000000E+00 0. -1.
</event>
<event>
 5    1  0.8240609E+001  0.1599670E+01  0.7818608E-02  0.3353722E+00
         11   -1    0    0    0    0  0.00000000000E+00  0.00000000000E+00  0.39999999674E+01  0.40000000000E+01  0.51100000000E-03 0.  1.
    9000002   -1    0    0    0    0 -0.00000000000E+00 -0.00000000000E+00  0.00000000000E+00  0.93800000000E+00  0.93800000000E+00 0. -1.
         11    1    1    2    0    0  0.28534745022E+00  0.69295479046E-01  0.12135585531E+01  0.12485790539E+01  0.51100000000E-03 0.  1.
    9000002    1    1    2    0    0 -0.82172510827E+00 -0.20310634704E+00  0.53664972916E+00  0.13727058219E+01  0.93800000000E+00 0. -1.
         22    1    1    2    0    0  0.53637765805E+00  0.13381086799E+00  0.22497916851E+01  0.23167151242E+01  0.00000000000E+00 0.  1.
</event>
<event>
 5    1  0.8240609E+001  0.1599671E+01  0.7818608E-02  0.3353720E+00
         11   -1    0    0    0    0  0.00000000000E+00  0.00000000000E+00  0.39999999674E+01  0.40000000000E+01  0.51100000000E-03 0.  1.
    9000002   -1    0    0    0    0 -0.00000000000E+00 -0.00000000000E+00  0.00000000000E+00  0.93800000000E+00  0.93800000000E+00 0.  1.
         11    1    1    2    0    0  0.10911491286E+00 -0.50512804681E-01  0.11782086111E+01  0.11843282484E+01  0.51100000000E-03 0.  1.
    9000002    1    1    2    0    0 -0.35243613101E+00  0.16558204211E+00  0.10214418794E+00  0.10207380047E+01  0.93800000000E+00 0.  1.
         22    1    1    2    0    0  0.24332121815E+00 -0.11506923743E+00  0.27196471684E+01  0.27329337469E+01  0.00000000000E+00 0.  1.
</event>
<event>
 5    1  0.8240609E+001  0.1598731E+01  0.7818608E-02  0.3354742E+00
         11   -1    0    0    0    0  0.00000000000E+00  0.00000000000E+00  0.39999999674E+01  0.40000000000E+01  0.51100000000E-03 0.  1.
    9000002   -1    0    0    0    0 -0.00000000000E+00 -0.00000000000E+00  0.00000000000E+00  0.93800000000E+00  0.93800000000E+00 0.  1.
         11    1    1    2    0    0  0.11898971008E+00  0.33244782931E-01  0.90514363214E+00  0.91353654695E+00  0.51100000000E-03 0.  1.
    9000002    1    1    2    0    0 -0.38439797773E+00 -0.97391469420E-01  0.10680467445E+00  0.10239619827E+01  0.93800000000E+00 0.  1.
         22    1    1    2    0    0  0.26540826765E+00  0.64146686489E-01  0.29880516608E+01  0.30005014703E+01  0.00000000000E+00 0.  1.
</event>
<event>
 5    1  0.8240609E+001  0.1599668E+01  0.7818608E-02  0.3353723E+00
         11   -1    0    0    0    0  0.00000000000E+00  0.00000000000E+00  0.39999999674E+01  0.40000000000E+01  0.51100000000E-03 0. -1.
    9000002   -1    0    0    0    0 -0.00000000000E+00 -0.00000000000E+00  0.00000000000E+00  0.93800000000E+00  0.93800000000E+00 0.  1.
         11    1    1    2    0    0  0.97239594075E-02 -0.11562923540E+00  0.11388313297E+01  0.11447277992E+01  0.51100000000E-03 0. -1.
    9000002    1    1    2    0    0 -0.40605535358E-01  0.40308073865E+00  0.11078475805E+00  0.10277354494E+01  0.93800000000E+00 0.  1.
         22    1    1    2    0    0  0.30881575950E-01 -0.28745150325E+00  0.27503838796E+01  0.27655367514E+01  0.00000000000E+00 0. -1.
</event>
<event>
 5    1  0.8240609E+001  0.1599084E+01  0.7818608E-02  0.3354358E+00
         11   -1    0    0    0    0  0.00000000000E+00  0.00000000000E+00  0.39999999674E+01  0.40000000000E+01  0.51100000000E-03 0. -1.
    9000002   -1    0    0    0    0 -0.00000000000E+00 -0.00000000000E+00  0.00000000000E+00  0.93800000000E+00  0.93800000000E+00 0.  1.
         11    1    1    2    0    0 -0.30577639805E-02  0.21360641808E-01  0.21546485209E+00  0.21654327638E+00  0.51100000000E-03 0. -1.
    9000002    1    1    2    0    0  0.25382734049E+00 -0.24811771143E+00  0.85003726078E-01  0.10065089920E+01  0.93800000000E+00 0.  1.
         22    1    1    2    0    0 -0.25076957651E+00  0.22675706962E+00  0.36995313892E+01  0.37149477316E+01  0.00000000000E+00 0. -1.
</event>
<event>
 5    1  0.8240609E+001  0.1599570E+01  0.7818608E-02  0.3353830E+00
         11   -1    0    0    0    0  0.00000000000E+00  0.00000000000E+00  0.39999999674E+01  0.40000000000E+01  0.51100000000E-03 0.  1.
    9000002   -1    0    0    0    0 -0.00000000000E+00 -0.00000000000E+00  0.00000000000E+00  0.93800000000E+00  0.93800000000E+00 0. -1.
         11    1    1    2    0    0  0.60502520249E-02 -0.26162359628E+00  0.12314442478E+01  0.12589434889E+01  0.51100000000E-03 0.  1.
    9000002    1    1    2    0    0 -0.25912709190E-01  0.73306958313E+00  0.38828631142E+00  0.12524666630E+01  0.93800000000E+00 0. -1.
         22    1    1    2    0    0  0.19862457165E-01 -0.47144598686E+00  0.23802694081E+01  0.24265898481E+01  0.00000000000E+00 0.  1.
</event>
<event>
 5    1  0.8240609E+001  0.1599658E+01  0.7818608E-02  0.3353735E+00
         11   -1    0    0    0    0  0.00000000000E+00  0.00000000000E+00  0.39999999674E+01  0.40000000000E+01  0.51100000000E-03 0.  1.
    9000002   -1    0    0    0    0 -0.00000000000E+00 -0.00000000000E+00  0.00000000000E+00  0.93800000000E+00  0.93800000000E+00 0. -1.
         11    1    1    2    0    0  0.11169623144E-01 -0.20158825729E+00  0.14825597398E+01  0.14962440407E+01  0.51100000000E-03 0.  1.
    9000002    1    1    2    0    0 -0.38723240494E-01  0.51073452133E+00  0.17998396524E+00  0.10837838661E+01  0.93800000000E+00 0. -1.
         22    1    1    2    0    0  0.27553617350E-01 -0.30914626404E+00  0.23374562623E+01  0.23579720933E+01  0.00000000000E+00 0.  1.
</event>
<event>
 5    1  0.8240609E+001  0.1599259E+01  0.7818608E-02  0.3354168E+00
         11   -1    0    0    0    0  0.00000000000E+00  0.00000000000E+00  0.39999999674E+01  0.40000000000E+01  0.51100000000E-03 0. -1.
    9000002   -1    0    0    0    0 -0.00000000000E+00 -0.00000000000E+00  0.00000000000E+00  0.93800000000E+00  0.93800000000E+00 0. -1.
         11    1    1    2    0    0  0.12097477900E-01  0.16161092622E+00  0.12698217566E+01  0.12801218672E+01  0.51100000000E-03 0. -1.
    9000002    1    1    2    0    0 -0.32628427791E-01 -0.42273112905E+00  0.12199677357E+00  0.10365777513E+01  0.93800000000E+00 0. -1.
         22    1    1    2    0    0  0.20530949891E-01  0.26112020282E+00  0.26081814372E+01  0.26213003814E+01  0.00000000000E+00 0. -1.
</event>
<event>
 5    1  0.8240609E+001  0.1521791E+01  0.7818608E-02  0.3442883E+00
         11   -1    0    0    0    0  0.00000000000E+00  0.00000000000E+00  0.39999999674E+01  0.40000000000E+01  0.51100000000E-03 0. -1.
    9000002   -1    0    0    0    0 -0.00000000000E+00 -0.00000000000E+00  0.00000000000E+00  0.93800000000E+00  0.93800000000E+00 0.  1.
         11    1    1    2    0    0 -0.21704496604E+00 -0.39554213691E-01  0.52630180943E+00  0.57067233053E+00  0.51100000000E-03 0. -1.
    9000002    1    1    2    0    0 -0.10843970916E+00  0.19010187504E+00  0.93011876188E-01  0.96767406834E+00  0.93800000000E+00 0.  1.
         22    1    1    2    0    0  0.32548467521E+00 -0.15054766135E+00  0.33806862817E+01  0.33996536011E+01  0.00000000000E+00 0. -1.
</event>
<event>
 5    1  0.8240609E+001  0.1598214E+01  0.7818608E-02  0.3355304E+00
         11   -1    0    0    0    0  0.00000000000E+00  0.00000000000E+00  0.39999999674E+01  0.40000000000E+01  0.51100000000E-03 0. -1.
    9000002   -1    0    0    0    0 -0.00000000000E+00 -0.00000000000E+00  0.00000000000E+00  0.93800000000E+00  0.93800000000E+00 0. -1.
         11    1    1    2    0    0 -0.61406951732E-01  0.72199720871E-01  0.91402132683E+00  0.91892266292E+00  0.51100000000E-03 0. -1.
    9000002    1    1    2    0    0  0.36319075729E+00 -0.17612749758E+00  0.11117107556E+00  0.10271959062E+01  0.93800000000E+00 0. -1.
         22    1    1    2    0    0 -0.30178380556E+00  0.10392777671E+00  0.29748075650E+01  0.29918814309E+01  0.00000000000E+00 0. -1.
</event>
<event>
 5    1  0.8240609E+001  0.1599571E+01  0.7818608E-02  0.3353829E+00
         11   -1    0    0    0    0  0.00000000000E+00  0.00000000000E+00  0.39999999674E+01  0.40000000000E+01  0.51100000000E-03 0. -1.
    9000002   -1    0    0    0    0 -0.00000000000E+00 -0.00000000000E+00  0.00000000000E+00  0.93800000000E+00  0.93800000000E+00 0. -1.
         11    1    1    2    0    0 -0.58206995689E-01 -0.10452095717E+00  0.80550595565E+00  0.81434193712E+00  0.51100000000E-03 0. -1.
    9000002    1    1    2    0    0  0.31956288432E+00  0.48396914589E+00  0.23379189058E+00  0.11273194841E+01  0.93800000000E+00 0. -1.
         22    1    1    2    0    0 -0.26135588864E+00 -0.37944818873E+00  0.29607021211E+01  0.29963385787E+01  0.00000000000E+00 0. -1.
</event>
<event>
 5    1  0.8240609E+001  0.1567939E+01  0.7818608E-02  0.3388914E+00
         11   -1    0    0    0    0  0.00000000000E+00  0.00000000000E+00  0.39999999674E+01  0.40000000000E+01  0.51100000000E-03 0.  1.
    9000002   -1    0    0    0    0 -0.00000000000E+00 -0.00000000000E+00  0.00000000000E+00  0.93800000000E+00  0.93800000000E+00 0. -1.
         11    1    1    2    0    0  0.21822749418E-01  0.29748960889E+00  0.13726980022E+01  0.14047335570E+01  0.51100000000E-03 0.  1.
    9000002    1    1    2    0    0  0.23198814734E+00 -0.33752015469E+00  0.14036947347E+00  0.10330953220E+01  0.93800000000E+00 0. -1.
         22    1    1    2    0    0 -0.25381089676E+00  0.40030545803E-01  0.24869324917E+01  0.25001711209E+01  0.00000000000E+00 0.  1.
</event>
<event>
 5    1  0.8240609E+001  0.1599666E+01  0.7818608E-02  0.3353726E+00
         11   -1    0    0    0    0  0.00000000000E+00  0.00000000000E+00  0.39999999674E+01  0.40000000000E+01  0.51100000000E-03 0. -1.
    9000002   -1    0    0    0    0 -0.00000000000E+00 -0.00000000000E+00  0.00000000000E+00  0.93800000000E+00  0.93800000000E+00 0.  1.
         11    1    1    2    0    0 -0.25721588106E-01  0.84831116602E-01  0.92424432962E+00  0.92848573516E+00  0.51100000000E-03 0. -1.
    9000002    1    1    2    0    0  0.11583224250E+00 -0.34636323543E+00  0.89598659730E-01  0.10105723720E+01  0.93800000000E+00 0.  1.
         22    1    1    2    0    0 -0.90110654393E-01  0.26153211883E+00  0.29861569780E+01  0.29989418928E+01  0.00000000000E+00 0. -1.
</event>
<event>
 5    1  0.8240609E+001  0.1595632E+01  0.7818608E-02  0.3358118E+00
         11   -1    0    0    0    0  0.00000000000E+00  0.00000000000E+00  0.39999999674E+01  0.40000000000E+01  0.51100000000E-03 0.  1.
    9000002   -1    0    0    0    0 -0.00000000000E+00 -0.00000000000E+00  0.00000000000E+00  0.93800000000E+00  0.93800000000E+00 0. -1.
         11    1    1    2    0    0  0.19581755943E-01 -0.17961533775E+00  0.11445144084E+01  0.11586883131E+01  0.51100000000E-03 0.  1.
    9000002    1    1    2    0    0 -0.25606800708E+00  0.46277828373E+00  0.19620988335E+00  0.10945669840E+01  0.93800000000E+00 0. -1.
         22    1    1    2    0    0  0.23648625113E+00 -0.28316294598E+00  0.26592756756E+01  0.26847447029E+01  0.00000000000E+00 0.  1.
</event>
<event>
 5    1  0.8240609E+001  0.1599439E+01  0.7818608E-02  0.3353972E+00
         11   -1    0    0    0    0  0.00000000000E+00  0.00000000000E+00  0.39999999674E+01  0.40000000000E+01  0.51100000000E-03 0.  1.
    9000002   -1    0    0    0    0 -0.00000000000E+00 -0.00000000000E+00  0.00000000000E+00  0.93800000000E+00  0.93800000000E+00 0.  1.
         11    1    1    2    0    0  0.32675448090E-01 -0.68906761935E-01  0.39572326750E+00  0.40300495321E+00  0.51100000000E-03 0.  1.
    9000002    1    1    2    0    0 -0.39800970219E+00  0.59203825812E+00  0.36531643085E+00  0.12337832536E+01  0.93800000000E+00 0.  1.
         22    1    1    2    0    0  0.36533425410E+00 -0.52313149619E+00  0.32389602690E+01  0.33012117932E+01  0.00000000000E+00 0.  1.
</event>
<event>
 5    1  0.8240609E+001  0.1495001E+01  0.7818608E-02  0.3475854E+00
         11   -1    0    0    0    0  0.00000000000E+00  0.00000000000E+00  0.39999999674E+01  0.40000000000E+01  0.51100000000E-03 0. -1.
    9000002   -1    0    0    0    0 -0.00000000000E+00 -0.00000000000E+00  0.00000000000E+00  0.93800000000E+00  0.93800000000E+00 0.  1.
         11    1    1    2    0    0  0.30068816689E+00  0.19091924086E+00  0.99820362169E+00  0.10598463387E+01  0.51100000000E-03 0. -1.
    9000002    1    1    2    0    0 -0.13162679941E+00  0.90370999470E-01  0.98735024534E-01  0.95660082424E+00  0.93800000000E+00 0.  1.
         22    1    1    2    0    0 -0.16906136748E+00 -0.28129024033E+00  0.29030613211E+01  0.29215528370E+01  0.00000000000E+00 0. -1.
</event>
<event>
 5    1  0.8240609E+001  0.1599600E+01  0.7818608E-02  0.3353798E+00
         11   -1    0    0    0    0  0.00000000000E+00  0.00000000000E+00  0.39999999674E+01  0.40000000000E+01  0.51100000000E-03 0.  1.
    9000002   -1    0    0    0    0 -0.00000000000E+00 -0.00000000000E+00  0.00000000000E+00  0.93800000000E+00  0.93800000000E+00 0. -1.
         11    1    1    2    0    0 -0.89843569636E-01  0.25719962667E-01  0.98832470028E+00  0.99273327626E+00  0.51100000000E-03 0.  1.
    9000002    1    1    2    0    0  0.38984643508E+00 -0.10407117029E+00  0.10993305778E+00  0.10270055154E+01  0.93800000000E+00 0. -1.
         22    1    1    2    0    0 -0.30000286545E+00  0.78351207628E-01  0.29017422093E+01  0.29182612084E+01  0.00000000000E+00 0.  1.
</event>
<event>
 5    1  0.8523458E+001  0.1599517E+01  0.7818608E-02  0.3353888E+00
         11   -1    0    0    0    0  0.00000000000E+00  0.00000000000E+00  0.39999999674E+01  0.40000000000E+01  0.51100000000E-03 0.  1.
    9000002   -1    0    0    0    0 -0.00000000000E+00 -0.00000000000E+00  0.00000000000E+00  0.93800000000E+00  0.93800000000E+00 0.  1.
         11    1    1    2    0    0 -0.11486840105E+00 -0.73809293745E-02  0.14424218478E+01  0.14470073517E+01  0.51100000000E-03 0.  1.
    9000002    1    1    2    0    0  0.33876125578E+00  0.50005707700E-01  0.78687230739E-01  0.10016463645E+01  0.93800000000E+00 0.  1.
         22    1    1    2    0    0 -0.22389285473E+00 -0.42624778326E-01  0.24788908888E+01  0.24893462838E+01  0.00000000000E+00 0.  1.
</event>
<event>
 5    1  0.8240609E+001  0.1599675E+01  0.7818608E-02  0.3353716E+00
         11   -1    0    0    0    0  0.00000000000E+00  0.00000000000E+00  0.39999999674E+01  0.40000000000E+01  0.51100000000E-03 0. -1.
    9000002   -1    0    0    0    0 -0.00000000000E+00 -0.00000000000E+00  0.00000000000E+00  0.93800000000E+00  0.93800000000E+00 0. -1.
         11    1    1    2    0    0  0.57509035978E-01  0.86727920205E-02  0.61447355236E+00  0.61721998850E+00  0.51100000000E-03 0. -1.
    9000002    1    1    2    0    0 -0.37043780382E+00 -0.59349313217E-01  0.94646125243E-01  0.10146666430E+01  0.93800000000E+00 0. -1.
         22    1    1    2    0    0  0.31292876784E+00  0.50676521197E-01  0.32908802898E+01  0.33061133685E+01  0.00000000000E+00 0. -1.
</event>
<event>
 5    1  0.8240609E+001  0.1599665E+01  0.7818608E-02  0.3353727E+00
         11   -1    0    0    0    0  0.00000000000E+00  0.00000000000E+00  0.39999999674E+01  0.40000000000E+01  0.51100000000E-03 0. -1.
    9000002   -1    0    0    0    0 -0.00000000000E+00 -0.00000000000E+00  0.00000000000E+00  0.93800000000E+00  0.93800000000E+00 0. -1.
         11    1    1    2    0    0  0.11063301525E+00  0.42985724717E-01  0.88715081582E+00  0.89505545511E+00  0.51100000000E-03 0. -1.
    9000002    1    1    2    0    0 -0.47609733035E+00 -0.20013505645E+00  0.18311329928E+00  0.10863227831E+01  0.93800000000E+00 0. -1.
         22    1    1    2    0    0  0.36546431510E+00  0.15714933173E+00  0.29297358523E+01  0.29566217618E+01  0.00000000000E+00 0. -1.
</event>
<event>
 5    1  0.8240609E+001  0.1599674E+01  0.7818608E-02  0.3353717E+00
         11   -1    0    0    0    0  0.00000000000E+00  0.00000000000E+00  0.39999999674E+01  0.40000000000E+01  0.51100000000E-03 0. -1.
    9000002   -1    0    0    0    0 -0.00000000000E+00 -0.00000000000E+00  0.00000000000E+00  0.93800000000E+00  0.93800000000E+00 0.  1.
         11    1    1    2    0    0  0.39716718346E-01 -0.31458762412E+00  0.13675566879E+01  0.14038355839E+01  0.51100000000E-03 0. -1.
    9000002    1    1    2    0    0 -0.10396416487E+00  0.80355666070E+00  0.48530890378E+00  0.13311200497E+01  0.93800000000E+00 0.  1.
         22    1    1    2    0    0  0.64247446522E-01 -0.48896903658E+00  0.21471343757E+01  0.22030443664E+01  0.00000000000E+00 0.  1.
</event>
<event>
 5    1  0.8240609E+001  0.1599669E+01  0.7818608E-02  0.3353723E+00
         11   -1    0    0    0    0  0.00000000000E+00  0.00000000000E+00  0.39999999674E+01  0.40000000000E+01  0.51100000000E-03 0.  1.
    9000002   -1    0    0    0    0 -0.00000000000E+00 -0.00000000000E+00  0.00000000000E+00  0.93800000000E+00  0.93800000000E+00 0.  1.
         11    1    1    2    0    0 -0.62405219106E-03  0.45313615979E-01  0.40679175175E+00  0.40930856777E+00  0.51100000000E-03 0.  1.
    9000002    1    1    2    0    0  0.24450739216E-01 -0.42620481809E+00  0.12337888575E+00  0.10379377318E+01  0.93800000000E+00 0.  1.
         22    1    1    2    0    0 -0.23826687025E-01  0.38089120211E+00  0.34698293299E+01  0.34907537004E+01  0.00000000000E+00 0.  1.
</event>
<event>
 5    1  0.8240609E+001  0.1599677E+01  0.7818608E-02  0.3353714E+00
         11   -1    0    0    0    0  0.00000000000E+00  0.00000000000E+00  0.39999999674E+01  0.40000000000E+01  0.51100000000E-03 0. -1.
    9000002   -1    0    0    0    0 -0.00000000000E+00 -0.00000000000E+00  0.00000000000E+00  0.93800000000E+00  0.93800000000E+00 0.  1.
         11    1    1    2    0    0 -0.56951513887E-01 -0.11098029859E+00  0.67282719880E+00  0.68429292132E+00  0.51100000000E-03 0.  1.
    9000002    1    1    2    0    0  0.30902609970E+00  0.60561689155E+00  0.32863118975E+00  0.12042057169E+01  0.93800000000E+00 0.  1.
         22    1    1    2    0    0 -0.25207458581E+00 -0.49463659295E+00  0.29985415788E+01  0.30495013618E+01  0.00000000000E+00 0. -1.
</event>
<event>
 5    1  0.8240609E+001  0.1495135E+01  0.7818608E-02  0.3475685E+00
         11   -1    0    0    0    0  0.00000000000E+00  0.00000000000E+00  0.39999999674E+01  0.40000000000E+01  0.51100000000E-03 0. -1.
    9000002   -1    0    0    0    0 -0.00000000000E+00 -0.00000000000E+00  0.00000000000E+00  0.93800000000E+00  0.93800000000E+00 0. -1.
         11    1    1    2    0    0 -0.21687810194E+00  0.36786469233E+00  0.89523858177E+00  0.99187344070E+00  0.51100000000E-03 0. -1.
    9000002    1    1    2    0    0 -0.28337770771E-01  0.14176172098E+00  0.17850066677E+00  0.96571522864E+00  0.93800000000E+00 0. -1.
         22    1    1    2    0    0  0.24521587271E+00 -0.50962641331E+00  0.29262607188E+01  0.29804113307E+01  0.00000000000E+00 0. -1.
</event>
<event>
 5    1  0.8240609E+001  0.1599677E+01  0.7818608E-02  0.3353714E+00
         11   -1    0    0    0    0  0.00000000000E+00  0.00000000000E+00  0.39999999674E+01  0.40000000000E+01  0.51100000000E-03 0. -1.
    9000002   -1    0    0    0    0 -0.00000000000E+00 -0.00000000000E+00  0.00000000000E+00  0.93800000000E+00  0.93800000000E+00 0. -1.
         11    1    1    2    0    0  0.57679399406E-01 -0.13107254030E+00  0.11699909397E+01  0.11787221827E+01  0.51100000000E-03 0. -1.
    9000002    1    1    2    0    0 -0.18939504712E+00  0.42937030760E+00  0.15001371458E+00  0.10595175598E+01  0.93800000000E+00 0. -1.
         22    1    1    2    0    0  0.13171564772E+00 -0.29829776730E+00  0.26799953131E+01  0.26997602575E+01  0.00000000000E+00 0. -1.
</event>
<event>
 5    1  0.8240609E+001  0.1599640E+01  0.7818608E-02  0.3353754E+00
         11   -1    0    0    0    0  0.00000000000E+00  0.00000000000E+00  0.39999999674E+01  0.40000000000E+01  0.51100000000E-03 0. -1.
    9000002   -1    0    0    0    0 -0.00000000000E+00 -0.00000000000E+00  0.00000000000E+00  0.93800000000E+00  0.93800000000E+00 0. -1.
         11    1    1    2    0    0  0.37808877173E-01  0.54757026292E-01  0.61745154916E+00  0.62102698799E+00  0.51100000000E-03 0. -1.
    9000002    1    1    2    0    0 -0.20536272701E+00 -0.33863064426E+00  0.10577205266E+00  0.10236582877E+01  0.93800000000E+00 0. -1.
         22    1    1    2    0    0  0.16755384984E+00  0.28387361797E+00  0.32767763655E+01  0.32933147243E+01  0.00000000000E+00 0. -1.
</event>
<event>
 5    1  0.8240609E+001  0.1599652E+01  0.7818608E-02  0.3353741E+00
         11   -1    0    0    0    0  0.00000000000E+00  0.00000000000E+00  0.39999999674E+01  0.40000000000E+01  0.51100000000E-03 0. -1.
    9000002   -1    0    0    0    0 -0.00000000000E+00 -0.00000000000E+00  0.00000000000E+00  0.93800000000E+00  0.93800000000E+00 0.  1.
         11    1    1    2    0    0  0.34421668196E-01 -0.98418445315E-01  0.12145042761E+01  0.12189716729E+01  0.51100000000E-03 0. -1.
    9000002    1    1    2    0    0 -0.12479900126E+00  0.32888398593E+00  0.83004809820E-01  0.10052229929E+01  0.93800000000E+00 0.  1.
         22    1    1    2    0    0  0.90377333060E-01 -0.23046554061E+00  0.27024908814E+01  0.27138053342E+01  0.00000000000E+00 0. -1.
</event>
<event>
 5    1  0.8240609E+001  0.1595220E+01  0.7818608E-02  0.3358568E+00
         11   -1    0    0    0    0  0.00000000000E+00  0.00000000000E+00  0.39999999674E+01  0.40000000000E+01  0.51100000000E-03 0. -1.
    9000002   -1    0    0    0    0 -0.00000000000E+00 -0.00000000000E+00  0.00000000000E+00  0.93800000000E+00  0.93800000000E+00 0.  1.
         11    1    1    2    0    0  0.14465499346E-01 -0.55168976800E-02  0.60055320492E+00  0.60075294414E+00  0.51100000000E-03 0. -1.
    9000002    1    1    2    0    0  0.83815614065E-01 -0.29783422078E+00  0.67434062476E-01  0.99001092570E+00  0.93800000000E+00 0.  1.
         22    1    1    2    0    0 -0.98281113410E-01  0.30335111846E+00  0.33320127000E+01  0.33472361302E+01  0.00000000000E+00 0. -1.
</event>
<event>
 5    1  0.1375548E+002  0.1536338E+01  0.7818608E-02  0.3425498E+00
         11   -1    0    0    0    0  0.00000000000E+00  0.00000000000E+00  0.39999999674E+01  0.40000000000E+01  0.51100000000E-03 0.  1.
    9000002   -1    0    0    0    0 -0.00000000000E+00 -0.00000000000E+00  0.00000000000E+00  0.93800000000E+00  0.93800000000E+00 0. -1.
         11    1    1    2    0    0  0.24352228473E+00  0.70373255437E-01  0.10982794677E+01  0.11271528506E+01  0.51100000000E-03 0.  1.
    9000002    1    1    2    0    0  0.59053030977E-01  0.32735409653E-01  0.50519660191E-01  0.94178293867E+00  0.93800000000E+00 0. -1.
         22    1    1    2    0    0 -0.30257531571E+00 -0.10310866509E+00  0.28512008394E+01  0.28690642107E+01  0.00000000000E+00 0. -1.
</event>
<event>
 5    1  0.8240609E+001  0.1596555E+01  0.7818608E-02  0.3357111E+00
         11   -1    0    0    0    0  0.00000000000E+00  0.00000000000E+00  0.39999999674E+01  0.40000000000E+01  0.51100000000E-03 0. -1.
    9000002   -1    0    0    0    0 -0.00000000000E+00 -0.00000000000E+00  0.00000000000E+00  0.93800000000E+00  0.93800000000E+00 0. -1.
         11    1    1    2    0    0  0.56193588205E-02 -0.16112016549E-01  0.29944034003E+00  0.29992657873E+00  0.51100000000E-03 0. -1.
    9000002    1    1    2    0    0  0.38395503086E+00  0.11894782266E+00  0.11161522365E+00  0.10265826846E+01  0.93800000000E+00 0. -1.
         22    1    1    2    0    0 -0.38957438968E+00 -0.10283580611E+00  0.35889444037E+01  0.36114907366E+01  0.00000000000E+00 0. -1.
</event>
<event>
 5    1  0.8240609E+001  0.1599636E+01  0.7818608E-02  0.3353759E+00
         11   -1    0    0    0    0  0.00000000000E+00  0.00000000000E+00  0.39999999674E+01  0.40000000000E+01  0.51100000000E-03 0.  1.
    9000002   -1    0    0    0    0 -0.00000000000E+00 -0.00000000000E+00  0.00000000000E+00  0.93800000000E+00  0.93800000000E+00 0.  1.
         11    1    1    2    0    0  0.94479483431E-01 -0.88703066334E-01  0.99292041286E+00  0.10013420066E+01  0.51100000000E-03 0.  1.
    9000002    1    1    2    0    0 -0.37968368173E+00  0.36060802261E+00  0.18851092246E+00  0.10906778681E+01  0.93800000000E+00 0.  1.
         22    1    1    2    0    0  0.28520419830E+00 -0.27190495628E+00  0.28185686320E+01  0.28459801253E+01  0.00000000000E+00 0.  1.
</event>
<event>
 5    1  0.8240609E+001  0.1578791E+01  0.7818608E-02  0.3376709E+00
         11   -1    0    0    0    0  0.00000000000E+00  0.00000000000E+00  0.39999999674E+01  0.40000000000E+01  0.51100000000E-03 0.  1.
    9000002   -1    0    0    0    0 -0.00000000000E+00 -0.00000000000E+00  0.00000000000E+00  0.93800000000E+00  0.93800000000E+00 0. -1.
         11    1    1    2    0    0  0.60229078448E-01 -0.31451734715E-01  0.82049568239E+00  0.82330442696E+00  0.51100000000E-03 0.  1.
    9000002    1    1    2    0    0  0.37656536480E+00  0.29256105426E-01  0.11327795476E+00  0.10175132867E+01  0.93800000000E+00 0. -1.
         22    1    1    2    0    0 -0.43679444325E+00  0.21956292887E-02  0.30662263302E+01  0.30971822863E+01  0.00000000000E+00 0.  1.
</event>
<event>
 5    1  0.8240609E+001  0.1599532E+01  0.7818608E-02  0.3353872E+00
         11   -1    0    0    0    0  0.00000000000E+00  0.00000000000E+00  0.39999999674E+01  0.40000000000E+01  0.51100000000E-03 0. -1.
    9000002   -1    0    0    0    0 -0.00000000000E+00 -0.00000000000E+00  0.00000000000E+00  0.93800000000E+00  0.93800000000E+00 0. -1.
         11    1    1    2    0    0 -0.45274079583E-01 -0.22957325761E-01  0.54350747069E+00  0.54587307398E+00  0.51100000000E-03 0. -1.
    9000002    1    1    2    0    0  0.32617802894E+00  0.23628594236E+00  0.10958277154E+00  0.10266818090E+01  0.93800000000E+00 0. -1.
         22    1    1    2    0    0 -0.28090394936E+00 -0.21332861660E+00  0.33469097251E+01  0.33654451170E+01  0.00000000000E+00 0. -1.
</event>
<event>
 5    1  0.8240609E+001  0.1599677E+01  0.7818608E-02  0.3353714E+00
         11   -1    0    0    0    0  0.00000000000E+00  0.00000000000E+00  0.39999999674E+01  0.40000000000E+01  0.51100000000E-03 0.  1.
    9000002   -1    0    0    0    0 -0.00000000000E+00 -0.00000000000E+00  0.00000000000E+00  0.93800000000E+00  0.93800000000E+00 0. -1.
         11    1    1    2    0    0 -0.10276888244E+00 -0.34055259062E-01  0.53680650975E+00  0.54761546170E+00  0.51100000000E-03 0.  1.
    9000002    1    1    2    0    0  0.69092009663E+00  0.22789421330E+00  0.38118543135E+00  0.12467769189E+01  0.93800000000E+00 0. -1.
         22    1    1    2    0    0 -0.58815121419E+00 -0.19383895424E+00  0.30820080263E+01  0.31436076194E+01  0.00000000000E+00 0.  1.
</event>
<event>
 5    1  0.8240609E+001  0.1599564E+01  0.7818608E-02  0.3353837E+00
         11   -1    0    0    0    0  0.00000000000E+00  0.00000000000E+00  0.39999999674E+01  0.40000000000E+01  0.51100000000E-03 0.  1.
    9000002   -1    0    0    0    0 -0.00000000000E+00 -0.00000000000E+00  0.00000000000E+00  0.93800000000E+00  0.93800000000E+00 0. -1.
         11    1    1    2    0    0 -0.16968808233E+00 -0.12674568922E+00  0.39571509349E+00  0.44883093851E+00  0.51100000000E-03 0.  1.
    9000002    1    1    2    0    0  0.10155587778E+01  0.71557104182E+00  0.15822912620E+01  0.22196601508E+01  0.93800000000E+00 0. -1.
         22    1    1    2    0    0 -0.84587069551E+00 -0.58882535260E+00  0.20219936119E+01  0.22695089107E+01  0.00000000000E+00 0.  1.
</event>
<event>
 5    1  0.8240609E+001  0.1579722E+01  0.7818608E-02  0.3375671E+00
         11   -1    0    0    0    0  0.00000000000E+00  0.00000000000E+00  0.39999999674E+01  0.40000000000E+01  0.51100000000E-03 0. -1.
    9000002   -1    0    0    0    0 -0.00000000000E+00 -0.00000000000E+00  0.00000000000E+00  0.93800000000E+00  0.93800000000E+00 0. -1.
         11    1    1    2    0    0  0.24184437109E-01 -0.56605871362E-01  0.69933624076E+00  0.70204027693E+00  0.51100000000E-03 0. -1.
    9000002    1    1    2    0    0  0.17681963604E+00 -0.34120301814E+00  0.11603259476E+00  0.10202902755E+01  0.93800000000E+00 0. -1.
         22    1    1    2    0    0 -0.20100407315E+00  0.39780888950E+00  0.31846311318E+01  0.32156694476E+01  0.00000000000E+00 0. -1.
</event>
<event>
 5    1  0.8240609E+001  0.1599635E+01  0.7818608E-02  0.3353760E+00
         11   -1    0    0    0    0  0.00000000000E+00  0.00000000000E+00  0.39999999674E+01  0.40000000000E+01  0.51100000000E-03 0.  1.
    9000002   -1    0    0    0    0 -0.00000000000E+00 -0.00000000000E+00  0.00000000000E+00  0.93800000000E+00  0.93800000000E+00 0. -1.
         11    1    1    2    0    0 -0.80821050728E-01  0.51511533689E-01  0.90074978536E+00  0.90583437630E+00  0.51100000000E-03 0.  1.
    9000002    1    1    2    0    0  0.32885783175E+00 -0.24257697228E+00  0.11280073577E+00  0.10293488558E+01  0.93800000000E+00 0. -1.
         22    1    1    2    0    0 -0.24803678102E+00  0.19106543859E+00  0.29864494462E+01  0.30028167679E+01  0.00000000000E+00 0.  1.
</event>
<event>
 5    1  0.8240609E+001  0.1599677E+01  0.7818608E-02  0.3353714E+00
         11   -1    0    0    0    0  0.00000000000E+00  0.00000000000E+00  0.39999999674E+01  0.40000000000E+01  0.51100000000E-03 0.  1.
    9000002   -1    0    0    0    0 -0.00000000000E+00 -0.00000000000E+00  0.00000000000E+00  0.93800000000E+00  0.93800000000E+00 0. -1.
         11    1    1    2    0    0  0.81428267525E-01 -0.67594064639E-01  0.80369351405E+00  0.81063126388E+00  0.51100000000E-03 0.  1.
    9000002    1    1    2    0    0 -0.38912312552E+00  0.32365145226E+00  0.17554303481E+00  0.10801974016E+01  0.93800000000E+00 0. -1.
         22    1    1    2    0    0  0.30769485800E+00 -0.25605738762E+00  0.30207634185E+01  0.30471713345E+01  0.00000000000E+00 0.  1.
</event>
<event>
 5    1  0.8240609E+001  0.1599673E+01  0.7818608E-02  0.3353718E+00
         11   -1    0    0    0    0  0.00000000000E+00  0.00000000000E+00  0.39999999674E+01  0.40000000000E+01  0.51100000000E-03 0.  1.
    9000002   -1    0    0    0    0 -0.00000000000E+00 -0.00000000000E+00  0.00000000000E+00  0.93800000000E+00  0.93800000000E+00 0. -1.
         11    1    1    2    0    0 -0.53664538927E-01 -0.42315554121E-01  0.73113422133E+00  0.73432145521E+00  0.51100000000E-03 0.  1.
    9000002    1    1    2    0    0  0.29241771850E+00  0.23412480993E+00  0.94356704092E-01  0.10144307450E+01  0.93800000000E+00 0. -1.
         22    1    1    2    0    0 -0.23875317957E+00 -0.19180925581E+00  0.31745090419E+01  0.31892477998E+01  0.00000000000E+00 0.  1.
</event>
<event>
 5    1  0.8240609E+001  0.1599610E+01  0.7818608E-02  0.3353786E+00
         11   -1    0    0    0    0  0.00000000000E+00  0.00000000000E+00  0.39999999674E+01  0.40000000000E+01  0.51100000000E-03 0. -1.
    9000002   -1    0    0    0    0 -0.00000000000E+00 -0.00000000000E+00  0.00000000000E+00  0.93800000000E+00  0.93800000000E+00 0. -1.
         11    1    1    2    0    0  0.55433592970E-01  0.12961502888E+00  0.14062458013E+01  0.14132941851E+01  0.51100000000E-03 0. -1.
    9000002    1    1    2    0    0 -0.12767420575E+00 -0.35865513835E+00  0.97580527858E-01  0.10170054919E+01  0.93800000000E+00 0. -1.
         22    1    1    2    0    0  0.72240612781E-01  0.22904010948E+00  0.24961736382E+01  0.25077003230E+01  0.00000000000E+00 0. -1.
</event>
<event>
 5    1  0.8240609E+001  0.1599009E+01  0.7818608E-02  0.3354440E+00
         11   -1    0    0    0    0  0.00000000000E+00  0.00000000000E+00  0.39999999674E+01  0.40000000000E+01  0.51100000000E-03 0. -1.
    9000002   -1    0    0    0    0 -0.00000000000E+00 -0.00000000000E+00  0.00000000000E+00  0.93800000000E+00  0.93800000000E+00 0. -1.
         11    1    1    2    0    0  0.63029327796E-01  0.84497131026E-01  0.72988101021E+00  0.73745441316E+00  0.51100000000E-03 0. -1.
    9000002    1    1    2    0    0 -0.44877603147E+00 -0.42855838025E+00  0.27054731673E+00  0.11567636156E+01  0.93800000000E+00 0. -1.
         22    1    1    2    0    0  0.38574670367E+00  0.34406124923E+00  0.29995716404E+01  0.30437819713E+01  0.00000000000E+00 0. -1.
</event>
<event>
 5    1  0.8240609E+001  0.1599672E+01  0.7818608E-02  0.3353720E+00
         11   -1    0    0    0    0  0.00000000000E+00  0.00000000000E+00  0.39999999674E+01  0.40000000000E+01  0.51100000000E-03 0. -1.
    9000002   -1    0    0    0    0 -0.00000000000E+00 -0.00000000000E+00  0.00000000000E+00  0.93800000000E+00  0.93800000000E+00 0. -1.
         11    1    1    2    0    0 -0.85340509695E-01 -0.95929297201E-01  0.11558095009E+01  0.11629192991E+01  0.51100000000E-03 0.  1.
    9000002    1    1    2    0    0  0.27850594610E+00  0.32506058496E+00  0.12406082509E+00  0.10384917112E+01  0.93800000000E+00 0. -1.
         22    1    1    2    0    0 -0.19316543641E+00 -0.22913128776E+00  0.27201296413E+01  0.27365889897E+01  0.00000000000E+00 0. -1.
</event>
<event>
 5    1  0.8240609E+001  0.1597146E+01  0.7818608E-02  0.3356467E+00
         11   -1    0    0    0    0  0.00000000000E+00  0.00000000000E+00  0.39999999674E+01  0.40000000000E+01  0.51100000000E-03 0. -1.
    9000002   -1    0    0    0    0 -0.00000000000E+00 -0.00000000000E+00  0.00000000000E+00  0.93800000000E+00  0.93800000000E+00 0. -1.
         11    1    1    2    0    0  0.44240223825E-01 -0.58775329546E-01  0.59168326555E+00  0.59623911698E+00  0.51100000000E-03 0. -1.
    9000002    1    1    2    0    0 -0.40433034770E+00  0.12376681186E+00  0.12311501948E+00  0.10362444508E+01  0.93800000000E+00 0. -1.
         22    1    1    2    0    0  0.36009012387E+00 -0.64991482318E-01  0.32852016823E+01  0.33055164322E+01  0.00000000000E+00 0. -1.
</event>
<event>
 5    1  0.8240609E+001  0.1599482E+01  0.7818608E-02  0.3353926E+00
         11   -1    0    0    0    0  0.00000000000E+00  0.00000000000E+00  0.39999999674E+01  0.40000000000E+01  0.51100000000E-03 0.  1.
    9000002   -1    0    0    0    0 -0.00000000000E+00 -0.00000000000E+00  0.00000000000E+00  0.93800000000E+00  0.93800000000E+00 0.  1.
         11    1    1    2    0    0  0.22988696997E-01 -0.11270324676E-01  0.20097695056E+00  0.20260181683E+00  0.51100000000E-03 0.  1.
    9000002    1    1    2    0    0 -0.30241782929E+00  0.21253324466E+00  0.91973626593E-01  0.10123883008E+01  0.93800000000E+00 0.  1.
         22    1    1    2    0    0  0.27942913229E+00 -0.20126291998E+00  0.37070493902E+01  0.37230098824E+01  0.00000000000E+00 0.  1.
</event>
<event>
 5    1  0.8240609E+001  0.1599259E+01  0.7818608E-02  0.3354168E+00
         11   -1    0    0    0    0  0.00000000000E+00  0.00000000000E+00  0.39999999674E+01  0.40000000000E+01  0.51100000000E-03 0. -1.
    9000002   -1    0    0    0    0 -0.00000000000E+00 -0.00000000000E+00  0.00000000000E+00  0.93800000000E+00  0.93800000000E+00 0. -1.
         11    1    1    2    0    0 -0.26646343453E-01 -0.16338914434E+00  0.90672012610E+00  0.92170911263E+00  0.51100000000E-03 0. -1.
    9000002    1    1    2    0    0  0.83438102091E-01  0.59171536420E+00  0.24942583070E+00  0.11398009625E+01  0.93800000000E+00 0. -1.
         22    1    1    2    0    0 -0.56791758637E-01 -0.42832621986E+00  0.28438540106E+01  0.28764899249E+01  0.00000000000E+00 0. -1.
</event>
<event>
 5    1  0.8240609E+001  0.1493350E+01  0.7818608E-02  0.3477927E+00
         11   -1    0    0    0    0  0.00000000000E+00  0.00000000000E+00  0.39999999674E+01  0.40000000000E+01  0.51100000000E-03 0. -1.
    9000002   -1    0    0    0    0 -0.00000000000E+00 -0.00000000000E+00  0.00000000000E+00  0.93800000000E+00  0.93800000000E+00 0. -1.
         11    1    1    2    0    0  0.17455910576E+00 -0.16137084854E+00  0.14283968945E+00  0.27733530277E+00  0.51100000000E-03 0. -1.
    9000002    1    1    2    0    0  0.30337161188E+00  0.18211506387E+00  0.26521928700E+00  0.10370079564E+01  0.93800000000E+00 0. -1.
         22    1    1    2    0    0 -0.47793071764E+00 -0.20744215334E-01  0.35919409909E+01  0.36236567409E+01  0.00000000000E+00 0. -1.
</event>
<event>
 5    1  0.8240609E+001  0.1599639E+01  0.7818608E-02  0.3353755E+00
         11   -1    0    0    0    0  0.00000000000E+00  0.00000000000E+00  0.39999999674E+01  0.40000000000E+01  0.51100000000E-03 0.  1.
    9000002   -1    0    0    0    0 -0.00000000000E+00 -0.00000000000E+00  0.00000000000E+00  0.93800000000E+00  0.93800000000E+00 0.  1.
         11    1    1    2    0    0 -0.38612393753E-01 -0.21476019387E-01  0.29180035630E+00  0.29512682937E+00  0.51100000000E-03 0.  1.
    9000002    1    1    2    0    0  0.45376860438E+00  0.26870697377E+00  0.19132359171E+00  0.10929584168E+01  0.93800000000E+00 0.  1.
         22    1    1    2    0    0 -0.41515621063E+00 -0.24723095438E+00  0.35168760194E+01  0.35499147538E+01  0.00000000000E+00 0.  1.
</event>
<event>
 5    1  0.8240609E+001  0.1599677E+01  0.7818608E-02  0.3353714E+00
         11   -1    0    0    0    0  0.00000000000E+00  0.00000000000E+00  0.39999999674E+01  0.40000000000E+01  0.51100000000E-03 0. -1.
    9000002   -1    0    0    0    0 -0.00000000000E+00 -0.00000000000E+00  0.00000000000E+00  0.93800000000E+00  0.93800000000E+00 0. -1.
         11    1    1    2    0    0 -0.31527006782E-01  0.87156254131E-01  0.96444320411E+00  0.96888653611E+00  0.51100000000E-03 0. -1.
    9000002    1    1    2    0    0  0.12991843527E+00 -0.35297947059E+00  0.95144901509E-01  0.10150713565E+01  0.93800000000E+00 0. -1.
         22    1    1    2    0    0 -0.98391428490E-01  0.26582321646E+00  0.29404118617E+01  0.29540421074E+01  0.00000000000E+00 0. -1.
</event>
<event>
 5    1  0.8240609E+001  0.1599677E+01  0.7818608E-02  0.3353715E+00
         11   -1    0    0    0    0  0.00000000000E+00  0.00000000000E+00  0.39999999674E+01  0.40000000000E+01  0.51100000000E-03 0.  1.
    9000002   -1    0    0    0    0 -0.00000000000E+00 -0.00000000000E+00  0.00000000000E+00  0.93800000000E+00  0.93800000000E+00 0.  1.
         11    1    1    2    0    0 -0.56361524924E-01 -0.62562779641E-01  0.59831128878E+00  0.60420806209E+00  0.51100000000E-03 0. -1.
    9000002    1    1    2    0    0  0.35937105214E+00  0.39497353730E+00  0.19636878524E+00  0.10970671575E+01  0.93800000000E+00 0.  1.
         22    1    1    2    0    0 -0.30300952722E+00 -0.33241075766E+00  0.32053198933E+01  0.32367247804E+01  0.00000000000E+00 0.  1.
</event>
<event>
 5    1  0.8240609E+001  0.1599473E+01  0.7818608E-02  0.3353935E+00
         11   -1    0    0    0    0  0.00000000000E+00  0.00000000000E+00  0.39999999674E+01  0.40000000000E+01  0.51100000000E-03 0.  1.
    9000002   -1    0    0    0    0 -0.00000000000E+00 -0.00000000000E+00  0.00000000000E+00  0.93800000000E+00  0.93800000000E+00 0.  1.
         11    1    1    2    0    0  0.44127178375E-01  0.63757735930E-02  0.62053812286E+00  0.62213799225E+00  0.51100000000E-03 0.  1.
    9000002    1    1    2    0    0 -0.35315037784E+00 -0.66531191601E-01  0.86846646224E-01  0.10082300971E+01  0.93800000000E+00 0.  1.
         22    1    1    2    0    0  0.30902319947E+00  0.60155418008E-01  0.32926151983E+01  0.33076319106E+01  0.00000000000E+00 0.  1.
</event>
<event>
 5    1  0.8240609E+001  0.1599677E+01  0.7818608E-02  0.3353714E+00
         11   -1    0    0    0    0  0.00000000000E+00  0.00000000000E+00  0.39999999674E+01  0.40000000000E+01  0.51100000000E-03 0.  1.
    9000002   -1    0    0    0    0 -0.00000000000E+00 -0.00000000000E+00  0.00000000000E+00  0.93800000000E+00  0.93800000000E+00 0.  1.
         11    1    1    2    0    0 -0.15516078673E-01  0.13143379788E+00  0.12707479832E+01  0.12776213406E+01  0.51100000000E-03 0.  1.
    9000002    1    1    2    0    0  0.46741699782E-01 -0.40063007756E+00  0.10978480371E+00  0.10269303524E+01  0.93800000000E+00 0.  1.
         22    1    1    2    0    0 -0.31225621109E-01  0.26919627968E+00  0.26194671805E+01  0.26334483070E+01  0.00000000000E+00 0.  1.
</event>
<event>
 5    1  0.8240609E+001  0.1596981E+01  0.7818608E-02  0.3356646E+00
         11   -1    0    0    0    0  0.00000000000E+00  0.00000000000E+00  0.39999999674E+01  0.40000000000E+01  0.51100000000E-03 0. -1.
    9000002   -1    0    0    0    0 -0.00000000000E+00 -0.00000000000E+00  0.00000000000E+00  0.93800000000E+00  0.93800000000E+00 0.  1.
         11    1    1    2    0    0 -0.45690178583E-01 -0.67842330380E-01  0.37699310097E+00  0.38576447933E+00  0.51100000000E-03 0. -1.
    9000002    1    1    2    0    0  0.20062995452E+00  0.41646021820E+00  0.14775807098E+00  0.10561098141E+01  0.93800000000E+00 0.  1.
         22    1    1    2    0    0 -0.15493977593E+00 -0.34861788782E+00  0.34752487954E+01  0.34961257065E+01  0.00000000000E+00 0. -1.
</event>
<event>
 5    1  0.8240609E+001  0.1512223E+01  0.7818608E-02  0.3454514E+00
         11   -1    0    0    0    0  0.00000000000E+00  0.00000000000E+00  0.39999999674E+01  0.40000000000E+01  0.51100000000E-03 0. -1.
    9000002   -1    0    0    0    0 -0.00000000000E+00 -0.00000000000E+00  0.00000000000E+00  0.93800000000E+00  0.93800000000E+00 0.  1.
         11    1    1    2    0    0 -0.90749042092E-01  0.26304443977E+00  0.93156129485E+00  0.97223169724E+00  0.51100000000E-03 0. -1.
    9000002    1    1    2    0    0  0.41579615001E+00  0.17817840723E+00  0.21906881882E+00  0.10641753289E+01  0.93800000000E+00 0.  1.
         22    1    1    2    0    0 -0.32504710792E+00 -0.44122284700E+00  0.28493698537E+01  0.29015929739E+01  0.00000000000E+00 0. -1.
</event>
<event>
 5    1  0.8240609E+001  0.1599676E+01  0.7818608E-02  0.3353715E+00
         11   -1    0    0    0    0  0.00000000000E+00  0.00000000000E+00  0.39999999674E+01  0.40000000000E+01  0.51100000000E-03 0.  1.
    9000002   -1    0    0    0    0 -0.00000000000E+00 -0.00000000000E+00  0.00000000000E+00  0.93800000000E+00  0.93800000000E+00 0. -1.
         11    1    1    2    0    0 -0.29929084087E-01  0.67292728625E-02  0.32839059026E+00  0.32982066957E+00  0.51100000000E-03 0.  1.
    9000002    1    1    2    0    0  0.36222516231E+00 -0.79195220746E-01  0.92400478165E-01  0.10128478660E+01  0.93800000000E+00 0. -1.
         22    1    1    2    0    0 -0.33229607822E+00  0.72465947883E-01  0.35792088989E+01  0.35953314645E+01  0.00000000000E+00 0.  1.
</event>
<event>
 5    1  0.8240609E+001  0.1479932E+01  0.7818608E-02  0.3494965E+00
         11   -1    0    0    0    0  0.00000000000E+00  0.00000000000E+00  0.39999999674E+01  0.40000000000E+01  0.51100000000E-03 0.  1.
    9000002   -1    0    0    0    0 -0.00000000000E+00 -0.00000000000E+00  0.00000000000E+00  0.93800000000E+00  0.93800000000E+00 0.  1.
         11    1    1    2    0    0  0.13536043735E+00  0.47176133148E+00  0.13510249147E+01  0.14374107914E+01  0.51100000000E-03 0.  1.
    9000002    1    1    2    0    0  0.18512743996E+00 -0.54782488709E-01  0.17774461862E+00  0.97401767928E+00  0.93800000000E+00 0.  1.
         22    1    1    2    0    0 -0.32048787731E+00 -0.41697884277E+00  0.24712304340E+01  0.25265715293E+01  0.00000000000E+00 0. -1.
</event>
<event>
 5    1  0.8240609E+001  0.1599648E+01  0.7818608E-02  0.3353746E+00
         11   -1    0    0    0    0  0.00000000000E+00  0.00000000000E+00  0.39999999674E+01  0.40000000000E+01  0.51100000000E-03 0. -1.
    9000002   -1    0    0    0    0 -0.00000000000E+00 -0.00000000000E+00  0.00000000000E+00  0.93800000000E+00  0.93800000000E+00 0. -1.
         11    1    1    2    0    0  0.11166988874E-01 -0.29601440339E-01  0.32267250270E+00  0.32422022150E+00  0.51100000000E-03 0. -1.
    9000002    1    1    2    0    0 -0.17007823200E+00  0.33311526253E+00  0.94081661713E-01  0.10141931484E+01  0.93800000000E+00 0. -1.
         22    1    1    2    0    0  0.15891124313E+00 -0.30351382219E+00  0.35832458029E+01  0.35995866301E+01  0.00000000000E+00 0. -1.
</event>
<event>
 5    1  0.8240609E+001  0.1599107E+01  0.7818608E-02  0.3354333E+00
         11   -1    0    0    0    0  0.00000000000E+00  0.00000000000E+00  0.39999999674E+01  0.40000000000E+01  0.51100000000E-03 0. -1.
    9000002   -1    0    0    0    0 -0.00000000000E+00 -0.00000000000E+00  0.00000000000E+00  0.93800000000E+00  0.93800000000E+00 0.  1.
         11    1    1    2    0    0  0.10851146113E-02 -0.14777820561E-01  0.12231253121E+00  0.12320786447E+00  0.51100000000E-03 0. -1.
    9000002    1    1    2    0    0  0.17380730133E+00  0.67412171297E+00  0.34664703077E+00  0.12184651106E+01  0.93800000000E+00 0.  1.
         22    1    1    2    0    0 -0.17489241594E+00 -0.65934389241E+00  0.35310404054E+01  0.35963270249E+01  0.00000000000E+00 0. -1.
</event>
<event>
 5    1  0.8240609E+001  0.1599675E+01  0.7818608E-02  0.3353716E+00
         11   -1    0    0    0    0  0.00000000000E+00  0.00000000000E+00  0.39999999674E+01  0.40000000000E+01  0.51100000000E-03 0.  1.
    9000002   -1    0    0    0    0 -0.00000000000E+00 -0.00000000000E+00  0.00000000000E+00  0.93800000000E+00  0.93800000000E+00 0.  1.
         11    1    1    2    0    0  0.64048326559E-01  0.19902993665E-01  0.66515180010E+00  0.66852486535E+00  0.51100000000E-03 0.  1.
    9000002    1    1    2    0    0 -0.37257645391E+00 -0.12315365078E+00  0.10376407729E+00  0.10220523565E+01  0.93800000000E+00 0.  1.
         22    1    1    2    0    0  0.30852812735E+00  0.10325065711E+00  0.32310840900E+01  0.32474227781E+01  0.00000000000E+00 0.  1.
</event>
<event>
 5    1  0.8240609E+001  0.1599677E+01  0.7818608E-02  0.3353714E+00
         11   -1    0    0    0    0  0.00000000000E+00  0.00000000000E+00  0.39999999674E+01  0.40000000000E+01  0.51100000000E-03 0. -1.
    9000002   -1    0    0    0    0 -0.00000000000E+00 -0.00000000000E+00  0.00000000000E+00  0.93800000000E+00  0.93800000000E+00 0. -1.
         11    1    1    2    0    0 -0.23092813751E-01 -0.18620598414E+00  0.12359734660E+01  0.12501346393E+01  0.51100000000E-03 0. -1.
    9000002    1    1    2    0    0  0.70985028740E-01  0.56883216909E+00  0.22800286747E+00  0.11226923971E+01  0.93800000000E+00 0. -1.
         22    1    1    2    0    0 -0.47892214989E-01 -0.38262618494E+00  0.25360236339E+01  0.25651729636E+01  0.00000000000E+00 0. -1.
</event>
<event>
 5    1  0.8240609E+001  0.1592393E+01  0.7818608E-02  0.3361662E+00
         11   -1    0    0    0    0  0.00000000000E+00  0.00000000000E+00  0.39999999674E+01  0.40000000000E+01  0.51100000000E-03 0.  1.
    9000002   -1    0    0    0    0 -0.00000000000E+00 -0.00000000000E+00  0.00000000000E+00  0.93800000000E+00  0.93800000000E+00 0.  1.
         11    1    1    2    0    0  0.18920834307E-01 -0.11748018924E+00  0.86288040712E+00  0.87104675589E+00  0.51100000000E-03 0.  1.
    9000002    1    1    2    0    0  0.21066296747E+00  0.28463838833E+00  0.90022568741E-01  0.10066508634E+01  0.93800000000E+00 0.  1.
         22    1    1    2    0    0 -0.22958380177E+00 -0.16715819909E+00  0.30470969915E+01  0.30603023807E+01  0.00000000000E+00 0.  1.
</event>
<event>
 5    1  0.8240609E+001  0.1599677E+01  0.7818608E-02  0.3353714E+00
         11   -1    0    0    0    0  0.00000000000E+00  0.00000000000E+00  0.39999999674E+01  0.40000000000E+01  0.51100000000E-03 0.  1.
    9000002   -1    0    0    0    0 -0.00000000000E+00 -0.00000000000E+00  0.00000000000E+00  0.93800000000E+00  0.93800000000E+00 0. -1.
         11    1    1    2    0    0 -0.16888161519E+00 -0.57254932580E-01  0.12452737025E+01  0.12579769404E+01  0.51100000000E-03 0.  1.
    9000002    1    1    2    0    0  0.51392492621E+00  0.17435653737E+00  0.20314523149E+00  0.11025565822E+01  0.93800000000E+00 0. -1.
         22    1    1    2    0    0 -0.34504331102E+00 -0.11710160479E+00  0.25515810334E+01  0.25774664774E+01  0.00000000000E+00 0.  1.
</event>
<event>
 5    1  0.8240609E+001  0.1549919E+01  0.7818608E-02  0.3409580E+00
         11   -1    0    0    0    0  0.00000000000E+00  0.00000000000E+00  0.39999999674E+01  0.40000000000E+01  0.51100000000E-03 0. -1.
    9000002   -1    0    0    0    0 -0.00000000000E+00 -0.00000000000E+00  0.00000000000E+00  0.93800000000E+00  0.93800000000E+00 0.  1.
         11    1    1    2    0    0  0.10275460342E+00 -0.87853561767E-01  0.10813685465E+01  0.10897866540E+01  0.51100000000E-03 0. -1.
    9000002    1    1    2    0    0  0.31615626467E+00 -0.21051251248E+00  0.13909949746E+00  0.10215003533E+01  0.93800000000E+00 0.  1.
         22    1    1    2    0    0 -0.41891086809E+00  0.29836607424E+00  0.27795319234E+01  0.28267129927E+01  0.00000000000E+00 0. -1.
</event>
<event>
 5    1  0.8240609E+001  0.1599629E+01  0.7818608E-02  0.3353766E+00
         11   -1    0    0    0    0  0.00000000000E+00  0.00000000000E+00  0.39999999674E+01  0.40000000000E+01  0.51100000000E-03 0. -1.
    9000002   -1    0    0    0    0 -0.00000000000E+00 -0.00000000000E+00  0.00000000000E+00  0.93800000000E+00  0.93800000000E+00 0. -1.
         11    1    1    2    0    0 -0.86320428743E-01 -0.30245133203E-01  0.93819814182E+00  0.94264627455E+00  0.51100000000E-03 0. -1.
    9000002    1    1    2    0    0  0.37560180971E+00  0.10148024800E+00  0.10200398092E+00  0.10205997121E+01  0.93800000000E+00 0. -1.
         22    1    1    2    0    0 -0.28928138097E+00 -0.71235114796E-01  0.29597978446E+01  0.29747540134E+01  0.00000000000E+00 0. -1.
</event>
<event>
 5    1  0.9383036E+001  0.1572572E+01  0.7818608E-02  0.3383682E+00
         11   -1    0    0    0    0  0.00000000000E+00  0.00000000000E+00  0.39999999674E+01  0.40000000000E+01  0.51100000000E-03 0.  1.
    9000002   -1    0    0    0    0 -0.00000000000E+00 -0.00000000000E+00  0.00000000000E+00  0.93800000000E+00  0.93800000000E+00 0.  1.
         11    1    1    2    0    0 -0.31027334896E-02  0.15199631475E+00  0.12556906985E+01  0.12648604264E+01  0.51100000000E-03 0.  1.
    9000002    1    1    2    0    0  0.35585442086E-01  0.10138888652E+00  0.27695037210E-01  0.94454065295E+00  0.93800000000E+00 0.  1.
         22    1    1    2    0    0 -0.32482708596E-01 -0.25338520127E+00  0.27166142316E+01  0.27285989207E+01  0.00000000000E+00 0.  1.
</event>
<event>
 5    1  0.8240609E+001  0.1599108E+01  0.7818608E-02  0.3354333E+00
         11   -1    0    0    0    0  0.00000000000E+00  0.00000000000E+00  0.39999999674E+01  0.40000000000E+01  0.51100000000E-03 0. -1.
    9000002   -1    0    0    0    0 -0.00000000000E+00 -0.00000000000E+00  0.00000000000E+00  0.93800000000E+00  0.93800000000E+00 0. -1.
         11    1    1    2    0    0  0.20723384664E-01  0.36294163170E-02  0.11165627960E+00  0.11362225676E+00  0.51100000000E-03 0. -1.
    9000002    1    1    2    0    0 -0.38664872627E+00 -0.96440558388E-01  0.10756520270E+00  0.10247986591E+01  0.93800000000E+00 0. -1.
         22    1    1    2    0    0  0.36592534161E+00  0.92811142071E-01  0.37807784851E+01  0.37995790842E+01  0.00000000000E+00 0. -1.
</event>
<event>
 5    1  0.8240609E+001  0.1475710E+01  0.7818608E-02  0.3500396E+00
         11   -1    0    0    0    0  0.00000000000E+00  0.00000000000E+00  0.39999999674E+01  0.40000000000E+01  0.51100000000E-03 0.  1.
    9000002   -1    0    0    0    0 -0.00000000000E+00 -0.00000000000E+00  0.00000000000E+00  0.93800000000E+00  0.93800000000E+00 0.  1.
         11    1    1    2    0    0 -0.43983286481E+00 -0.29422201215E+00  0.62861672230E+00  0.82169263479E+00  0.51100000000E-03 0.  1.
    9000002    1    1    2    0    0  0.48273564202E+00  0.77585272458E+00  0.87833478219E+00  0.15767996512E+01  0.93800000000E+00 0.  1.
         22    1    1    2    0    0 -0.42902777214E-01 -0.48163071243E+00  0.24930484629E+01  0.25395077140E+01  0.00000000000E+00 0.  1.
</event>
<event>
 5    1  0.8240609E+001  0.1599257E+01  0.7818608E-02  0.3354171E+00
         11   -1    0    0    0    0  0.00000000000E+00  0.00000000000E+00  0.39999999674E+01  0.40000000000E+01  0.51100000000E-03 0.  1.
    9000002   -1    0    0    0    0 -0.00000000000E+00 -0.00000000000E+00  0.00000000000E+00  0.93800000000E+00  0.93800000000E+00 0.  1.
         11    1    1    2    0    0  0.77989115996E-01 -0.85121160422E-01  0.11874549892E+01  0.11930538658E+01  0.51100000000E-03 0.  1.
    9000002    1    1    2    0    0 -0.30003861009E+00  0.21934150931E+00  0.93192612081E-01  0.10132436667E+01  0.93800000000E+00 0.  1.
         22    1    1    2    0    0  0.22204949410E+00 -0.13422034889E+00  0.27193523661E+01  0.27317024675E+01  0.00000000000E+00 0.  1.
</event>
<event>
 5    1  0.8240609E+001  0.1599666E+01  0.7818608E-02  0.3353726E+00
         11   -1    0    0    0    0  0.00000000000E+00  0.00000000000E+00  0.39999999674E+01  0.40000000000E+01  0.51100000000E-03 0. -1.
    9000002   -1    0    0    0    0 -0.00000000000E+00 -0.00000000000E+00  0.00000000000E+00  0.93800000000E+00  0.93800000000E+00 0. -1.
         11    1    1    2    0    0  0.27910922448E-02 -0.11626142593E+00  0.94990659356E+00  0.95699911545E+00  0.51100000000E-03 0. -1.
    9000002    1    1    2    0    0 -0.25171018260E-01  0.47273744424E+00  0.15276771953E+00  0.10617420814E+01  0.93800000000E+00 0. -1.
         22    1    1    2    0    0  0.22379926015E-01 -0.35647601831E+00  0.28973256543E+01  0.29192588031E+01  0.00000000000E+00 0. -1.
</event>
<event>
 5    1  0.8700482E+001  0.1599677E+01  0.7818608E-02  0.3353714E+00
         11   -1    0    0    0    0  0.00000000000E+00  0.00000000000E+00  0.39999999674E+01  0.40000000000E+01  0.51100000000E-03 0.  1.
    9000002   -1    0    0    0    0 -0.00000000000E+00 -0.00000000000E+00  0.00000000000E+00  0.93800000000E+00  0.93800000000E+00 0. -1.
         11    1    1    2    0    0 -0.61842266561E-01 -0.10074107148E+00  0.12092397360E+01  0.12150037982E+01  0.51100000000E-03 0. -1.
    9000002    1    1    2    0    0  0.19947506426E+00  0.32501450741E+00  0.97863599181E-01  0.10172738153E+01  0.93800000000E+00 0. -1.
         22    1    1    2    0    0 -0.13763279770E+00 -0.22427343593E+00  0.26928966322E+01  0.27057223864E+01  0.00000000000E+00 0.  1.
</event>
<event>
 5    1  0.8240609E+001  0.1599672E+01  0.7818608E-02  0.3353720E+00
         11   -1    0    0    0    0  0.00000000000E+00  0.00000000000E+00  0.39999999674E+01  0.40000000000E+01  0.51100000000E-03 0. -1.
    9000002   -1    0    0    0    0 -0.00000000000E+00 -0.00000000000E+00  0.00000000000E+00  0.93800000000E+00  0.93800000000E+00 0.  1.
         11    1    1    2    0    0  0.85185498283E-01 -0.25832556000E-01  0.86756679104E+00  0.87212171634E+00  0.51100000000E-03 0. -1.
    9000002    1    1    2    0    0 -0.38931844182E+00  0.10879482416E+00  0.11028469331E+00  0.10273324080E+01  0.93800000000E+00 0.  1.
         22    1    1    2    0    0  0.30413294354E+00 -0.82962268157E-01  0.30221484830E+01  0.30385458757E+01  0.00000000000E+00 0. -1.
</event>
<event>
 5    1  0.8240609E+001  0.1599655E+01  0.7818608E-02  0.3353737E+00
         11   -1    0    0    0    0  0.00000000000E+00  0.00000000000E+00  0.39999999674E+01  0.40000000000E+01  0.51100000000E-03 0. -1.
    9000002   -1    0    0    0    0 -0.00000000000E+00 -0.00000000000E+00  0.00000000000E+00  0.93800000000E+00  0.93800000000E+00 0. -1.
         11    1    1    2    0    0  0.44832131707E-01 -0.33184273423E-01  0.56042955354E+00  0.56319859876E+00  0.51100000000E-03 0. -1.
    9000002    1    1    2    0    0 -0.33736348526E+00  0.22310668566E+00  0.11042686900E+00  0.10274379824E+01  0.93800000000E+00 0. -1.
         22    1    1    2    0    0  0.29253135356E+00 -0.18992241224E+00  0.33291435448E+01  0.33473634188E+01  0.00000000000E+00 0. -1.
</event>
<event>
 5    1  0.8240609E+001  0.1598969E+01  0.7818608E-02  0.3354484E+00
         11   -1    0    0    0    0  0.00000000000E+00  0.00000000000E+00  0.39999999674E+01  0.40000000000E+01  0.51100000000E-03 0. -1.
    9000002   -1    0    0    0    0 -0.00000000000E+00 -0.00000000000E+00  0.00000000000E+00  0.93800000000E+00  0.93800000000E+00 0. -1.
         11    1    1    2    0    0 -0.71985518189E-01 -0.38104430047E-01  0.13024964874E+01  0.13050406980E+01  0.51100000000E-03 0. -1.
    9000002    1    1    2    0    0  0.27201391560E+00  0.18755563495E+00  0.73609680284E-01  0.99721164830E+00  0.93800000000E+00 0. -1.
         22    1    1    2    0    0 -0.20002839741E+00 -0.14945120490E+00  0.26238937996E+01  0.26357476537E+01  0.00000000000E+00 0. -1.
</event>
<event>
 5    1  0.8240609E+001  0.1599629E+01  0.7818608E-02  0.3353766E+00
         11   -1    0    0    0    0  0.00000000000E+00  0.00000000000E+00  0.39999999674E+01  0.40000000000E+01  0.51100000000E-03 0. -1.
    9000002   -1    0    0    0    0 -0.00000000000E+00 -0.00000000000E+00  0.00000000000E+00  0.93800000000E+00  0.93800000000E+00 0.  1.
         11    1    1    2    0    0 -0.36847080811E-01  0.31204294286E-01  0.48373376490E+00  0.48613787322E+00  0.51100000000E-03 0. -1.
    9000002    1    1    2    0    0  0.26977643681E+00 -0.28602020657E+00  0.10422091893E+00  0.10223956594E+01  0.93800000000E+00 0.  1.
         22    1    1    2    0    0 -0.23292935600E+00  0.25481591228E+00  0.34120452835E+01  0.34294664674E+01  0.00000000000E+00 0. -1.
</event>
<event>
 5    1  0.8240609E+001  0.1599673E+01  0.7818608E-02  0.3353718E+00
         11   -1    0    0    0    0  0.00000000000E+00  0.00000000000E+00  0.39999999674E+01  0.40000000000E+01  0.51100000000E-03 0. -1.
    9000002   -1    0    0    0    0 -0.00000000000E+00 -0.00000000000E+00  0.00000000000E+00  0.93800000000E+00  0.93800000000E+00 0. -1.
         11    1    1    2    0    0  0.20665253319E-01  0.44361052989E-01  0.47010712785E+00  0.47264778482E+00  0.51100000000E-03 0. -1.
    9000002    1    1    2    0    0 -0.18112371829E+00 -0.36098353914E+00  0.11008229210E+00  0.10271694251E+01  0.93800000000E+00 0. -1.
         22    1    1    2    0    0  0.16045846497E+00  0.31662248615E+00  0.34198105474E+01  0.34381827901E+01  0.00000000000E+00 0. -1.
</event>
<event>
 5    1  0.8240609E+001  0.1599676E+01  0.7818608E-02  0.3353715E+00
         11   -1    0    0    0    0  0.00000000000E+00  0.00000000000E+00  0.39999999674E+01  0.40000000000E+01  0.51100000000E-03 0. -1.
    9000002   -1    0    0    0    0 -0.00000000000E+00 -0.00000000000E+00  0.00000000000E+00  0.93800000000E+00  0.93800000000E+00 0. -1.
         11    1    1    2    0    0  0.10876660295E+00 -0.53631542570E-01  0.76501813353E+00  0.77457054038E+00  0.51100000000E-03 0. -1.
    9000002    1    1    2    0    0 -0.53743400177E+00  0.26461792904E+00  0.25032486466E+00  0.11407736377E+01  0.93800000000E+00 0. -1.
         22    1    1    2    0    0  0.42866739882E+00 -0.21098638647E+00  0.29846569692E+01  0.30226558219E+01  0.00000000000E+00 0. -1.
</event>
<event>
 5    1  0.8240609E+001  0.1597078E+01  0.7818608E-02  0.3356541E+00
         11   -1    0    0    0    0  0.00000000000E+00  0.00000000000E+00  0.39999999674E+01  0.40000000000E+01  0.51100000000E-03 0. -1.
    9000002   -1    0    0    0    0 -0.00000000000E+00 -0.00000000000E+00  0.00000000000E+00  0.93800000000E+00  0.93800000000E+00 0. -1.
         11    1    1    2    0    0  0.51445471731E-01  0.15928574576E+00  0.13714240837E+01  0.13816015576E+01  0.51100000000E-03 0. -1.
    9000002    1    1    2    0    0 -0.29700426067E+00 -0.48743832825E+00  0.22845739536E+00  0.11215366406E+01  0.93800000000E+00 0. -1.
         22    1    1    2    0    0  0.24555878894E+00  0.32815258249E+00  0.24001184883E+01  0.24348618018E+01  0.00000000000E+00 0. -1.
</event>
<event>
 5    1  0.8240609E+001  0.1599650E+01  0.7818608E-02  0.3353744E+00
         11   -1    0    0    0    0  0.00000000000E+00  0.00000000000E+00  0.39999999674E+01  0.40000000000E+01  0.51100000000E-03 0. -1.
    9000002   -1    0    0    0    0 -0.00000000000E+00 -0.00000000000E+00  0.00000000000E+00  0.93800000000E+00  0.93800000000E+00 0.  1.
         11    1    1    2    0    0  0.14020634580E+00  0.73674102354E-01  0.14282078129E+01  0.14369632949E+01  0.51100000000E-03 0. -1.
    9000002    1    1    2    0    0 -0.36468893686E+00 -0.19962224482E+00  0.11685301839E+00  0.10326401548E+01  0.93800000000E+00 0.  1.
         22    1    1    2    0    0  0.22448259106E+00  0.12594814247E+00  0.24549391360E+01  0.24683965504E+01  0.00000000000E+00 0.  1.
</event>
<event>
 5    1  0.8240609E+001  0.1599644E+01  0.7818608E-02  0.3353750E+00
         11   -1    0    0    0    0  0.00000000000E+00  0.00000000000E+00  0.39999999674E+01  0.40000000000E+01  0.51100000000E-03 0. -1.
    9000002   -1    0    0    0    0 -0.00000000000E+00 -0.00000000000E+00  0.00000000000E+00  0.93800000000E+00  0.93800000000E+00 0.  1.
         11    1    1    2    0    0 -0.17696185687E+00 -0.12361834740E+00  0.12141129335E+01  0.12331534661E+01  0.51100000000E-03 0. -1.
    9000002    1    1    2    0    0  0.52049927058E+00  0.38032592141E+00  0.29290512606E+00  0.11752466592E+01  0.93800000000E+00 0.  1.
         22    1    1    2    0    0 -0.34353741372E+00 -0.25670757400E+00  0.24929819078E+01  0.25295998746E+01  0.00000000000E+00 0. -1.
</event>
<event>
 5    1  0.8240609E+001  0.1599665E+01  0.7818608E-02  0.3353727E+00
         11   -1    0    0    0    0  0.00000000000E+00  0.00000000000E+00  0.39999999674E+01  0.40000000000E+01  0.51100000000E-03 0. -1.
    9000002   -1    0    0    0    0 -0.00000000000E+00 -0.00000000000E+00  0.00000000000E+00  0.93800000000E+00  0.93800000000E+00 0.  1.
         11    1    1    2    0    0  0.70179332975E-01 -0.21171091685E-01  0.79697209219E+00  0.80033626105E+00  0.51100000000E-03 0. -1.
    9000002    1    1    2    0    0 -0.34560188353E+00  0.87913914388E-01  0.85340633105E-01  0.10071229031E+01  0.93800000000E+00 0.  1.
         22    1    1    2    0    0  0.27542255056E+00 -0.66742822703E-01  0.31176872421E+01  0.31305408359E+01  0.00000000000E+00 0. -1.
</event>
<event>
 5    1  0.8240609E+001  0.1599081E+01  0.7818608E-02  0.3354361E+00
         11   -1    0    0    0    0  0.00000000000E+00  0.00000000000E+00  0.39999999674E+01  0.40000000000E+01  0.51100000000E-03 0.  1.
    9000002   -1    0    0    0    0 -0.00000000000E+00 -0.00000000000E+00  0.00000000000E+00  0.93800000000E+00  0.93800000000E+00 0.  1.
         11    1    1    2    0    0  0.99006177816E-01  0.30223270034E-01  0.83035246628E+00  0.83678022723E+00  0.51100000000E-03 0.  1.
    9000002    1    1    2    0    0 -0.51745747473E+00 -0.46612433150E-01  0.18595467924E+00  0.10882821784E+01  0.93800000000E+00 0.  1.
         22    1    1    2    0    0  0.41845129691E+00  0.16389163116E-01  0.29836928218E+01  0.30129375944E+01  0.00000000000E+00 0.  1.
</event>
<event>
 5    1  0.8240609E+001  0.1599616E+01  0.7818608E-02  0.3353780E+00
         11   -1    0    0    0    0  0.00000000000E+00  0.00000000000E+00  0.39999999674E+01  0.40000000000E+01  0.51100000000E-03 0.  1.
    9000002   -1    0    0    0    0 -0.00000000000E+00 -0.00000000000E+00  0.00000000000E+00  0.93800000000E+00  0.93800000000E+00 0.  1.
         11    1    1    2    0    0  0.25859981004E-01 -0.55354151551E-01  0.62956945892E+00  0.63252730015E+00  0.51100000000E-03 0.  1.
    9000002    1    1    2    0    0 -0.20270948159E+00  0.33916009702E+00  0.10529183311E+00  0.10232551370E+01  0.93800000000E+00 0.  1.
         22    1    1    2    0    0  0.17684950059E+00 -0.28380594547E+00  0.32651386753E+01  0.32822175628E+01  0.00000000000E+00 0.  1.
</event>
<event>
 5    1  0.8240609E+001  0.1599075E+01  0.7818608E-02  0.3354368E+00
         11   -1    0    0    0    0  0.00000000000E+00  0.00000000000E+00  0.39999999674E+01  0.40000000000E+01  0.51100000000E-03 0. -1.
    9000002   -1    0    0    0    0 -0.00000000000E+00 -0.00000000000E+00  0.00000000000E+00  0.93800000000E+00  0.93800000000E+00 0.  1.
         11    1    1    2    0    0 -0.11303584829E+00 -0.16347913375E+00  0.11564045477E+01  0.11733602470E+01  0.51100000000E-03 0. -1.
    9000002    1    1    2    0    0  0.44593095744E+00  0.51843272706E+00  0.33343766768E+00  0.12077464922E+01  0.93800000000E+00 0.  1.
         22    1    1    2    0    0 -0.33289510914E+00 -0.35495359331E+00  0.25101577520E+01  0.25568932608E+01  0.00000000000E+00 0. -1.
</event>
<event>
 5    1  0.8240609E+001  0.1599676E+01  0.7818608E-02  0.3353715E+00
         11   -1    0    0    0    0  0.00000000000E+00  0.00000000000E+00  0.39999999674E+01  0.40000000000E+01  0.51100000000E-03 0. -1.
    9000002   -1    0    0    0    0 -0.00000000000E+00 -0.00000000000E+00  0.00000000000E+00  0.93800000000E+00  0.93800000000E+00 0.  1.
         11    1    1    2    0    0 -0.15691202876E+00 -0.12012015244E+00  0.14099838694E+01  0.14237643797E+01  0.51100000000E-03 0. -1.
    9000002    1    1    2    0    0  0.42199963331E+00  0.32625435751E+00  0.19591688874E+00  0.10967009727E+01  0.93800000000E+00 0.  1.
         22    1    1    2    0    0 -0.26508760455E+00 -0.20613420507E+00  0.23940992092E+01  0.24175346476E+01  0.00000000000E+00 0. -1.
</event>
<event>
 5    1  0.8240609E+001  0.1599660E+01  0.7818608E-02  0.3353733E+00
         11   -1    0    0    0    0  0.00000000000E+00  0.00000000000E+00  0.39999999674E+01  0.40000000000E+01  0.51100000000E-03 0. -1.
    9000002   -1    0    0    0    0 -0.00000000000E+00 -0.00000000000E+00  0.00000000000E+00  0.93800000000E+00  0.93800000000E+00 0.  1.
         11    1    1    2    0    0 -0.81546110558E-01  0.32599315271E-01  0.58548482241E+00  0.59203481477E+00  0.51100000000E-03 0. -1.
    9000002    1    1    2    0    0  0.51563607472E+00 -0.23098179765E+00  0.22115167631E+00  0.11171325867E+01  0.93800000000E+00 0.  1.
         22    1    1    2    0    0 -0.43408996416E+00  0.19838248238E+00  0.31933634686E+01  0.32288325985E+01  0.00000000000E+00 0. -1.
</event>
<event>
 5    1  0.8240609E+001  0.1599668E+01  0.7818608E-02  0.3353724E+00
         11   -1    0    0    0    0  0.00000000000E+00  0.00000000000E+00  0.39999999674E+01  0.40000000000E+01  0.51100000000E-03 0. -1.
    9000002   -1    0    0    0    0 -0.00000000000E+00 -0.00000000000E+00  0.00000000000E+00  0.93800000000E+00  0.93800000000E+00 0.  1.
         11    1    1    2    0    0  0.76446556420E-01 -0.10707059409E+00  0.11487682487E+01  0.11562771893E+01  0.51100000000E-03 0. -1.
    9000002    1    1    2    0    0 -0.26709993730E+00  0.36477925963E+00  0.13888090684E+00  0.10504942604E+01  0.93800000000E+00 0.  1.
         22    1    1    2    0    0  0.19065338088E+00 -0.25770866554E+00  0.27123508118E+01  0.27312285504E+01  0.00000000000E+00 0. -1.
</event>
<event>
 5    1  0.8240609E+001  0.1599675E+01  0.7818608E-02  0.3353716E+00
         11   -1    0    0    0    0  0.00000000000E+00  0.00000000000E+00  0.39999999674E+01  0.40000000000E+01  0.51100000000E-03 0.  1.
    9000002   -1    0    0    0    0 -0.00000000000E+00 -0.00000000000E+00  0.00000000000E+00  0.93800000000E+00  0.93800000000E+00 0.  1.
         11    1    1    2    0    0 -0.74103068942E+00  0.37018317452E-01  0.12594151034E+01  0.14617193651E+01  0.51100000000E-03 0.  1.
    9000002    1    1    2    0    0  0.12756668009E+01 -0.64132649390E-01  0.18375074105E+01  0.24264616764E+01  0.93800000000E+00 0.  1.
         22    1    1    2    0    0 -0.53463611144E+00  0.27114331938E-01  0.90307745345E+00  0.10498189585E+01  0.00000000000E+00 0. -1.
</event>
<event>
 5    1  0.8240609E+001  0.1599673E+01  0.7818608E-02  0.3353719E+00
         11   -1    0    0    0    0  0.00000000000E+00  0.00000000000E+00  0.39999999674E+01  0.40000000000E+01  0.51100000000E-03 0.  1.
    9000002   -1    0    0    0    0 -0.00000000000E+00 -0.00000000000E+00  0.00000000000E+00  0.93800000000E+00  0.93800000000E+00 0.  1.
         11    1    1    2    0    0 -0.58478907417E-01 -0.14737652438E+00  0.13819243612E+01  0.13909905908E+01  0.51100000000E-03 0.  1.
    9000002    1    1    2    0    0  0.16071478076E+00  0.41823340957E+00  0.13630984674E+00  0.10484144219E+01  0.93800000000E+00 0.  1.
         22    1    1    2    0    0 -0.10223587334E+00 -0.27085688519E+00  0.24817657594E+01  0.24985949873E+01  0.00000000000E+00 0.  1.
</event>
<event>
 5    1  0.8240609E+001  0.1549451E+01  0.7818608E-02  0.3410124E+00
         11   -1    0    0    0    0  0.00000000000E+00  0.00000000000E+00  0.39999999674E+01  0.40000000000E+01  0.51100000000E-03 0.  1.
    9000002   -1    0    0    0    0 -0.00000000000E+00 -0.00000000000E+00  0.00000000000E+00  0.93800000000E+00  0.93800000000E+00 0. -1.
         11    1    1    2    0    0  0.19031497864E-01  0.15056725310E+00  0.42905478872E+00  0.45510544763E+00  0.51100000000E-03 0.  1.
    9000002    1    1    2    0    0  0.12233315360E+00  0.14438162510E+00  0.62179096309E-01  0.95891693809E+00  0.93800000000E+00 0. -1.
         22    1    1    2    0    0 -0.14136465146E+00 -0.29494887821E+00  0.35087660823E+01  0.35239776143E+01  0.00000000000E+00 0.  1.
</event>
<event>
 5    1  0.8240609E+001  0.1599677E+01  0.7818608E-02  0.3353714E+00
         11   -1    0    0    0    0  0.00000000000E+00  0.00000000000E+00  0.39999999674E+01  0.40000000000E+01  0.51100000000E-03 0. -1.
    9000002   -1    0    0    0    0 -0.00000000000E+00 -0.00000000000E+00  0.00000000000E+00  0.93800000000E+00  0.93800000000E+00 0.  1.
         11    1    1    2    0    0  0.83594174002E-01  0.10186647299E+00  0.11095214845E+01  0.11173195380E+01  0.51100000000E-03 0. -1.
    9000002    1    1    2    0    0 -0.29122622668E+00 -0.35521216045E+00  0.14350001245E+00  0.10542412663E+01  0.93800000000E+00 0.  1.
         22    1    1    2    0    0  0.20763205268E+00  0.25334568746E+00  0.27469784704E+01  0.27664391957E+01  0.00000000000E+00 0. -1.
</event>
<event>
 5    1  0.8240609E+001  0.1564251E+01  0.7818608E-02  0.3393102E+00
         11   -1    0    0    0    0  0.00000000000E+00  0.00000000000E+00  0.39999999674E+01  0.40000000000E+01  0.51100000000E-03 0.  1.
    9000002   -1    0    0    0    0 -0.00000000000E+00 -0.00000000000E+00  0.00000000000E+00  0.93800000000E+00  0.93800000000E+00 0.  1.
         11    1    1    2    0    0  0.17568933458E+00  0.50376307518E-02  0.10725214141E+01  0.10868277530E+01  0.51100000000E-03 0.  1.
    9000002    1    1    2    0    0  0.83818210827E-01  0.10908873238E+00  0.39022567789E-01  0.94883750179E+00  0.93800000000E+00 0.  1.
         22    1    1    2    0    0 -0.25950754541E+00 -0.11412636314E+00  0.28884559855E+01  0.29023347452E+01  0.00000000000E+00 0.  1.
</event>
<event>
 5    1  0.8240609E+001  0.1594154E+01  0.7818608E-02  0.3359733E+00
         11   -1    0    0    0    0  0.00000000000E+00  0.00000000000E+00  0.39999999674E+01  0.40000000000E+01  0.51100000000E-03 0. -1.
    9000002   -1    0    0    0    0 -0.00000000000E+00 -0.00000000000E+00  0.00000000000E+00  0.93800000000E+00  0.93800000000E+00 0. -1.
         11    1    1    2    0    0  0.26704825339E-02 -0.25791638585E-01  0.79921385546E-01  0.84023979235E-01  0.51100000000E-03 0. -1.
    9000002    1    1    2    0    0  0.37169297260E+00  0.11417510788E+00  0.10641198755E+00  0.10209599073E+01  0.93800000000E+00 0. -1.
         22    1    1    2    0    0 -0.37436345514E+00 -0.88383469291E-01  0.38136665943E+01  0.38330161135E+01  0.00000000000E+00 0. -1.
</event>
<event>
 5    1  0.8240609E+001  0.1522579E+01  0.7818608E-02  0.3441933E+00
         11   -1    0    0    0    0  0.00000000000E+00  0.00000000000E+00  0.39999999674E+01  0.40000000000E+01  0.51100000000E-03 0.  1.
    9000002   -1    0    0    0    0 -0.00000000000E+00 -0.00000000000E+00  0.00000000000E+00  0.93800000000E+00  0.93800000000E+00 0. -1.
         11    1    1    2    0    0 -0.31618628629E+00  0.42009037013E+00  0.98870917600E+00  0.11198195312E+01  0.51100000000E-03 0.  1.
    9000002    1    1    2    0    0  0.60276671884E+00 -0.48964060869E+00  0.54469933504E+00  0.13340228666E+01  0.93800000000E+00 0. -1.
         22    1    1    2    0    0 -0.28658043255E+00  0.69550238566E-01  0.24665914563E+01  0.24841576022E+01  0.00000000000E+00 0.  1.
</event>
<event>
 5    1  0.8240609E+001  0.1599661E+01  0.7818608E-02  0.3353731E+00
         11   -1    0    0    0    0  0.00000000000E+00  0.00000000000E+00  0.39999999674E+01  0.40000000000E+01  0.51100000000E-03 0.  1.
    9000002   -1    0    0    0    0 -0.00000000000E+00 -0.00000000000E+00  0.00000000000E+00  0.93800000000E+00  0.93800000000E+00 0. -1.
         11    1    1    2    0    0  0.14059859664E-01  0.16035557370E+00  0.12566307867E+01  0.12668988850E+01  0.51100000000E-03 0.  1.
    9000002    1    1    2    0    0 -0.51795919165E-01 -0.47966197558E+00  0.15889159491E+00  0.10667000361E+01  0.93800000000E+00 0. -1.
         22    1    1    2    0    0  0.37736059502E-01  0.31930640188E+00  0.25844775857E+01  0.26044010789E+01  0.00000000000E+00 0.  1.
</event>
<event>
 5    1  0.8240609E+001  0.1593453E+01  0.7818608E-02  0.3360500E+00
         11   -1    0    0    0    0  0.00000000000E+00  0.00000000000E+00  0.39999999674E+01  0.40000000000E+01  0.51100000000E-03 0. -1.
    9000002   -1    0    0    0    0 -0.00000000000E+00 -0.00000000000E+00  0.00000000000E+00  0.93800000000E+00  0.93800000000E+00 0. -1.
         11    1    1    2    0    0  0.26438451674E+00 -0.20785765836E+00  0.11349432840E+01  0.11837231508E+01  0.51100000000E-03 0. -1.
    9000002    1    1    2    0    0 -0.68536368305E+00  0.39985477047E+00  0.47078804628E+00  0.13157099225E+01  0.93800000000E+00 0. -1.
         22    1    1    2    0    0  0.42097916632E+00 -0.19199711210E+00  0.23942686371E+01  0.24385669267E+01  0.00000000000E+00 0. -1.
</event>
<event>
 5    1  0.8240609E+001  0.1576936E+01  0.7818608E-02  0.3378783E+00
         11   -1    0    0    0    0  0.00000000000E+00  0.00000000000E+00  0.39999999674E+01  0.40000000000E+01  0.51100000000E-03 0. -1.
    9000002   -1    0    0    0    0 -0.00000000000E+00 -0.00000000000E+00  0.00000000000E+00  0.93800000000E+00  0.93800000000E+00 0. -1.
         11    1    1    2    0    0 -0.82726502481E-01  0.81828280848E-01  0.30407201644E+00  0.32557578850E+00  0.51100000000E-03 0. -1.
    9000002    1    1    2    0    0  0.39580816885E+00  0.38604147747E-01  0.12578572666E+00  0.10265575657E+01  0.93800000000E+00 0. -1.
         22    1    1    2    0    0 -0.31308166637E+00 -0.12043242859E+00  0.35701422243E+01  0.35858666458E+01  0.00000000000E+00 0. -1.
</event>
<event>
 5    1  0.8240609E+001  0.1589857E+01  0.7818608E-02  0.3364447E+00
         11   -1    0    0    0    0  0.00000000000E+00  0.00000000000E+00  0.39999999674E+01  0.40000000000E+01  0.51100000000E-03 0.  1.
    9000002   -1    0    0    0    0 -0.00000000000E+00 -0.00000000000E+00  0.00000000000E+00  0.93800000000E+00  0.93800000000E+00 0.  1.
         11    1    1    2    0    0  0.26018081357E-01 -0.12175797324E-01  0.85025591137E+00  0.85074118658E+00  0.51100000000E-03 0.  1.
    9000002    1    1    2    0    0  0.11314028344E+00 -0.33241827259E+00  0.90641397648E-01  0.10056652001E+01  0.93800000000E+00 0.  1.
         22    1    1    2    0    0 -0.13915836479E+00  0.34459406991E+00  0.30591026583E+01  0.30815936133E+01  0.00000000000E+00 0.  1.
</event>
<event>
 5    1  0.2702285E+002  0.1548801E+01  0.7818608E-02  0.3410879E+00
         11   -1    0    0    0    0  0.00000000000E+00  0.00000000000E+00  0.39999999674E+01  0.40000000000E+01  0.51100000000E-03 0.  1.
    9000002   -1    0    0    0    0 -0.00000000000E+00 -0.00000000000E+00  0.00000000000E+00  0.93800000000E+00  0.93800000000E+00 0.  1.
         11    1    1    2    0    0  0.23791764744E+00 -0.24472159082E-01  0.12402123509E+01  0.12630639849E+01  0.51100000000E-03 0.  1.
    9000002    1    1    2    0    0  0.37582262973E-01 -0.30115769646E-01  0.39371327417E-01  0.94006036375E+00  0.93800000000E+00 0.  1.
         22    1    1    2    0    0 -0.27549991041E+00  0.54587928728E-01  0.27204162891E+01  0.27348756514E+01  0.00000000000E+00 0. -1.
</event>
<event>
 5    1  0.8240609E+001  0.1599655E+01  0.7818608E-02  0.3353737E+00
         11   -1    0    0    0    0  0.00000000000E+00  0.00000000000E+00  0.39999999674E+01  0.40000000000E+01  0.51100000000E-03 0. -1.
    9000002   -1    0    0    0    0 -0.00000000000E+00 -0.00000000000E+00  0.00000000000E+00  0.93800000000E+00  0.93800000000E+00 0. -1.
         11    1    1    2    0    0  0.36944141165E-01 -0.43219116841E-01  0.54107910891E+00  0.54405847558E+00  0.51100000000E-03 0. -1.
    9000002    1    1    2    0    0 -0.27116931282E+00  0.28394798098E+00  0.10390407569E+00  0.10221542492E+01  0.93800000000E+00 0. -1.
         22    1    1    2    0    0  0.23422517166E+00 -0.24072886414E+00  0.33550167828E+01  0.33717872753E+01  0.00000000000E+00 0. -1.
</event>
<event>
 5    1  0.8240609E+001  0.1599676E+01  0.7818608E-02  0.3353715E+00
         11   -1    0    0    0    0  0.00000000000E+00  0.00000000000E+00  0.39999999674E+01  0.40000000000E+01  0.51100000000E-03 0.  1.
    9000002   -1    0    0    0    0 -0.00000000000E+00 -0.00000000000E+00  0.00000000000E+00  0.93800000000E+00  0.93800000000E+00 0. -1.
         11    1    1    2    0    0 -0.10952921741E+00 -0.13445496132E+00  0.13591636913E+01  0.13701828298E+01  0.51100000000E-03 0.  1.
    9000002    1    1    2    0    0  0.30699309124E+00  0.38037949436E+00  0.16326098975E+00  0.10702483210E+01  0.93800000000E+00 0. -1.
         22    1    1    2    0    0 -0.19746387384E+00 -0.24592453304E+00  0.24775752863E+01  0.24975688493E+01  0.00000000000E+00 0.  1.
</event>
<event>
 5    1  0.8240609E+001  0.1589233E+01  0.7818608E-02  0.3365133E+00
         11   -1    0    0    0    0  0.00000000000E+00  0.00000000000E+00  0.39999999674E+01  0.40000000000E+01  0.51100000000E-03 0.  1.
    9000002   -1    0    0    0    0 -0.00000000000E+00 -0.00000000000E+00  0.00000000000E+00  0.93800000000E+00  0.93800000000E+00 0. -1.
         11    1    1    2    0    0  0.89596710168E-02 -0.54593553626E-01  0.39772518107E+00  0.40155486871E+00  0.51100000000E-03 0.  1.
    9000002    1    1    2    0    0 -0.26803744197E+00 -0.17148328642E+00  0.75965209209E-01  0.99341094258E+00  0.93800000000E+00 0. -1.
         22    1    1    2    0    0  0.25907777096E+00  0.22607684005E+00  0.35263095771E+01  0.35430341887E+01  0.00000000000E+00 0.  1.
</event>
<event>
 5    1  0.8240609E+001  0.1599642E+01  0.7818608E-02  0.3353751E+00
         11   -1    0    0    0    0  0.00000000000E+00  0.00000000000E+00  0.39999999674E+01  0.40000000000E+01  0.51100000000E-03 0. -1.
    9000002   -1    0    0    0    0 -0.00000000000E+00 -0.00000000000E+00  0.00000000000E+00  0.93800000000E+00  0.93800000000E+00 0.  1.
         11    1    1    2    0    0 -0.73139459430E-02 -0.14556096800E-01  0.13813517550E+00  0.13909335567E+00  0.51100000000E-03 0.  1.
    9000002    1    1    2    0    0  0.24945123250E+00  0.35106339794E+00  0.12564910342E+00  0.10397610898E+01  0.93800000000E+00 0.  1.
         22    1    1    2    0    0 -0.24213728655E+00 -0.33650730114E+00  0.37362156884E+01  0.37591455545E+01  0.00000000000E+00 0. -1.
</event>
<event>
 5    1  0.8240609E+001  0.1599677E+01  0.7818608E-02  0.3353714E+00
         11   -1    0    0    0    0  0.00000000000E+00  0.00000000000E+00  0.39999999674E+01  0.40000000000E+01  0.51100000000E-03 0. -1.
    9000002   -1    0    0    0    0 -0.00000000000E+00 -0.00000000000E+00  0.00000000000E+00  0.93800000000E+00  0.93800000000E+00 0. -1.
         11    1    1    2    0    0 -0.10231091568E+00  0.34493968083E-01  0.10203464292E+01  0.10260431053E+01  0.51100000000E-03 0. -1.
    9000002    1    1    2    0    0  0.38807905119E+00 -0.13193840266E+00  0.11347446829E+00  0.10299191944E+01  0.93800000000E+00 0. -1.
         22    1    1    2    0    0 -0.28576813550E+00  0.97444434577E-01  0.28661790699E+01  0.28820377003E+01  0.00000000000E+00 0. -1.
</event>
<event>
 5    1  0.8240609E+001  0.1597487E+01  0.7818608E-02  0.3356096E+00
         11   -1    0    0    0    0  0.00000000000E+00  0.00000000000E+00  0.39999999674E+01  0.40000000000E+01  0.51100000000E-03 0. -1.
    9000002   -1    0    0    0    0 -0.00000000000E+00 -0.00000000000E+00  0.00000000000E+00  0.93800000000E+00  0.93800000000E+00 0. -1.
         11    1    1    2    0    0  0.41801719574E-01 -0.16328393699E+00  0.11138582234E+01  0.11265386948E+01  0.51100000000E-03 0. -1.
    9000002    1    1    2    0    0 -0.18908776609E-02  0.45990307555E+00  0.14577904555E+00  0.10548032729E+01  0.93800000000E+00 0. -1.
         22    1    1    2    0    0 -0.39910841913E-01 -0.29661913856E+00  0.27403626984E+01  0.27566580324E+01  0.00000000000E+00 0. -1.
</event>
<event>
 5    1  0.8240609E+001  0.1599675E+01  0.7818608E-02  0.3353717E+00
         11   -1    0    0    0    0  0.00000000000E+00  0.00000000000E+00  0.39999999674E+01  0.40000000000E+01  0.51100000000E-03 0. -1.
    9000002   -1    0    0    0    0 -0.00000000000E+00 -0.00000000000E+00  0.00000000000E+00  0.93800000000E+00  0.93800000000E+00 0. -1.
         11    1    1    2    0    0 -0.12164637689E-01 -0.97081718970E-01  0.88676273867E+00  0.89214418923E+00  0.51100000000E-03 0. -1.
    9000002    1    1    2    0    0  0.47453678509E-01  0.42123064294E+00  0.12158984518E+00  0.10364917735E+01  0.93800000000E+00 0. -1.
         22    1    1    2    0    0 -0.35289040820E-01 -0.32414892397E+00  0.29916473835E+01  0.30093640372E+01  0.00000000000E+00 0. -1.
</event>
<event>
 5    1  0.8240609E+001  0.1505132E+01  0.7818608E-02  0.3463237E+00
         11   -1    0    0    0    0  0.00000000000E+00  0.00000000000E+00  0.39999999674E+01  0.40000000000E+01  0.51100000000E-03 0. -1.
    9000002   -1    0    0    0    0 -0.00000000000E+00 -0.00000000000E+00  0.00000000000E+00  0.93800000000E+00  0.93800000000E+00 0. -1.
         11    1    1    2    0    0  0.24049524772E+00 -0.19174372132E+00  0.78508006284E+00  0.84318122905E+00  0.51100000000E-03 0. -1.
    9000002    1    1    2    0    0  0.34372047980E-01  0.11506130134E+00  0.82302056423E-01  0.94923030358E+00  0.93800000000E+00 0. -1.
         22    1    1    2    0    0 -0.27486729570E+00  0.76682419981E-01  0.31326178481E+01  0.31455884674E+01  0.00000000000E+00 0. -1.
</event>
<event>
 5    1  0.8240609E+001  0.1599661E+01  0.7818608E-02  0.3353731E+00
         11   -1    0    0    0    0  0.00000000000E+00  0.00000000000E+00  0.39999999674E+01  0.40000000000E+01  0.51100000000E-03 0.  1.
    9000002   -1    0    0    0    0 -0.00000000000E+00 -0.00000000000E+00  0.00000000000E+00  0.93800000000E+00  0.93800000000E+00 0.  1.
         11    1    1    2    0    0  0.10268847430E-01 -0.11169627635E+00  0.85608216387E+00  0.86339935128E+00  0.51100000000E-03 0.  1.
    9000002    1    1    2    0    0 -0.63580767426E-01  0.50024530295E+00  0.17421401451E+00  0.10791118570E+01  0.93800000000E+00 0.  1.
         22    1    1    2    0    0  0.53311919996E-01 -0.38854902660E+00  0.29697037890E+01  0.29954887917E+01  0.00000000000E+00 0.  1.
</event>
<event>
 5    1  0.8240609E+001  0.1599572E+01  0.7818608E-02  0.3353828E+00
         11   -1    0    0    0    0  0.00000000000E+00  0.00000000000E+00  0.39999999674E+01  0.40000000000E+01  0.51100000000E-03 0. -1.
    9000002   -1    0    0    0    0 -0.00000000000E+00 -0.00000000000E+00  0.00000000000E+00  0.93800000000E+00  0.93800000000E+00 0. -1.
         11    1    1    2    0    0 -0.13382319981E+00 -0.20862217289E+00  0.12724040884E+01  0.12963195150E+01  0.51100000000E-03 0. -1.
    9000002    1    1    2    0    0  0.39296336326E+00  0.62292198124E+00  0.39179256276E+00  0.12553076961E+01  0.93800000000E+00 0. -1.
         22    1    1    2    0    0 -0.25914016344E+00 -0.41429980835E+00  0.23358033162E+01  0.23863727889E+01  0.00000000000E+00 0. -1.
</event>
<event>
 5    1  0.8240609E+001  0.1599654E+01  0.7818608E-02  0.3353739E+00
         11   -1    0    0    0    0  0.00000000000E+00  0.00000000000E+00  0.39999999674E+01  0.40000000000E+01  0.51100000000E-03 0. -1.
    9000002   -1    0    0    0    0 -0.00000000000E+00 -0.00000000000E+00  0.00000000000E+00  0.93800000000E+00  0.93800000000E+00 0.  1.
         11    1    1    2    0    0  0.94133585642E-01 -0.34245636610E-01  0.57385372487E+00  0.58253090410E+00  0.51100000000E-03 0. -1.
    9000002    1    1    2    0    0 -0.59807132124E+00  0.19778133960E+00  0.27871525949E+00  0.11637581190E+01  0.93800000000E+00 0.  1.
         22    1    1    2    0    0  0.50393773560E+00 -0.16353570299E+00  0.31474309830E+01  0.31917109769E+01  0.00000000000E+00 0. -1.
</event>
<event>
 5    1  0.8240609E+001  0.1597074E+01  0.7818608E-02  0.3356545E+00
         11   -1    0    0    0    0  0.00000000000E+00  0.00000000000E+00  0.39999999674E+01  0.40000000000E+01  0.51100000000E-03 0.  1.
    9000002   -1    0    0    0    0 -0.00000000000E+00 -0.00000000000E+00  0.00000000000E+00  0.93800000000E+00  0.93800000000E+00 0.  1.
         11    1    1    2    0    0 -0.13581283378E+00 -0.12156561150E+00  0.13593742716E+01  0.13715400086E+01  0.51100000000E-03 0.  1.
    9000002    1    1    2    0    0  0.22395356831E+00  0.38506134597E+00  0.13692226726E+00  0.10473868188E+01  0.93800000000E+00 0.  1.
         22    1    1    2    0    0 -0.88140734528E-01 -0.26349573447E+00  0.25037034285E+01  0.25190731726E+01  0.00000000000E+00 0.  1.
</event>
<event>
 5    1  0.8240609E+001  0.1599453E+01  0.7818608E-02  0.3353957E+00
         11   -1    0    0    0    0  0.00000000000E+00  0.00000000000E+00  0.39999999674E+01  0.40000000000E+01  0.51100000000E-03 0. -1.
    9000002   -1    0    0    0    0 -0.00000000000E+00 -0.00000000000E+00  0.00000000000E+00  0.93800000000E+00  0.93800000000E+00 0. -1.
         11    1    1    2    0    0 -0.69371686553E-01 -0.24393760068E+00  0.10475360899E+01  0.10777987311E+01  0.51100000000E-03 0. -1.
    9000002    1    1    2    0    0  0.19648134935E+00  0.77809296247E+00  0.47510556298E+00  0.13227255478E+01  0.93800000000E+00 0. -1.
         22    1    1    2    0    0 -0.12710966280E+00 -0.53415536179E+00  0.24773583144E+01  0.25374757211E+01  0.00000000000E+00 0. -1.
</event>
<event>
 5    1  0.8240609E+001  0.1597099E+01  0.7818608E-02  0.3356518E+00
         11   -1    0    0    0    0  0.00000000000E+00  0.00000000000E+00  0.39999999674E+01  0.40000000000E+01  0.51100000000E-03 0. -1.
    9000002   -1    0    0    0    0 -0.00000000000E+00 -0.00000000000E+00  0.00000000000E+00  0.93800000000E+00  0.93800000000E+00 0. -1.
         11    1    1    2    0    0 -0.23907878380E-01 -0.20262306187E-01  0.50054588129E+00  0.50152625863E+00  0.51100000000E-03 0. -1.
    9000002    1    1    2    0    0  0.43169147102E+00 -0.43107170670E-01  0.12973719952E+00  0.10415812476E+01  0.93800000000E+00 0. -1.
         22    1    1    2    0    0 -0.40778359264E+00  0.63369476857E-01  0.33697168866E+01  0.33948924938E+01  0.00000000000E+00 0. -1.
</event>
<event>
 5    1  0.8240609E+001  0.1599677E+01  0.7818608E-02  0.3353714E+00
         11   -1    0    0    0    0  0.00000000000E+00  0.00000000000E+00  0.39999999674E+01  0.40000000000E+01  0.51100000000E-03 0. -1.
    9000002   -1    0    0    0    0 -0.00000000000E+00 -0.00000000000E+00  0.00000000000E+00  0.93800000000E+00  0.93800000000E+00 0. -1.
         11    1    1    2    0    0  0.64655235850E-01  0.84082292939E-01  0.99005744930E+00  0.99572292609E+00  0.51100000000E-03 0. -1.
    9000002    1    1    2    0    0 -0.25558902151E+00 -0.32835358293E+00  0.11703528271E+00  0.10328035054E+01  0.93800000000E+00 0. -1.
         22    1    1    2    0    0  0.19093378566E+00  0.24427128999E+00  0.28929072354E+01  0.29094735685E+01  0.00000000000E+00 0. -1.
</event>
<event>
 5    1  0.8876362E+001  0.1574978E+01  0.7818608E-02  0.3380977E+00
         11   -1    0    0    0    0  0.00000000000E+00  0.00000000000E+00  0.39999999674E+01  0.40000000000E+01  0.51100000000E-03 0. -1.
    9000002   -1    0    0    0    0 -0.00000000000E+00 -0.00000000000E+00  0.00000000000E+00  0.93800000000E+00  0.93800000000E+00 0. -1.
         11    1    1    2    0    0 -0.40430828969E-01  0.11728469441E+00  0.88247274992E+00  0.89115024936E+00  0.51100000000E-03 0. -1.
    9000002    1    1    2    0    0  0.10091668176E+00  0.17565963904E+00  0.45933985643E-01  0.96072598408E+00  0.93800000000E+00 0. -1.
         22    1    1    2    0    0 -0.60485852791E-01 -0.29294433345E+00  0.30715932318E+01  0.30861237666E+01  0.00000000000E+00 0. -1.
</event>
<event>
 5    1  0.8240609E+001  0.1597747E+01  0.7818608E-02  0.3355813E+00
         11   -1    0    0    0    0  0.00000000000E+00  0.00000000000E+00  0.39999999674E+01  0.40000000000E+01  0.51100000000E-03 0.  1.
    9000002   -1    0    0    0    0 -0.00000000000E+00 -0.00000000000E+00  0.00000000000E+00  0.93800000000E+00  0.93800000000E+00 0.  1.
         11    1    1    2    0    0 -0.85925310430E-02  0.11309663468E+00  0.11238522519E+01  0.11295613421E+01  0.51100000000E-03 0.  1.
    9000002    1    1    2    0    0 -0.20624014280E-01 -0.53882707799E+00  0.20222771156E+00  0.11006816148E+01  0.93800000000E+00 0.  1.
         22    1    1    2    0    0  0.29216545323E-01  0.42573044331E+00  0.26739200039E+01  0.27077570431E+01  0.00000000000E+00 0.  1.
</event>
<event>
 5    1  0.8240609E+001  0.1596684E+01  0.7818608E-02  0.3356971E+00
         11   -1    0    0    0    0  0.00000000000E+00  0.00000000000E+00  0.39999999674E+01  0.40000000000E+01  0.51100000000E-03 0. -1.
    9000002   -1    0    0    0    0 -0.00000000000E+00 -0.00000000000E+00  0.00000000000E+00  0.93800000000E+00  0.93800000000E+00 0. -1.
         11    1    1    2    0    0 -0.16653525757E+00 -0.22777807686E-01  0.77393865882E+00  0.79198114199E+00  0.51100000000E-03 0. -1.
    9000002    1    1    2    0    0  0.55790984377E+00  0.47730439534E-01  0.21983626844E+00  0.11143220242E+01  0.93800000000E+00 0. -1.
         22    1    1    2    0    0 -0.39137458620E+00 -0.24952631849E-01  0.30062250401E+01  0.30316968338E+01  0.00000000000E+00 0. -1.
</event>
<event>
 5    1  0.8240609E+001  0.1599525E+01  0.7818608E-02  0.3353879E+00
         11   -1    0    0    0    0  0.00000000000E+00  0.00000000000E+00  0.39999999674E+01  0.40000000000E+01  0.51100000000E-03 0.  1.
    9000002   -1    0    0    0    0 -0.00000000000E+00 -0.00000000000E+00  0.00000000000E+00  0.93800000000E+00  0.93800000000E+00 0.  1.
         11    1    1    2    0    0  0.13544950301E-02 -0.65760768486E-01  0.62257655736E+00  0.62604164735E+00  0.51100000000E-03 0.  1.
    9000002    1    1    2    0    0 -0.30366160325E-01  0.47068942269E+00  0.15172978109E+00  0.10608188171E+01  0.93800000000E+00 0.  1.
         22    1    1    2    0    0  0.29011665295E-01 -0.40492865420E+00  0.32256936289E+01  0.32511395355E+01  0.00000000000E+00 0.  1.
</event>
<event>
 5    1  0.8240609E+001  0.1598112E+01  0.7818608E-02  0.3355415E+00
         11   -1    0    0    0    0  0.00000000000E+00  0.00000000000E+00  0.39999999674E+01  0.40000000000E+01  0.51100000000E-03 0.  1.
    9000002   -1    0    0    0    0 -0.00000000000E+00 -0.00000000000E+00  0.00000000000E+00  0.93800000000E+00  0.93800000000E+00 0. -1.
         11    1    1    2    0    0 -0.79079426996E-01  0.11146802164E+00  0.13837182885E+01  0.13904514514E+01  0.51100000000E-03 0.  1.
    9000002    1    1    2    0    0  0.11532846780E+00 -0.38395633422E+00  0.10972787233E+00  0.10259665336E+01  0.93800000000E+00 0. -1.
         22    1    1    2    0    0 -0.36249040800E-01  0.27248831258E+00  0.25065538065E+01  0.25215820150E+01  0.00000000000E+00 0.  1.
</event>
<event>
 5    1  0.8240609E+001  0.1599674E+01  0.7818608E-02  0.3353717E+00
         11   -1    0    0    0    0  0.00000000000E+00  0.00000000000E+00  0.39999999674E+01  0.40000000000E+01  0.51100000000E-03 0. -1.
    9000002   -1    0    0    0    0 -0.00000000000E+00 -0.00000000000E+00  0.00000000000E+00  0.93800000000E+00  0.93800000000E+00 0. -1.
         11    1    1    2    0    0  0.12140056316E+00  0.32267656379E-01  0.12951443753E+01  0.13012219305E+01  0.51100000000E-03 0. -1.
    9000002    1    1    2    0    0 -0.36366224443E+00 -0.10287604115E+00  0.96082894041E-01  0.10158295282E+01  0.93800000000E+00 0. -1.
         22    1    1    2    0    0  0.24226168127E+00  0.70608384771E-01  0.26087726981E+01  0.26209485413E+01  0.00000000000E+00 0. -1.
</event>
<event>
 5    1  0.8240609E+001  0.1599672E+01  0.7818608E-02  0.3353720E+00
         11   -1    0    0    0    0  0.00000000000E+00  0.00000000000E+00  0.39999999674E+01  0.40000000000E+01  0.51100000000E-03 0. -1.
    9000002   -1    0    0    0    0 -0.00000000000E+00 -0.00000000000E+00  0.00000000000E+00  0.93800000000E+00  0.93800000000E+00 0. -1.
         11    1    1    2    0    0 -0.30279024943E-01  0.82682944934E-01  0.86337393797E+00  0.86785258346E+00  0.51100000000E-03 0. -1.
    9000002    1    1    2    0    0  0.12856580574E+00 -0.36726579342E+00  0.10199520940E+00  0.10206176327E+01  0.93800000000E+00 0. -1.
         22    1    1    2    0    0 -0.98286780794E-01  0.28458284848E+00  0.30346308200E+01  0.30495297839E+01  0.00000000000E+00 0. -1.
</event>
<event>
 5    1  0.8240609E+001  0.1599667E+01  0.7818608E-02  0.3353725E+00
         11   -1    0    0    0    0  0.00000000000E+00  0.00000000000E+00  0.39999999674E+01  0.40000000000E+01  0.51100000000E-03 0. -1.
    9000002   -1    0    0    0    0 -0.00000000000E+00 -0.00000000000E+00  0.00000000000E+00  0.93800000000E+00  0.93800000000E+00 0.  1.
         11    1    1    2    0    0 -0.24445847104E-01  0.13923121709E-01  0.22268743743E+00  0.22445803320E+00  0.51100000000E-03 0. -1.
    9000002    1    1    2    0    0  0.44902801961E+00 -0.24493932166E+00  0.17945472431E+00  0.10833602502E+01  0.93800000000E+00 0.  1.
         22    1    1    2    0    0 -0.42458217251E+00  0.23101619995E+00  0.35978578056E+01  0.36301817166E+01  0.00000000000E+00 0. -1.
</event>
<event>
 5    1  0.8240609E+001  0.1599677E+01  0.7818608E-02  0.3353714E+00
         11   -1    0    0    0    0  0.00000000000E+00  0.00000000000E+00  0.39999999674E+01  0.40000000000E+01  0.51100000000E-03 0. -1.
    9000002   -1    0    0    0    0 -0.00000000000E+00 -0.00000000000E+00  0.00000000000E+00  0.93800000000E+00  0.93800000000E+00 0. -1.
         11    1    1    2    0    0  0.29244344361E-01  0.97446115506E-01  0.81189074250E+00  0.81824068340E+00  0.51100000000E-03 0.  1.
    9000002    1    1    2    0    0 -0.13885703141E+00 -0.45975540828E+00  0.15738796016E+00  0.10654910983E+01  0.93800000000E+00 0. -1.
         22    1    1    2    0    0  0.10961268705E+00  0.36230929278E+00  0.30307212647E+01  0.30542682183E+01  0.00000000000E+00 0. -1.
</event>
<event>
 5    1  0.8240609E+001  0.1596686E+01  0.7818608E-02  0.3356968E+00
         11   -1    0    0    0    0  0.00000000000E+00  0.00000000000E+00  0.39999999674E+01  0.40000000000E+01  0.51100000000E-03 0.  1.
    9000002   -1    0    0    0    0 -0.00000000000E+00 -0.00000000000E+00  0.00000000000E+00  0.93800000000E+00  0.93800000000E+00 0. -1.
         11    1    1    2    0    0  0.67340219572E-02 -0.14489059503E+00  0.82702167375E+00  0.83964500925E+00  0.51100000000E-03 0.  1.
    9000002    1    1    2    0    0 -0.18742998496E-05  0.42592131037E+00  0.12532729680E+00  0.10377667821E+01  0.93800000000E+00 0. -1.
         22    1    1    2    0    0 -0.67321476574E-02 -0.28103071534E+00  0.30476509968E+01  0.30605882087E+01  0.00000000000E+00 0.  1.
</event>
<event>
 5    1  0.8240609E+001  0.1461257E+01  0.7818608E-02  0.3519241E+00
         11   -1    0    0    0    0  0.00000000000E+00  0.00000000000E+00  0.39999999674E+01  0.40000000000E+01  0.51100000000E-03 0.  1.
    9000002   -1    0    0    0    0 -0.00000000000E+00 -0.00000000000E+00  0.00000000000E+00  0.93800000000E+00  0.93800000000E+00 0. -1.
         11    1    1    2    0    0  0.36083416038E-01  0.18342851391E+00  0.11757064101E+01  0.11904763150E+01  0.51100000000E-03 0.  1.
    9000002    1    1    2    0    0  0.31972942806E+00  0.64070194693E+00  0.54894037664E+00  0.13015012213E+01  0.93800000000E+00 0. -1.
         22    1    1    2    0    0 -0.35581284409E+00 -0.82413046084E+00  0.22753531806E+01  0.24460224637E+01  0.00000000000E+00 0.  1.
</event>
<event>
 5    1  0.8240609E+001  0.1588806E+01  0.7818608E-02  0.3365603E+00
         11   -1    0    0    0    0  0.00000000000E+00  0.00000000000E+00  0.39999999674E+01  0.40000000000E+01  0.51100000000E-03 0.  1.
    9000002   -1    0    0    0    0 -0.00000000000E+00 -0.00000000000E+00  0.00000000000E+00  0.93800000000E+00  0.93800000000E+00 0.  1.
         11    1    1    2    0    0  0.13232839554E+00 -0.98685703712E-01  0.12799899005E+01  0.12905905931E+01  0.51100000000E-03 0.  1.
    9000002    1    1    2    0    0 -0.62210583953E-01  0.41333323871E+00  0.12734797388E+00  0.10347830833E+01  0.93800000000E+00 0.  1.
         22    1    1    2    0    0 -0.70117811588E-01 -0.31464753499E+00  0.25926620929E+01  0.26126263236E+01  0.00000000000E+00 0. -1.
</event>
<event>
 5    1  0.8240609E+001  0.1599503E+01  0.7818608E-02  0.3353903E+00
         11   -1    0    0    0    0  0.00000000000E+00  0.00000000000E+00  0.39999999674E+01  0.40000000000E+01  0.51100000000E-03 0.  1.
    9000002   -1    0    0    0    0 -0.00000000000E+00 -0.00000000000E+00  0.00000000000E+00  0.93800000000E+00  0.93800000000E+00 0. -1.
         11    1    1    2    0    0  0.17894374432E-01  0.34396030291E-01  0.35250324304E+00  0.35462951514E+00  0.51100000000E-03 0.  1.
    9000002    1    1    2    0    0 -0.10142294038E+00 -0.40897647984E+00  0.12024591880E+00  0.10353025910E+01  0.93800000000E+00 0. -1.
         22    1    1    2    0    0  0.83528565948E-01  0.37458044955E+00  0.35272508055E+01  0.35480678939E+01  0.00000000000E+00 0.  1.
</event>
<event>
 5    1  0.8240609E+001  0.1599347E+01  0.7818608E-02  0.3354073E+00
         11   -1    0    0    0    0  0.00000000000E+00  0.00000000000E+00  0.39999999674E+01  0.40000000000E+01  0.51100000000E-03 0. -1.
    9000002   -1    0    0    0    0 -0.00000000000E+00 -0.00000000000E+00  0.00000000000E+00  0.93800000000E+00  0.93800000000E+00 0. -1.
         11    1    1    2    0    0 -0.52218014152E-01 -0.61028601850E-02  0.33792233078E+00  0.34198790719E+00  0.51100000000E-03 0. -1.
    9000002    1    1    2    0    0  0.47838335911E+00 -0.12725458535E-01  0.15651571834E+00  0.10645908818E+01  0.93800000000E+00 0. -1.
         22    1    1    2    0    0 -0.42616534495E+00  0.18828318720E-01  0.35055619182E+01  0.35314212110E+01  0.00000000000E+00 0. -1.
</event>
<event>
 5    1  0.8971637E+001  0.1588399E+01  0.7818608E-02  0.3366052E+00
         11   -1    0    0    0    0  0.00000000000E+00  0.00000000000E+00  0.39999999674E+01  0.40000000000E+01  0.51100000000E-03 0. -1.
    9000002   -1    0    0    0    0 -0.00000000000E+00 -0.00000000000E+00  0.00000000000E+00  0.93800000000E+00  0.93800000000E+00 0. -1.
         11    1    1    2    0    0 -0.53869572444E-01  0.15878870683E-01  0.11455271260E+01  0.11469031026E+01  0.51100000000E-03 0. -1.
    9000002    1    1    2    0    0 -0.13242563111E+00  0.18791121840E+00  0.43649900371E-01  0.96674530647E+00  0.93800000000E+00 0. -1.
         22    1    1    2    0    0  0.18629520356E+00 -0.20379008908E+00  0.28108229410E+01  0.28243515909E+01  0.00000000000E+00 0. -1.
</event>
<event>
 5    1  0.8240609E+001  0.1512251E+01  0.7818608E-02  0.3454481E+00
         11   -1    0    0    0    0  0.00000000000E+00  0.00000000000E+00  0.39999999674E+01  0.40000000000E+01  0.51100000000E-03 0. -1.
    9000002   -1    0    0    0    0 -0.00000000000E+00 -0.00000000000E+00  0.00000000000E+00  0.93800000000E+00  0.93800000000E+00 0. -1.
         11    1    1    2    0    0  0.21741177390E+00  0.22407972487E+00  0.75557608806E+00  0.81754210197E+00  0.51100000000E-03 0. -1.
    9000002    1    1    2    0    0  0.13612106156E+00 -0.37131322135E+00  0.18190492189E+00  0.10340869656E+01  0.93800000000E+00 0. -1.
         22    1    1    2    0    0 -0.35353283546E+00  0.14723349649E+00  0.30625189574E+01  0.30863709325E+01  0.00000000000E+00 0. -1.
</event>
<event>
 5    1  0.8240609E+001  0.1599677E+01  0.7818608E-02  0.3353714E+00
         11   -1    0    0    0    0  0.00000000000E+00  0.00000000000E+00  0.39999999674E+01  0.40000000000E+01  0.51100000000E-03 0. -1.
    9000002   -1    0    0    0    0 -0.00000000000E+00 -0.00000000000E+00  0.00000000000E+00  0.93800000000E+00  0.93800000000E+00 0.  1.
         11    1    1    2    0    0  0.78231075772E-01  0.25179027755E-01  0.86786888614E+00  0.87175154104E+00  0.51100000000E-03 0. -1.
    9000002    1    1    2    0    0 -0.35174210892E+00 -0.11306778893E+00  0.91732228163E-01  0.10123070867E+01  0.93800000000E+00 0.  1.
         22    1    1    2    0    0  0.27351103314E+00  0.87888761178E-01  0.30403988531E+01  0.30539413723E+01  0.00000000000E+00 0.  1.
</event>
<event>
 5    1  0.8240609E+001  0.1461607E+01  0.7818608E-02  0.3518781E+00
         11   -1    0    0    0    0  0.00000000000E+00  0.00000000000E+00  0.39999999674E+01  0.40000000000E+01  0.51100000000E-03 0. -1.
    9000002   -1    0    0    0    0 -0.00000000000E+00 -0.00000000000E+00  0.00000000000E+00  0.93800000000E+00  0.93800000000E+00 0. -1.
         11    1    1    2    0    0  0.17632700670E+00 -0.27595686106E+00  0.48919101108E+00  0.58868625676E+00  0.51100000000E-03 0. -1.
    9000002    1    1    2    0    0  0.84485742376E-01 -0.29925036454E-01  0.13763371733E+00  0.95227117389E+00  0.93800000000E+00 0. -1.
         22    1    1    2    0    0 -0.26081274908E+00  0.30588189751E+00  0.33731752389E+01  0.33970425693E+01  0.00000000000E+00 0. -1.
</event>
<event>
 5    1  0.8240609E+001  0.1599672E+01  0.7818608E-02  0.3353719E+00
         11   -1    0    0    0    0  0.00000000000E+00  0.00000000000E+00  0.39999999674E+01  0.40000000000E+01  0.51100000000E-03 0.  1.
    9000002   -1    0    0    0    0 -0.00000000000E+00 -0.00000000000E+00  0.00000000000E+00  0.93800000000E+00  0.93800000000E+00 0. -1.
         11    1    1    2    0    0 -0.73632154889E-01 -0.11286800982E+00  0.11787766521E+01  0.11864550301E+01  0.51100000000E-03 0.  1.
    9000002    1    1    2    0    0  0.23725905778E+00  0.37686175701E+00  0.13460545831E+00  0.10470335591E+01  0.93800000000E+00 0. -1.
         22    1    1    2    0    0 -0.16362690289E+00 -0.26399374719E+00  0.26866178570E+01  0.27045114108E+01  0.00000000000E+00 0.  1.
</event>
<event>
 5    1  0.8240609E+001  0.1599585E+01  0.7818608E-02  0.3353814E+00
         11   -1    0    0    0    0  0.00000000000E+00  0.00000000000E+00  0.39999999674E+01  0.40000000000E+01  0.51100000000E-03 0.  1.
    9000002   -1    0    0    0    0 -0.00000000000E+00 -0.00000000000E+00  0.00000000000E+00  0.93800000000E+00  0.93800000000E+00 0.  1.
         11    1    1    2    0    0  0.47860192622E-02 -0.14000587849E-01  0.15645138988E+00  0.15715031326E+00  0.51100000000E-03 0.  1.
    9000002    1    1    2    0    0 -0.52746081358E-01  0.43742728024E+00  0.13174532544E+00  0.10446653078E+01  0.93800000000E+00 0.  1.
         22    1    1    2    0    0  0.47960062096E-01 -0.42342669239E+00  0.37118032520E+01  0.37361843789E+01  0.00000000000E+00 0.  1.
</event>
<event>
 5    1  0.8240609E+001  0.1599420E+01  0.7818608E-02  0.3353993E+00
         11   -1    0    0    0    0  0.00000000000E+00  0.00000000000E+00  0.39999999674E+01  0.40000000000E+01  0.51100000000E-03 0. -1.
    9000002   -1    0    0    0    0 -0.00000000000E+00 -0.00000000000E+00  0.00000000000E+00  0.93800000000E+00  0.93800000000E+00 0. -1.
         11    1    1    2    0    0  0.37147940744E-01  0.79872034625E-01  0.11067495956E+01  0.11102497196E+01  0.51100000000E-03 0. -1.
    9000002    1    1    2    0    0 -0.19322670212E+00 -0.28284383429E+00  0.78818181945E-01  0.10016953124E+01  0.93800000000E+00 0. -1.
         22    1    1    2    0    0  0.15607876138E+00  0.20297179967E+00  0.28144321899E+01  0.28260549681E+01  0.00000000000E+00 0. -1.
</event>
<event>
 5    1  0.8240609E+001  0.1599456E+01  0.7818608E-02  0.3353954E+00
         11   -1    0    0    0    0  0.00000000000E+00  0.00000000000E+00  0.39999999674E+01  0.40000000000E+01  0.51100000000E-03 0.  1.
    9000002   -1    0    0    0    0 -0.00000000000E+00 -0.00000000000E+00  0.00000000000E+00  0.93800000000E+00  0.93800000000E+00 0. -1.
         11    1    1    2    0    0 -0.10307568880E+00  0.19855477559E-01  0.76867641248E+00  0.77581088278E+00  0.51100000000E-03 0.  1.
    9000002    1    1    2    0    0  0.52914799103E+00 -0.29652073061E-01  0.19348829566E+00  0.10946042949E+01  0.93800000000E+00 0. -1.
         22    1    1    2    0    0 -0.42607230223E+00  0.97965955021E-02  0.30378352592E+01  0.30675848223E+01  0.00000000000E+00 0.  1.
</event>
<event>
 5    1  0.8240609E+001  0.1451179E+01  0.7818608E-02  0.3532626E+00
         11   -1    0    0    0    0  0.00000000000E+00  0.00000000000E+00  0.39999999674E+01  0.40000000000E+01  0.51100000000E-03 0.  1.
    9000002   -1    0    0    0    0 -0.00000000000E+00 -0.00000000000E+00  0.00000000000E+00  0.93800000000E+00  0.93800000000E+00 0. -1.
         11    1    1    2    0    0 -0.23282712461E+00  0.21306703725E+00  0.49138111640E+00  0.58400487583E+00  0.51100000000E-03 0.  1.
    9000002    1    1    2    0    0 -0.16578373637E+00 -0.71032866615E-01  0.14769143557E+00  0.96653332872E+00  0.93800000000E+00 0. -1.
         22    1    1    2    0    0  0.39861086098E+00 -0.14203417063E+00  0.33609274154E+01  0.33874617955E+01  0.00000000000E+00 0.  1.
</event>
<event>
 5    1  0.8240609E+001  0.1599670E+01  0.7818608E-02  0.3353722E+00
         11   -1    0    0    0    0  0.00000000000E+00  0.00000000000E+00  0.39999999674E+01  0.40000000000E+01  0.51100000000E-03 0. -1.
    9000002   -1    0    0    0    0 -0.00000000000E+00 -0.00000000000E+00  0.00000000000E+00  0.93800000000E+00  0.93800000000E+00 0.  1.
         11    1    1    2    0    0 -0.16460408168E+00  0.31857144262E-01  0.93170336302E+00  0.94666826245E+00  0.51100000000E-03 0. -1.
    9000002    1    1    2    0    0  0.65728822145E+00 -0.11675099095E+00  0.31584256063E+00  0.11938421684E+01  0.93800000000E+00 0.  1.
         22    1    1    2    0    0 -0.49268413976E+00  0.84893846693E-01  0.27524540437E+01  0.27974895692E+01  0.00000000000E+00 0. -1.
</event>
<event>
 5    1  0.8240609E+001  0.1482117E+01  0.7818608E-02  0.3492167E+00
         11   -1    0    0    0    0  0.00000000000E+00  0.00000000000E+00  0.39999999674E+01  0.40000000000E+01  0.51100000000E-03 0. -1.
    9000002   -1    0    0    0    0 -0.00000000000E+00 -0.00000000000E+00  0.00000000000E+00  0.93800000000E+00  0.93800000000E+00 0. -1.
         11    1    1    2    0    0 -0.11658682134E+00 -0.27167053783E+00  0.58417252492E+00  0.65471762465E+00  0.51100000000E-03 0. -1.
    9000002    1    1    2    0    0 -0.21959486996E+00  0.71956296839E-01  0.13056270594E+00  0.97482831091E+00  0.93800000000E+00 0. -1.
         22    1    1    2    0    0  0.33618169130E+00  0.19971424099E+00  0.32852647365E+01  0.33084540644E+01  0.00000000000E+00 0. -1.
</event>
<event>
 5    1  0.8240609E+001  0.1577737E+01  0.7818608E-02  0.3377887E+00
         11   -1    0    0    0    0  0.00000000000E+00  0.00000000000E+00  0.39999999674E+01  0.40000000000E+01  0.51100000000E-03 0.  1.
    9000002   -1    0    0    0    0 -0.00000000000E+00 -0.00000000000E+00  0.00000000000E+00  0.93800000000E+00  0.93800000000E+00 0. -1.
         11    1    1    2    0    0  0.28470991459E-01 -0.91981375132E-01  0.10094193865E+01  0.10140014447E+01  0.51100000000E-03 0.  1.
    9000002    1    1    2    0    0  0.43209855700E-01 -0.22846135674E+00  0.52699101662E-01  0.96782378482E+00  0.93800000000E+00 0. -1.
         22    1    1    2    0    0 -0.71680847160E-01  0.32044273188E+00  0.29378814792E+01  0.29561747705E+01  0.00000000000E+00 0.  1.
</event>
<event>
 5    1  0.8240609E+001  0.1599677E+01  0.7818608E-02  0.3353714E+00
         11   -1    0    0    0    0  0.00000000000E+00  0.00000000000E+00  0.39999999674E+01  0.40000000000E+01  0.51100000000E-03 0. -1.
    9000002   -1    0    0    0    0 -0.00000000000E+00 -0.00000000000E+00  0.00000000000E+00  0.93800000000E+00  0.93800000000E+00 0.  1.
         11    1    1    2    0    0 -0.72863878640E-01  0.10207677464E+00  0.13918387787E+01  0.13974778208E+01  0.51100000000E-03 0. -1.
    9000002    1    1    2    0    0  0.20670361056E+00 -0.28690073278E+00  0.83873338394E-01  0.10059409277E+01  0.93800000000E+00 0.  1.
         22    1    1    2    0    0 -0.13383973192E+00  0.18482395814E+00  0.25242878503E+01  0.25345812515E+01  0.00000000000E+00 0. -1.
</event>
<event>
 5    1  0.8240609E+001  0.1598590E+01  0.7818608E-02  0.3354895E+00
         11   -1    0    0    0    0  0.00000000000E+00  0.00000000000E+00  0.39999999674E+01  0.40000000000E+01  0.51100000000E-03 0. -1.
    9000002   -1    0    0    0    0 -0.00000000000E+00 -0.00000000000E+00  0.00000000000E+00  0.93800000000E+00  0.93800000000E+00 0.  1.
         11    1    1    2    0    0 -0.46976930740E-01  0.78340035922E-01  0.81736536447E+00  0.82245388528E+00  0.51100000000E-03 0. -1.
    9000002    1    1    2    0    0  0.28686050758E+00 -0.49648429067E+00  0.22918314642E+00  0.11230113607E+01  0.93800000000E+00 0.  1.
         22    1    1    2    0    0 -0.23988357684E+00  0.41814425475E+00  0.29534514565E+01  0.29925347540E+01  0.00000000000E+00 0. -1.
</event>
<event>
 5    1  0.8240609E+001  0.1598350E+01  0.7818608E-02  0.3355156E+00
         11   -1    0    0    0    0  0.00000000000E+00  0.00000000000E+00  0.39999999674E+01  0.40000000000E+01  0.51100000000E-03 0.  1.
    9000002   -1    0    0    0    0 -0.00000000000E+00 -0.00000000000E+00  0.00000000000E+00  0.93800000000E+00  0.93800000000E+00 0.  1.
         11    1    1    2    0    0 -0.10456712646E-01 -0.12881558168E-01  0.19403672102E+00  0.19474544309E+00  0.51100000000E-03 0.  1.
    9000002    1    1    2    0    0  0.50439535599E+00  0.19150572904E-01  0.17575349841E+00  0.10795900666E+01  0.93800000000E+00 0.  1.
         22    1    1    2    0    0 -0.49393864335E+00 -0.62690147360E-02  0.36302097479E+01  0.36636644904E+01  0.00000000000E+00 0.  1.
</event>
<event>
 5    1  0.8240609E+001  0.1599677E+01  0.7818608E-02  0.3353714E+00
         11   -1    0    0    0    0  0.00000000000E+00  0.00000000000E+00  0.39999999674E+01  0.40000000000E+01  0.51100000000E-03 0.  1.
    9000002   -1    0    0    0    0 -0.00000000000E+00 -0.00000000000E+00  0.00000000000E+00  0.93800000000E+00  0.93800000000E+00 0.  1.
         11    1    1    2    0    0 -0.76652261996E-01 -0.40177456945E-01  0.92673050644E+00  0.93076285380E+00  0.51100000000E-03 0.  1.
    9000002    1    1    2    0    0  0.32142719212E+00  0.16817743479E+00  0.88365753659E-01  0.10095799106E+01  0.93800000000E+00 0.  1.
         22    1    1    2    0    0 -0.24477493012E+00 -0.12799997784E+00  0.29849037073E+01  0.29976572356E+01  0.00000000000E+00 0.  1.
</event>
<event>
 5    1  0.8240609E+001  0.1599676E+01  0.7818608E-02  0.3353715E+00
         11   -1    0    0    0    0  0.00000000000E+00  0.00000000000E+00  0.39999999674E+01  0.40000000000E+01  0.51100000000E-03 0.  1.
    9000002   -1    0    0    0    0 -0.00000000000E+00 -0.00000000000E+00  0.00000000000E+00  0.93800000000E+00  0.93800000000E+00 0.  1.
         11    1    1    2    0    0 -0.17223578900E-01 -0.19740640613E-01  0.24153903211E+00  0.24295618888E+00  0.51100000000E-03 0. -1.
    9000002    1    1    2    0    0  0.27649667237E+00  0.32466066783E+00  0.12309912197E+00  0.10377149671E+01  0.93800000000E+00 0.  1.
         22    1    1    2    0    0 -0.25927309347E+00 -0.30492002722E+00  0.36353618133E+01  0.36573288440E+01  0.00000000000E+00 0.  1.
</event>
<event>
 5    1  0.8240609E+001  0.1599677E+01  0.7818608E-02  0.3353714E+00
         11   -1    0    0    0    0  0.00000000000E+00  0.00000000000E+00  0.39999999674E+01  0.40000000000E+01  0.51100000000E-03 0.  1.
    9000002   -1    0    0    0    0 -0.00000000000E+00 -0.00000000000E+00  0.00000000000E+00  0.93800000000E+00  0.93800000000E+00 0.  1.
         11    1    1    2    0    0 -0.47730114446E-01 -0.54625820656E-01  0.60149962560E+00  0.60585823822E+00  0.51100000000E-03 0.  1.
    9000002    1    1    2    0    0  0.30578184461E+00  0.34736792717E+00  0.14573837500E+00  0.10560543013E+01  0.93800000000E+00 0.  1.
         22    1    1    2    0    0 -0.25805173016E+00 -0.29274210651E+00  0.32527619668E+01  0.32760874605E+01  0.00000000000E+00 0.  1.
</event>
<event>
 5    1  0.8240609E+001  0.1599677E+01  0.7818608E-02  0.3353714E+00
         11   -1    0    0    0    0  0.00000000000E+00  0.00000000000E+00  0.39999999674E+01  0.40000000000E+01  0.51100000000E-03 0.  1.
    9000002   -1    0    0    0    0 -0.00000000000E+00 -0.00000000000E+00  0.00000000000E+00  0.93800000000E+00  0.93800000000E+00 0.  1.
         11    1    1    2    0    0  0.10968991492E+00  0.63682071160E-01  0.11850554198E+01  0.11918237675E+01  0.51100000000E-03 0.  1.
    9000002    1    1    2    0    0 -0.35896559146E+00 -0.20742321238E+00  0.11615896311E+00  0.10320937891E+01  0.93800000000E+00 0.  1.
         22    1    1    2    0    0  0.24927567653E+00  0.14374114122E+00  0.26987855844E+01  0.27140824434E+01  0.00000000000E+00 0.  1.
</event>
<event>
 5    1  0.9328508E+001  0.1595346E+01  0.7818608E-02  0.3358430E+00
         11   -1    0    0    0    0  0.00000000000E+00  0.00000000000E+00  0.39999999674E+01  0.40000000000E+01  0.51100000000E-03 0. -1.
    9000002   -1    0    0    0    0 -0.00000000000E+00 -0.00000000000E+00  0.00000000000E+00  0.93800000000E+00  0.93800000000E+00 0. -1.
         11    1    1    2    0    0  0.52379907977E-01 -0.21507890652E-01  0.14699190147E+01  0.14710093184E+01  0.51100000000E-03 0. -1.
    9000002    1    1    2    0    0 -0.62130688197E-01  0.24821278985E+00  0.46836178635E-01  0.97339993789E+00  0.93800000000E+00 0. -1.
         22    1    1    2    0    0  0.97507802196E-02 -0.22670489920E+00  0.24832447741E+01  0.24935907437E+01  0.00000000000E+00 0. -1.
</event>
<event>
 5    1  0.8240609E+001  0.1573118E+01  0.7818608E-02  0.3383067E+00
         11   -1    0    0    0    0  0.00000000000E+00  0.00000000000E+00  0.39999999674E+01  0.40000000000E+01  0.51100000000E-03 0. -1.
    9000002   -1    0    0    0    0 -0.00000000000E+00 -0.00000000000E+00  0.00000000000E+00  0.93800000000E+00  0.93800000000E+00 0. -1.
         11    1    1    2    0    0  0.66830739951E-01 -0.14338223485E+00  0.42517803103E+00  0.45365342748E+00  0.51100000000E-03 0. -1.
    9000002    1    1    2    0    0 -0.50929985250E+00  0.15891933238E+00  0.22110580457E+00  0.11015323285E+01  0.93800000000E+00 0. -1.
         22    1    1    2    0    0  0.44246911255E+00 -0.15537097525E-01  0.33537161318E+01  0.33828142440E+01  0.00000000000E+00 0. -1.
</event>
<event>
 5    1  0.8240609E+001  0.1500094E+01  0.7818608E-02  0.3469489E+00
         11   -1    0    0    0    0  0.00000000000E+00  0.00000000000E+00  0.39999999674E+01  0.40000000000E+01  0.51100000000E-03 0.  1.
    9000002   -1    0    0    0    0 -0.00000000000E+00 -0.00000000000E+00  0.00000000000E+00  0.93800000000E+00  0.93800000000E+00 0.  1.
         11    1    1    2    0    0  0.20786160232E+00 -0.45459465106E-01  0.49561699520E+00  0.53936024672E+00  0.51100000000E-03 0.  1.
    9000002    1    1    2    0    0  0.37836857704E+00  0.20935278242E+00  0.21706471103E+00  0.10554394613E+01  0.93800000000E+00 0.  1.
         22    1    1    2    0    0 -0.58623017937E+00 -0.16389331732E+00  0.32873182611E+01  0.33432002920E+01  0.00000000000E+00 0.  1.
</event>
<event>
 5    1  0.8240609E+001  0.1587423E+01  0.7818608E-02  0.3367128E+00
         11   -1    0    0    0    0  0.00000000000E+00  0.00000000000E+00  0.39999999674E+01  0.40000000000E+01  0.51100000000E-03 0.  1.
    9000002   -1    0    0    0    0 -0.00000000000E+00 -0.00000000000E+00  0.00000000000E+00  0.93800000000E+00  0.93800000000E+00 0.  1.
         11    1    1    2    0    0 -0.12231683265E-01 -0.57684356420E-01  0.52493595820E+00  0.52823774987E+00  0.51100000000E-03 0.  1.
    9000002    1    1    2    0    0 -0.28571971803E+00 -0.13205626607E+00  0.75918104561E-01  0.99231153036E+00  0.93800000000E+00 0.  1.
         22    1    1    2    0    0  0.29795140129E+00  0.18974062250E+00  0.33991459046E+01  0.34174507198E+01  0.00000000000E+00 0.  1.
</event>
<event>
 5    1  0.8240609E+001  0.1570765E+01  0.7818608E-02  0.3385719E+00
         11   -1    0    0    0    0  0.00000000000E+00  0.00000000000E+00  0.39999999674E+01  0.40000000000E+01  0.51100000000E-03 0.  1.
    9000002   -1    0    0    0    0 -0.00000000000E+00 -0.00000000000E+00  0.00000000000E+00  0.93800000000E+00  0.93800000000E+00 0.  1.
         11    1    1    2    0    0  0.89037420323E-01 -0.17170500283E+00  0.11258390213E+01  0.11423327156E+01  0.51100000000E-03 0.  1.
    9000002    1    1    2    0    0  0.17833781848E+00  0.17717447139E+00  0.64429068099E-01  0.97323700897E+00  0.93800000000E+00 0.  1.
         22    1    1    2    0    0 -0.26737523880E+00 -0.54694685613E-02  0.28097318780E+01  0.28224302754E+01  0.00000000000E+00 0.  1.
</event>
<event>
 5    1  0.8240609E+001  0.1599668E+01  0.7818608E-02  0.3353724E+00
         11   -1    0    0    0    0  0.00000000000E+00  0.00000000000E+00  0.39999999674E+01  0.40000000000E+01  0.51100000000E-03 0.  1.
    9000002   -1    0    0    0    0 -0.00000000000E+00 -0.00000000000E+00  0.00000000000E+00  0.93800000000E+00  0.93800000000E+00 0.  1.
         11    1    1    2    0    0 -0.87220160412E-01 -0.13887399206E-02  0.85306346588E+00  0.85751199579E+00  0.51100000000E-03 0.  1.
    9000002    1    1    2    0    0  0.41047774673E+00  0.96939773162E-02  0.11387918147E+00  0.10302419239E+01  0.93800000000E+00 0.  1.
         22    1    1    2    0    0 -0.32325758632E+00 -0.83052373957E-02  0.30330573200E+01  0.30502460803E+01  0.00000000000E+00 0.  1.
</event>
<event>
 5    1  0.8240609E+001  0.1599667E+01  0.7818608E-02  0.3353725E+00
         11   -1    0    0    0    0  0.00000000000E+00  0.00000000000E+00  0.39999999674E+01  0.40000000000E+01  0.51100000000E-03 0. -1.
    9000002   -1    0    0    0    0 -0.00000000000E+00 -0.00000000000E+00  0.00000000000E+00  0.93800000000E+00  0.93800000000E+00 0.  1.
         11    1    1    2    0    0 -0.74464125987E-01  0.21734407481E-01  0.62049823051E+00  0.62532839830E+00  0.51100000000E-03 0. -1.
    9000002    1    1    2    0    0  0.45091795587E+00 -0.12160431553E+00  0.14852991797E+00  0.10583098549E+01  0.93800000000E+00 0.  1.
         22    1    1    2    0    0 -0.37645382989E+00  0.99869908048E-01  0.32309718189E+01  0.32543617468E+01  0.00000000000E+00 0. -1.
</event>
<event>
 5    1  0.8240609E+001  0.1599608E+01  0.7818608E-02  0.3353789E+00
         11   -1    0    0    0    0  0.00000000000E+00  0.00000000000E+00  0.39999999674E+01  0.40000000000E+01  0.51100000000E-03 0.  1.
    9000002   -1    0    0    0    0 -0.00000000000E+00 -0.00000000000E+00  0.00000000000E+00  0.93800000000E+00  0.93800000000E+00 0.  1.
         11    1    1    2    0    0 -0.81966794021E-01  0.53958827629E-02  0.59974496137E+00  0.60534448926E+00  0.51100000000E-03 0.  1.
    9000002    1    1    2    0    0  0.52650586496E+00 -0.80063892658E-01  0.19532585056E+00  0.10961819377E+01  0.93800000000E+00 0.  1.
         22    1    1    2    0    0 -0.44453907094E+00  0.74668009895E-01  0.32049291554E+01  0.32364735730E+01  0.00000000000E+00 0.  1.
</event>
<event>
 5    1  0.8240609E+001  0.1599672E+01  0.7818608E-02  0.3353719E+00
         11   -1    0    0    0    0  0.00000000000E+00  0.00000000000E+00  0.39999999674E+01  0.40000000000E+01  0.51100000000E-03 0. -1.
    9000002   -1    0    0    0    0 -0.00000000000E+00 -0.00000000000E+00  0.00000000000E+00  0.93800000000E+00  0.93800000000E+00 0. -1.
         11    1    1    2    0    0 -0.70272333398E-01  0.83364130308E-01  0.12124281925E+01  0.12173208953E+01  0.51100000000E-03 0. -1.
    9000002    1    1    2    0    0  0.22754399859E+00 -0.27670706388E+00  0.86138377941E-01  0.10077732337E+01  0.93800000000E+00 0. -1.
         22    1    1    2    0    0 -0.15727166519E+00  0.19334293358E+00  0.27014333969E+01  0.27129058710E+01  0.00000000000E+00 0. -1.
</event>
<event>
 5    1  0.8240609E+001  0.1599103E+01  0.7818608E-02  0.3354338E+00
         11   -1    0    0    0    0  0.00000000000E+00  0.00000000000E+00  0.39999999674E+01  0.40000000000E+01  0.51100000000E-03 0. -1.
    9000002   -1    0    0    0    0 -0.00000000000E+00 -0.00000000000E+00  0.00000000000E+00  0.93800000000E+00  0.93800000000E+00 0.  1.
         11    1    1    2    0    0 -0.66097569017E-01  0.26909733084E-01  0.91039615325E+00  0.91318915858E+00  0.51100000000E-03 0. -1.
    9000002    1    1    2    0    0  0.26655837421E+00 -0.21920011237E+00  0.80277598699E-01  0.10026916520E+01  0.93800000000E+00 0.  1.
         22    1    1    2    0    0 -0.20046080519E+00  0.19229037928E+00  0.30093262154E+01  0.30221191894E+01  0.00000000000E+00 0. -1.
</event>
<event>
 5    1  0.8240609E+001  0.1599631E+01  0.7818608E-02  0.3353764E+00
         11   -1    0    0    0    0  0.00000000000E+00  0.00000000000E+00  0.39999999674E+01  0.40000000000E+01  0.51100000000E-03 0. -1.
    9000002   -1    0    0    0    0 -0.00000000000E+00 -0.00000000000E+00  0.00000000000E+00  0.93800000000E+00  0.93800000000E+00 0. -1.
         11    1    1    2    0    0  0.29899681915E-01 -0.13777533229E+00  0.14829969329E+01  0.14896832540E+01  0.51100000000E-03 0. -1.
    9000002    1    1    2    0    0 -0.93307630232E-01  0.34846418795E+00  0.87398109747E-01  0.10087695642E+01  0.93800000000E+00 0. -1.
         22    1    1    2    0    0  0.63407948318E-01 -0.21068885566E+00  0.24296049248E+01  0.24395471818E+01  0.00000000000E+00 0. -1.
</event>
<event>
 5    1  0.8240609E+001  0.1599618E+01  0.7818608E-02  0.3353778E+00
         11   -1    0    0    0    0  0.00000000000E+00  0.00000000000E+00  0.39999999674E+01  0.40000000000E+01  0.51100000000E-03 0. -1.
    9000002   -1    0    0    0    0 -0.00000000000E+00 -0.00000000000E+00  0.00000000000E+00  0.93800000000E+00  0.93800000000E+00 0. -1.
         11    1    1    2    0    0 -0.73180654647E-01 -0.18053652755E+00  0.88578939238E+00  0.90695752644E+00  0.51100000000E-03 0. -1.
    9000002    1    1    2    0    0  0.26215646592E+00  0.72715048076E+00  0.43629466293E+00  0.12913833154E+01  0.93800000000E+00 0. -1.
         22    1    1    2    0    0 -0.18897581128E+00 -0.54661395321E+00  0.26779159121E+01  0.27396591582E+01  0.00000000000E+00 0. -1.
</event>
<event>
 5    1  0.8240609E+001  0.1599650E+01  0.7818608E-02  0.3353744E+00
         11   -1    0    0    0    0  0.00000000000E+00  0.00000000000E+00  0.39999999674E+01  0.40000000000E+01  0.51100000000E-03 0.  1.
    9000002   -1    0    0    0    0 -0.00000000000E+00 -0.00000000000E+00  0.00000000000E+00  0.93800000000E+00  0.93800000000E+00 0.  1.
         11    1    1    2    0    0 -0.23812302426E-01 -0.20083495542E-01  0.30430986917E+00  0.30590052327E+00  0.51100000000E-03 0.  1.
    9000002    1    1    2    0    0  0.33569723404E+00  0.22769635017E+00  0.11108798765E+00  0.10279702339E+01  0.93800000000E+00 0.  1.
         22    1    1    2    0    0 -0.31188493162E+00 -0.20761285463E+00  0.35846021105E+01  0.36041292428E+01  0.00000000000E+00 0.  1.
</event>
<event>
 5    1  0.8240609E+001  0.1599504E+01  0.7818608E-02  0.3353902E+00
         11   -1    0    0    0    0  0.00000000000E+00  0.00000000000E+00  0.39999999674E+01  0.40000000000E+01  0.51100000000E-03 0.  1.
    9000002   -1    0    0    0    0 -0.00000000000E+00 -0.00000000000E+00  0.00000000000E+00  0.93800000000E+00  0.93800000000E+00 0. -1.
         11    1    1    2    0    0  0.66253480259E-01  0.21254260313E-01  0.75294166395E+00  0.75614990423E+00  0.51100000000E-03 0.  1.
    9000002    1    1    2    0    0 -0.37281475432E+00 -0.16667793938E+00  0.11275851393E+00  0.10292379992E+01  0.93800000000E+00 0. -1.
         22    1    1    2    0    0  0.30656127406E+00  0.14542367907E+00  0.31342997895E+01  0.31526120966E+01  0.00000000000E+00 0.  1.
</event>
<event>
 5    1  0.8240609E+001  0.1586493E+01  0.7818608E-02  0.3368156E+00
         11   -1    0    0    0    0  0.00000000000E+00  0.00000000000E+00  0.39999999674E+01  0.40000000000E+01  0.51100000000E-03 0.  1.
    9000002   -1    0    0    0    0 -0.00000000000E+00 -0.00000000000E+00  0.00000000000E+00  0.93800000000E+00  0.93800000000E+00 0. -1.
         11    1    1    2    0    0  0.37344640353E-01  0.15072418240E+00  0.11131584932E+01  0.11239370505E+01  0.51100000000E-03 0.  1.
    9000002    1    1    2    0    0  0.26028532413E+00 -0.33182480435E+00  0.13154169717E+00  0.10368236923E+01  0.93800000000E+00 0. -1.
         22    1    1    2    0    0 -0.29762996449E+00  0.18110062195E+00  0.27552997769E+01  0.27772392572E+01  0.00000000000E+00 0.  1.
</event>
<event>
 5    1  0.1646707E+002  0.1564007E+01  0.7818608E-02  0.3393380E+00
         11   -1    0    0    0    0  0.00000000000E+00  0.00000000000E+00  0.39999999674E+01  0.40000000000E+01  0.51100000000E-03 0.  1.
    9000002   -1    0    0    0    0 -0.00000000000E+00 -0.00000000000E+00  0.00000000000E+00  0.93800000000E+00  0.93800000000E+00 0.  1.
         11    1    1    2    0    0  0.61427934678E-01 -0.17417206916E+00  0.12719241706E+01  0.12852628749E+01  0.51100000000E-03 0.  1.
    9000002    1    1    2    0    0  0.17058578303E-01 -0.84730863428E-01  0.31370986536E-01  0.94249586371E+00  0.93800000000E+00 0.  1.
         22    1    1    2    0    0 -0.78486512981E-01  0.25890293259E+00  0.26967048102E+01  0.27102412614E+01  0.00000000000E+00 0.  1.
</event>
<event>
 5    1  0.8240609E+001  0.1599652E+01  0.7818608E-02  0.3353742E+00
         11   -1    0    0    0    0  0.00000000000E+00  0.00000000000E+00  0.39999999674E+01  0.40000000000E+01  0.51100000000E-03 0.  1.
    9000002   -1    0    0    0    0 -0.00000000000E+00 -0.00000000000E+00  0.00000000000E+00  0.93800000000E+00  0.93800000000E+00 0.  1.
         11    1    1    2    0    0  0.37253715080E-01 -0.78033426668E-01  0.62036053940E+00  0.62635813632E+00  0.51100000000E-03 0.  1.
    9000002    1    1    2    0    0 -0.24246162483E+00  0.49946469465E+00  0.21314627463E+00  0.11106430368E+01  0.93800000000E+00 0.  1.
         22    1    1    2    0    0  0.20520790975E+00 -0.42143126798E+00  0.31664931533E+01  0.32009988269E+01  0.00000000000E+00 0.  1.
</event>
<event>
 5    1  0.8240609E+001  0.1599673E+01  0.7818608E-02  0.3353718E+00
         11   -1    0    0    0    0  0.00000000000E+00  0.00000000000E+00  0.39999999674E+01  0.40000000000E+01  0.51100000000E-03 0. -1.
    9000002   -1    0    0    0    0 -0.00000000000E+00 -0.00000000000E+00  0.00000000000E+00  0.93800000000E+00  0.93800000000E+00 0.  1.
         11    1    1    2    0    0 -0.59379893567E-01  0.31327086365E-04  0.44841633987E+00  0.45233112619E+00  0.51100000000E-03 0. -1.
    9000002    1    1    2    0    0  0.51694713290E+00  0.36215711381E-02  0.18348208466E+00  0.10866264903E+01  0.93800000000E+00 0.  1.
         22    1    1    2    0    0 -0.45756723933E+00 -0.36528982244E-02  0.33681015428E+01  0.33990423835E+01  0.00000000000E+00 0. -1.
</event>
<event>
 5    1  0.8240609E+001  0.1599656E+01  0.7818608E-02  0.3353736E+00
         11   -1    0    0    0    0  0.00000000000E+00  0.00000000000E+00  0.39999999674E+01  0.40000000000E+01  0.51100000000E-03 0.  1.
    9000002   -1    0    0    0    0 -0.00000000000E+00 -0.00000000000E+00  0.00000000000E+00  0.93800000000E+00  0.93800000000E+00 0.  1.
         11    1    1    2    0    0 -0.78508362464E-02 -0.38481076118E-03  0.80878590887E-01  0.81261253337E-01  0.51100000000E-03 0. -1.
    9000002    1    1    2    0    0  0.36057551243E+00 -0.50109909942E-01  0.89017396406E-01  0.10100959361E+01  0.93800000000E+00 0.  1.
         22    1    1    2    0    0 -0.35272467619E+00  0.50494720703E-01  0.38301039801E+01  0.38466428106E+01  0.00000000000E+00 0.  1.
</event>
<event>
 5    1  0.8240609E+001  0.1596500E+01  0.7818608E-02  0.3357171E+00
         11   -1    0    0    0    0  0.00000000000E+00  0.00000000000E+00  0.39999999674E+01  0.40000000000E+01  0.51100000000E-03 0. -1.
    9000002   -1    0    0    0    0 -0.00000000000E+00 -0.00000000000E+00  0.00000000000E+00  0.93800000000E+00  0.93800000000E+00 0. -1.
         11    1    1    2    0    0  0.13396404058E-01 -0.74345681370E-01  0.94194647325E+00  0.94497098557E+00  0.51100000000E-03 0. -1.
    9000002    1    1    2    0    0  0.13704625299E+00  0.44634184488E+00  0.15122882300E+00  0.10586391618E+01  0.93800000000E+00 0. -1.
         22    1    1    2    0    0 -0.15044265705E+00 -0.37199616351E+00  0.29068246711E+01  0.29343898527E+01  0.00000000000E+00 0.  1.
</event>
<event>
 5    1  0.8240609E+001  0.1599521E+01  0.7818608E-02  0.3353883E+00
         11   -1    0    0    0    0  0.00000000000E+00  0.00000000000E+00  0.39999999674E+01  0.40000000000E+01  0.51100000000E-03 0. -1.
    9000002   -1    0    0    0    0 -0.00000000000E+00 -0.00000000000E+00  0.00000000000E+00  0.93800000000E+00  0.93800000000E+00 0. -1.
         11    1    1    2    0    0  0.33728743223E-01  0.22261531047E-01  0.25450703057E+00  0.25769612650E+00  0.51100000000E-03 0. -1.
    9000002    1    1    2    0    0 -0.55722668372E+00 -0.23473217714E+00  0.25548978298E+00  0.11448667177E+01  0.93800000000E+00 0. -1.
         22    1    1    2    0    0  0.52349794050E+00  0.21247064609E+00  0.34900031538E+01  0.35354371558E+01  0.00000000000E+00 0. -1.
</event>
<event>
 5    1  0.8240609E+001  0.1594091E+01  0.7818608E-02  0.3359802E+00
         11   -1    0    0    0    0  0.00000000000E+00  0.00000000000E+00  0.39999999674E+01  0.40000000000E+01  0.51100000000E-03 0. -1.
    9000002   -1    0    0    0    0 -0.00000000000E+00 -0.00000000000E+00  0.00000000000E+00  0.93800000000E+00  0.93800000000E+00 0. -1.
         11    1    1    2    0    0 -0.29343675061E-01 -0.87194947089E-01  0.51319952849E+00  0.52138088498E+00  0.51100000000E-03 0. -1.
    9000002    1    1    2    0    0 -0.14012580140E+00  0.37292908169E+00  0.11168901437E+00  0.10251974328E+01  0.93800000000E+00 0. -1.
         22    1    1    2    0    0  0.16946947647E+00 -0.28573413461E+00  0.33751114245E+01  0.33914216823E+01  0.00000000000E+00 0. -1.
</event>
<event>
 5    1  0.8240609E+001  0.1598395E+01  0.7818608E-02  0.3355107E+00
         11   -1    0    0    0    0  0.00000000000E+00  0.00000000000E+00  0.39999999674E+01  0.40000000000E+01  0.51100000000E-03 0. -1.
    9000002   -1    0    0    0    0 -0.00000000000E+00 -0.00000000000E+00  0.00000000000E+00  0.93800000000E+00  0.93800000000E+00 0.  1.
         11    1    1    2    0    0 -0.14727759223E-01 -0.51870758406E-01  0.11330075512E+01  0.11342900222E+01  0.51100000000E-03 0. -1.
    9000002    1    1    2    0    0  0.14136941601E+00  0.28141652600E+00  0.67270834068E-01  0.99174086232E+00  0.93800000000E+00 0.  1.
         22    1    1    2    0    0 -0.12664165679E+00 -0.22954576759E+00  0.27997215821E+01  0.28119691154E+01  0.00000000000E+00 0. -1.
</event>
<event>
 5    1  0.8240609E+001  0.1599677E+01  0.7818608E-02  0.3353714E+00
         11   -1    0    0    0    0  0.00000000000E+00  0.00000000000E+00  0.39999999674E+01  0.40000000000E+01  0.51100000000E-03 0. -1.
    9000002   -1    0    0    0    0 -0.00000000000E+00 -0.00000000000E+00  0.00000000000E+00  0.93800000000E+00  0.93800000000E+00 0.  1.
         11    1    1    2    0    0 -0.17981332871E+00 -0.11040522731E-01  0.14104132735E+01  0.14218722128E+01  0.51100000000E-03 0. -1.
    9000002    1    1    2    0    0  0.48904035781E+00  0.31092509158E-01  0.16410911376E+00  0.10709355802E+01  0.93800000000E+00 0.  1.
         22    1    1    2    0    0 -0.30922702911E+00 -0.20051986427E-01  0.24254775801E+01  0.24451922071E+01  0.00000000000E+00 0. -1.
</event>
<event>
 5    1  0.8240609E+001  0.1521662E+01  0.7818608E-02  0.3443039E+00
         11   -1    0    0    0    0  0.00000000000E+00  0.00000000000E+00  0.39999999674E+01  0.40000000000E+01  0.51100000000E-03 0.  1.
    9000002   -1    0    0    0    0 -0.00000000000E+00 -0.00000000000E+00  0.00000000000E+00  0.93800000000E+00  0.93800000000E+00 0. -1.
         11    1    1    2    0    0  0.20593462370E+00  0.30380345129E+00  0.13395877721E+01  0.13889568987E+01  0.51100000000E-03 0.  1.
    9000002    1    1    2    0    0 -0.24037295105E+00 -0.23761293486E-01  0.10069338380E+00  0.97382078033E+00  0.93800000000E+00 0. -1.
         22    1    1    2    0    0  0.34438327349E-01 -0.28004215780E+00  0.25597188115E+01  0.25752223209E+01  0.00000000000E+00 0.  1.
</event>
<event>
 5    1  0.8240609E+001  0.1551735E+01  0.7818608E-02  0.3407474E+00
         11   -1    0    0    0    0  0.00000000000E+00  0.00000000000E+00  0.39999999674E+01  0.40000000000E+01  0.51100000000E-03 0. -1.
    9000002   -1    0    0    0    0 -0.00000000000E+00 -0.00000000000E+00  0.00000000000E+00  0.93800000000E+00  0.93800000000E+00 0.  1.
         11    1    1    2    0    0 -0.50392983028E-01 -0.60462981442E-01  0.10195581203E+00  0.12880401233E+00  0.51100000000E-03 0. -1.
    9000002    1    1    2    0    0 -0.19628441642E+00 -0.30122029724E+00  0.12667086086E+00  0.10124972823E+01  0.93800000000E+00 0.  1.
         22    1    1    2    0    0  0.24667739945E+00  0.36168327868E+00  0.37713732945E+01  0.37966987054E+01  0.00000000000E+00 0. -1.
</event>
<event>
 5    1  0.8240609E+001  0.1592561E+01  0.7818608E-02  0.3361477E+00
         11   -1    0    0    0    0  0.00000000000E+00  0.00000000000E+00  0.39999999674E+01  0.40000000000E+01  0.51100000000E-03 0.  1.
    9000002   -1    0    0    0    0 -0.00000000000E+00 -0.00000000000E+00  0.00000000000E+00  0.93800000000E+00  0.93800000000E+00 0. -1.
         11    1    1    2    0    0 -0.12017854339E+00  0.32077452310E-01  0.61961640756E+00  0.63197832153E+00  0.51100000000E-03 0.  1.
    9000002    1    1    2    0    0  0.44699788081E+00  0.15789165030E+00  0.15949258876E+00  0.10630234073E+01  0.93800000000E+00 0. -1.
         22    1    1    2    0    0 -0.32681933742E+00 -0.18996910261E+00  0.32208909710E+01  0.32429982711E+01  0.00000000000E+00 0.  1.
</event>
<event>
 5    1  0.8240609E+001  0.1599428E+01  0.7818608E-02  0.3353984E+00
         11   -1    0    0    0    0  0.00000000000E+00  0.00000000000E+00  0.39999999674E+01  0.40000000000E+01  0.51100000000E-03 0. -1.
    9000002   -1    0    0    0    0 -0.00000000000E+00 -0.00000000000E+00  0.00000000000E+00  0.93800000000E+00  0.93800000000E+00 0.  1.
         11    1    1    2    0    0  0.19395847226E+00  0.23815349708E+00  0.12955523677E+01  0.13314627955E+01  0.51100000000E-03 0. -1.
    9000002    1    1    2    0    0 -0.56438558071E+00 -0.61637695508E+00  0.52138146422E+00  0.13601964070E+01  0.93800000000E+00 0.  1.
         22    1    1    2    0    0  0.37042710845E+00  0.37822345800E+00  0.21830661354E+01  0.22463407975E+01  0.00000000000E+00 0. -1.
</event>
<event>
 5    1  0.8240609E+001  0.1573394E+01  0.7818608E-02  0.3382757E+00
         11   -1    0    0    0    0  0.00000000000E+00  0.00000000000E+00  0.39999999674E+01  0.40000000000E+01  0.51100000000E-03 0.  1.
    9000002   -1    0    0    0    0 -0.00000000000E+00 -0.00000000000E+00  0.00000000000E+00  0.93800000000E+00  0.93800000000E+00 0. -1.
         11    1    1    2    0    0 -0.78272486588E-01 -0.57486950632E-01  0.13816274777E+01  0.13850364905E+01  0.51100000000E-03 0.  1.
    9000002    1    1    2    0    0 -0.18969026024E+00 -0.17004541218E+00  0.63532549462E-01  0.97405247388E+00  0.93800000000E+00 0. -1.
         22    1    1    2    0    0  0.26796274682E+00  0.22753236281E+00  0.25548399401E+01  0.25789110356E+01  0.00000000000E+00 0.  1.
</event>
<event>
 5    1  0.8240609E+001  0.1599674E+01  0.7818608E-02  0.3353717E+00
         11   -1    0    0    0    0  0.00000000000E+00  0.00000000000E+00  0.39999999674E+01  0.40000000000E+01  0.51100000000E-03 0. -1.
    9000002   -1    0    0    0    0 -0.00000000000E+00 -0.00000000000E+00  0.00000000000E+00  0.93800000000E+00  0.93800000000E+00 0. -1.
         11    1    1    2    0    0 -0.18101394627E+00 -0.14736339285E+00  0.11917370203E+01  0.12143802555E+01  0.51100000000E-03 0. -1.
    9000002    1    1    2    0    0  0.55540978658E+00  0.45344955790E+00  0.36913295639E+00  0.12370123977E+01  0.93800000000E+00 0. -1.
         22    1    1    2    0    0 -0.37439584032E+00 -0.30608616505E+00  0.24391299907E+01  0.24866073468E+01  0.00000000000E+00 0. -1.
</event>
<event>
 5    1  0.8240609E+001  0.1599671E+01  0.7818608E-02  0.3353720E+00
         11   -1    0    0    0    0  0.00000000000E+00  0.00000000000E+00  0.39999999674E+01  0.40000000000E+01  0.51100000000E-03 0. -1.
    9000002   -1    0    0    0    0 -0.00000000000E+00 -0.00000000000E+00  0.00000000000E+00  0.93800000000E+00  0.93800000000E+00 0. -1.
         11    1    1    2    0    0  0.55252433044E-01 -0.17474617266E+00  0.13166819071E+01  0.13293760047E+01  0.51100000000E-03 0. -1.
    9000002    1    1    2    0    0 -0.15472104905E+00  0.51112698970E+00  0.19640104230E+00  0.10970901385E+01  0.93800000000E+00 0. -1.
         22    1    1    2    0    0  0.99468616003E-01 -0.33638081705E+00  0.24869170180E+01  0.25115338568E+01  0.00000000000E+00 0. -1.
</event>
<event>
 5    1  0.8240609E+001  0.1506068E+01  0.7818608E-02  0.3462081E+00
         11   -1    0    0    0    0  0.00000000000E+00  0.00000000000E+00  0.39999999674E+01  0.40000000000E+01  0.51100000000E-03 0. -1.
    9000002   -1    0    0    0    0 -0.00000000000E+00 -0.00000000000E+00  0.00000000000E+00  0.93800000000E+00  0.93800000000E+00 0. -1.
         11    1    1    2    0    0 -0.41103866761E+00 -0.35280458476E-01  0.76959432205E+00  0.87319710185E+00  0.51100000000E-03 0. -1.
    9000002    1    1    2    0    0  0.48869388114E+00  0.34162314216E+00  0.34735968746E+00  0.11644873693E+01  0.93800000000E+00 0. -1.
         22    1    1    2    0    0 -0.77655213534E-01 -0.30634268368E+00  0.28830459578E+01  0.29003155289E+01  0.00000000000E+00 0. -1.
</event>
<event>
 5    1  0.8240609E+001  0.1599677E+01  0.7818608E-02  0.3353714E+00
         11   -1    0    0    0    0  0.00000000000E+00  0.00000000000E+00  0.39999999674E+01  0.40000000000E+01  0.51100000000E-03 0. -1.
    9000002   -1    0    0    0    0 -0.00000000000E+00 -0.00000000000E+00  0.00000000000E+00  0.93800000000E+00  0.93800000000E+00 0. -1.
         11    1    1    2    0    0 -0.69776096349E-01 -0.33808599227E-01  0.81042075008E+00  0.81412147636E+00  0.51100000000E-03 0.  1.
    9000002    1    1    2    0    0  0.33696067565E+00  0.16210360371E+00  0.94008184994E-01  0.10141506861E+01  0.93800000000E+00 0. -1.
         22    1    1    2    0    0 -0.26718457930E+00 -0.12829500449E+00  0.30955710323E+01  0.31097278375E+01  0.00000000000E+00 0. -1.
</event>
<event>
 5    1  0.8240609E+001  0.1597965E+01  0.7818608E-02  0.3355575E+00
         11   -1    0    0    0    0  0.00000000000E+00  0.00000000000E+00  0.39999999674E+01  0.40000000000E+01  0.51100000000E-03 0.  1.
    9000002   -1    0    0    0    0 -0.00000000000E+00 -0.00000000000E+00  0.00000000000E+00  0.93800000000E+00  0.93800000000E+00 0.  1.
         11    1    1    2    0    0 -0.82252767790E-02  0.36605200933E-02  0.20238835499E-01  0.22156853766E-01  0.51100000000E-03 0.  1.
    9000002    1    1    2    0    0  0.21973715950E+00 -0.31728462702E+00  0.10170724398E+00  0.10193833024E+01  0.93800000000E+00 0.  1.
         22    1    1    2    0    0 -0.21151188272E+00  0.31362410693E+00  0.38780538879E+01  0.38964598438E+01  0.00000000000E+00 0.  1.
</event>
<event>
 5    1  0.8240609E+001  0.1599674E+01  0.7818608E-02  0.3353717E+00
         11   -1    0    0    0    0  0.00000000000E+00  0.00000000000E+00  0.39999999674E+01  0.40000000000E+01  0.51100000000E-03 0.  1.
    9000002   -1    0    0    0    0 -0.00000000000E+00 -0.00000000000E+00  0.00000000000E+00  0.93800000000E+00  0.93800000000E+00 0.  1.
         11    1    1    2    0    0  0.10542571770E+00  0.81165585620E-01  0.14119778356E+01  0.14182327396E+01  0.51100000000E-03 0.  1.
    9000002    1    1    2    0    0 -0.28698146564E+00 -0.22704065946E+00  0.89949543405E-01  0.10108613867E+01  0.93800000000E+00 0.  1.
         22    1    1    2    0    0  0.18155574794E+00  0.14587507384E+00  0.24980725883E+01  0.25089058737E+01  0.00000000000E+00 0.  1.
</event>
<event>
 5    1  0.8240609E+001  0.1599674E+01  0.7818608E-02  0.3353717E+00
         11   -1    0    0    0    0  0.00000000000E+00  0.00000000000E+00  0.39999999674E+01  0.40000000000E+01  0.51100000000E-03 0. -1.
    9000002   -1    0    0    0    0 -0.00000000000E+00 -0.00000000000E+00  0.00000000000E+00  0.93800000000E+00  0.93800000000E+00 0.  1.
         11    1    1    2    0    0 -0.14181833804E+00 -0.93313448680E-01  0.14016202402E+01  0.14118638034E+01  0.51100000000E-03 0. -1.
    9000002    1    1    2    0    0  0.39311680137E+00  0.25988669079E+00  0.15132403474E+00  0.10605776139E+01  0.93800000000E+00 0.  1.
         22    1    1    2    0    0 -0.25129846333E+00 -0.16657324211E+00  0.24470556925E+01  0.24655585827E+01  0.00000000000E+00 0. -1.
</event>
<event>
 5    1  0.8240609E+001  0.1599438E+01  0.7818608E-02  0.3353973E+00
         11   -1    0    0    0    0  0.00000000000E+00  0.00000000000E+00  0.39999999674E+01  0.40000000000E+01  0.51100000000E-03 0.  1.
    9000002   -1    0    0    0    0 -0.00000000000E+00 -0.00000000000E+00  0.00000000000E+00  0.93800000000E+00  0.93800000000E+00 0.  1.
         11    1    1    2    0    0  0.19149595813E+00 -0.21992096332E-01  0.13013292394E+01  0.13155274245E+01  0.51100000000E-03 0.  1.
    9000002    1    1    2    0    0 -0.54229120472E+00  0.15272859750E-01  0.20321968772E+00  0.11024768716E+01  0.93800000000E+00 0.  1.
         22    1    1    2    0    0  0.35079524659E+00  0.67192365823E-02  0.24954510403E+01  0.25199957039E+01  0.00000000000E+00 0.  1.
</event>
<event>
 5    1  0.8240609E+001  0.1544136E+01  0.7818608E-02  0.3416321E+00
         11   -1    0    0    0    0  0.00000000000E+00  0.00000000000E+00  0.39999999674E+01  0.40000000000E+01  0.51100000000E-03 0.  1.
    9000002   -1    0    0    0    0 -0.00000000000E+00 -0.00000000000E+00  0.00000000000E+00  0.93800000000E+00  0.93800000000E+00 0. -1.
         11    1    1    2    0    0  0.11207029897E+00  0.26256621319E+00  0.14487950016E+01  0.14766543217E+01  0.51100000000E-03 0.  1.
    9000002    1    1    2    0    0  0.11098982502E+00 -0.96783855560E-01  0.56458341964E-01  0.95116633684E+00  0.93800000000E+00 0. -1.
         22    1    1    2    0    0 -0.22306012399E+00 -0.16578235763E+00  0.24947466238E+01  0.25101793414E+01  0.00000000000E+00 0.  1.
</event>
<event>
 5    1  0.8240609E+001  0.1569066E+01  0.7818608E-02  0.3387638E+00
         11   -1    0    0    0    0  0.00000000000E+00  0.00000000000E+00  0.39999999674E+01  0.40000000000E+01  0.51100000000E-03 0. -1.
    9000002   -1    0    0    0    0 -0.00000000000E+00 -0.00000000000E+00  0.00000000000E+00  0.93800000000E+00  0.93800000000E+00 0.  1.
         11    1    1    2    0    0 -0.53430438725E-01  0.12660999129E+00  0.14314486026E+01  0.14380299944E+01  0.51100000000E-03 0. -1.
    9000002    1    1    2    0    0  0.78910907741E-01  0.20487847543E+00  0.55421641781E-01  0.96494439189E+00  0.93800000000E+00 0.  1.
         22    1    1    2    0    0 -0.25480469016E-01 -0.33148846672E+00  0.25131297230E+01  0.25350256138E+01  0.00000000000E+00 0. -1.
</event>
<event>
 5    1  0.8240609E+001  0.1599185E+01  0.7818608E-02  0.3354248E+00
         11   -1    0    0    0    0  0.00000000000E+00  0.00000000000E+00  0.39999999674E+01  0.40000000000E+01  0.51100000000E-03 0.  1.
    9000002   -1    0    0    0    0 -0.00000000000E+00 -0.00000000000E+00  0.00000000000E+00  0.93800000000E+00  0.93800000000E+00 0.  1.
         11    1    1    2    0    0  0.83446336094E-01  0.43079960917E-01  0.97234642299E+00  0.97687102602E+00  0.51100000000E-03 0.  1.
    9000002    1    1    2    0    0 -0.40218611377E+00 -0.11056880982E+00  0.11803094722E+00  0.10333220390E+01  0.93800000000E+00 0.  1.
         22    1    1    2    0    0  0.31873977768E+00  0.67488848906E-01  0.29096225971E+01  0.29278069350E+01  0.00000000000E+00 0. -1.
</event>
<event>
 5    1  0.8240609E+001  0.1599673E+01  0.7818608E-02  0.3353718E+00
         11   -1    0    0    0    0  0.00000000000E+00  0.00000000000E+00  0.39999999674E+01  0.40000000000E+01  0.51100000000E-03 0.  1.
    9000002   -1    0    0    0    0 -0.00000000000E+00 -0.00000000000E+00  0.00000000000E+00  0.93800000000E+00  0.93800000000E+00 0. -1.
         11    1    1    2    0    0 -0.13000473129E+00 -0.12104636752E+00  0.13246834578E+01  0.13365403016E+01  0.51100000000E-03 0.  1.
    9000002    1    1    2    0    0  0.38022763830E+00  0.35176510665E+00  0.18424620986E+00  0.10872453325E+01  0.93800000000E+00 0. -1.
         22    1    1    2    0    0 -0.25022290701E+00 -0.23071873913E+00  0.24910702997E+01  0.25142143659E+01  0.00000000000E+00 0.  1.
</event>
<event>
 5    1  0.8240609E+001  0.1599675E+01  0.7818608E-02  0.3353716E+00
         11   -1    0    0    0    0  0.00000000000E+00  0.00000000000E+00  0.39999999674E+01  0.40000000000E+01  0.51100000000E-03 0.  1.
    9000002   -1    0    0    0    0 -0.00000000000E+00 -0.00000000000E+00  0.00000000000E+00  0.93800000000E+00  0.93800000000E+00 0. -1.
         11    1    1    2    0    0  0.33383767405E-01 -0.56776434630E-01  0.50318683477E+00  0.50747935057E+00  0.51100000000E-03 0.  1.
    9000002    1    1    2    0    0 -0.24723543181E+00  0.43539292016E+00  0.17163448429E+00  0.10770305241E+01  0.93800000000E+00 0. -1.
         22    1    1    2    0    0  0.21385166440E+00 -0.37861648553E+00  0.33251786483E+01  0.33534901253E+01  0.00000000000E+00 0.  1.
</event>
<event>
 5    1  0.8240609E+001  0.1592706E+01  0.7818608E-02  0.3361318E+00
         11   -1    0    0    0    0  0.00000000000E+00  0.00000000000E+00  0.39999999674E+01  0.40000000000E+01  0.51100000000E-03 0.  1.
    9000002   -1    0    0    0    0 -0.00000000000E+00 -0.00000000000E+00  0.00000000000E+00  0.93800000000E+00  0.93800000000E+00 0.  1.
         11    1    1    2    0    0 -0.70217524927E-01  0.94457536602E-01  0.98842567851E+00  0.99540861464E+00  0.51100000000E-03 0.  1.
    9000002    1    1    2    0    0  0.42980462457E+00 -0.63745835417E-01  0.13391290121E+00  0.10423877455E+01  0.93800000000E+00 0.  1.
         22    1    1    2    0    0 -0.35958709965E+00 -0.30711701185E-01  0.28776613876E+01  0.29002036399E+01  0.00000000000E+00 0.  1.
</event>
<event>
 5    1  0.8240609E+001  0.1599671E+01  0.7818608E-02  0.3353721E+00
         11   -1    0    0    0    0  0.00000000000E+00  0.00000000000E+00  0.39999999674E+01  0.40000000000E+01  0.51100000000E-03 0. -1.
    9000002   -1    0    0    0    0 -0.00000000000E+00 -0.00000000000E+00  0.00000000000E+00  0.93800000000E+00  0.93800000000E+00 0.  1.
         11    1    1    2    0    0 -0.50404811486E-02  0.51179240179E-01  0.46634672855E+00  0.46917401189E+00  0.51100000000E-03 0. -1.
    9000002    1    1    2    0    0  0.26556914288E-01 -0.42239732293E+00  0.12120144855E+00  0.10361749656E+01  0.93800000000E+00 0.  1.
         22    1    1    2    0    0 -0.21516433139E-01  0.37121808275E+00  0.34124517903E+01  0.34326510226E+01  0.00000000000E+00 0. -1.
</event>
<event>
 5    1  0.8240609E+001  0.1589244E+01  0.7818608E-02  0.3365121E+00
         11   -1    0    0    0    0  0.00000000000E+00  0.00000000000E+00  0.39999999674E+01  0.40000000000E+01  0.51100000000E-03 0. -1.
    9000002   -1    0    0    0    0 -0.00000000000E+00 -0.00000000000E+00  0.00000000000E+00  0.93800000000E+00  0.93800000000E+00 0. -1.
         11    1    1    2    0    0  0.86237415961E-01 -0.10624020011E+00  0.43044307970E+00  0.45166954515E+00  0.51100000000E-03 0. -1.
    9000002    1    1    2    0    0 -0.35083662883E+00  0.37033011970E+00  0.18799446408E+00  0.10841663416E+01  0.93800000000E+00 0. -1.
         22    1    1    2    0    0  0.26459921287E+00 -0.26408991959E+00  0.33815624236E+01  0.34021641133E+01  0.00000000000E+00 0. -1.
</event>
<event>
 5    1  0.8240609E+001  0.1599674E+01  0.7818608E-02  0.3353717E+00
         11   -1    0    0    0    0  0.00000000000E+00  0.00000000000E+00  0.39999999674E+01  0.40000000000E+01  0.51100000000E-03 0.  1.
    9000002   -1    0    0    0    0 -0.00000000000E+00 -0.00000000000E+00  0.00000000000E+00  0.93800000000E+00  0.93800000000E+00 0. -1.
         11    1    1    2    0    0  0.13918728110E-01 -0.20300811691E-01  0.25190881941E+00  0.25310900491E+00  0.51100000000E-03 0.  1.
    9000002    1    1    2    0    0 -0.20380251064E+00  0.32084243061E+00  0.97212212692E-01  0.10167445810E+01  0.93800000000E+00 0. -1.
         22    1    1    2    0    0  0.18988378253E+00 -0.30054161892E+00  0.36508789353E+01  0.36681464141E+01  0.00000000000E+00 0.  1.
</event>
<event>
 5    1  0.8240609E+001  0.1599577E+01  0.7818608E-02  0.3353822E+00
         11   -1    0    0    0    0  0.00000000000E+00  0.00000000000E+00  0.39999999674E+01  0.40000000000E+01  0.51100000000E-03 0.  1.
    9000002   -1    0    0    0    0 -0.00000000000E+00 -0.00000000000E+00  0.00000000000E+00  0.93800000000E+00  0.93800000000E+00 0. -1.
         11    1    1    2    0    0  0.34923807582E+00 -0.90847444130E-01  0.12123798799E+01  0.12649449498E+01  0.51100000000E-03 0.  1.
    9000002    1    1    2    0    0 -0.95478155385E+00  0.22071233018E+00  0.76418819590E+00  0.15569679981E+01  0.93800000000E+00 0. -1.
         22    1    1    2    0    0  0.60554347804E+00 -0.12986488605E+00  0.20234318915E+01  0.21160870521E+01  0.00000000000E+00 0.  1.
</event>
<event>
 5    1  0.8240609E+001  0.1599675E+01  0.7818608E-02  0.3353717E+00
         11   -1    0    0    0    0  0.00000000000E+00  0.00000000000E+00  0.39999999674E+01  0.40000000000E+01  0.51100000000E-03 0.  1.
    9000002   -1    0    0    0    0 -0.00000000000E+00 -0.00000000000E+00  0.00000000000E+00  0.93800000000E+00  0.93800000000E+00 0.  1.
         11    1    1    2    0    0 -0.78580451874E-01  0.10931937029E+00  0.11099329138E+01  0.11180683997E+01  0.51100000000E-03 0.  1.
    9000002    1    1    2    0    0  0.27762728458E+00 -0.37609739329E+00  0.14881356056E+00  0.10585441106E+01  0.93800000000E+00 0.  1.
         22    1    1    2    0    0 -0.19904683270E+00  0.26677802300E+00  0.27412534930E+01  0.27613874897E+01  0.00000000000E+00 0.  1.
</event>
<event>
 5    1  0.8240609E+001  0.1599672E+01  0.7818608E-02  0.3353720E+00
         11   -1    0    0    0    0  0.00000000000E+00  0.00000000000E+00  0.39999999674E+01  0.40000000000E+01  0.51100000000E-03 0.  1.
    9000002   -1    0    0    0    0 -0.00000000000E+00 -0.00000000000E+00  0.00000000000E+00  0.93800000000E+00  0.93800000000E+00 0.  1.
         11    1    1    2    0    0 -0.38629413495E-01  0.39090516624E-01  0.44842370675E+00  0.45177912963E+00  0.51100000000E-03 0.  1.
    9000002    1    1    2    0    0  0.31835562248E+00 -0.34191437972E+00  0.14862517474E+00  0.10583899036E+01  0.93800000000E+00 0.  1.
         22    1    1    2    0    0 -0.27972620899E+00  0.30282386310E+00  0.34029510859E+01  0.34278309668E+01  0.00000000000E+00 0.  1.
</event>
<event>
 5    1  0.8240609E+001  0.1599676E+01  0.7818608E-02  0.3353716E+00
         11   -1    0    0    0    0  0.00000000000E+00  0.00000000000E+00  0.39999999674E+01  0.40000000000E+01  0.51100000000E-03 0.  1.
    9000002   -1    0    0    0    0 -0.00000000000E+00 -0.00000000000E+00  0.00000000000E+00  0.93800000000E+00  0.93800000000E+00 0. -1.
         11    1    1    2    0    0  0.72572722621E-01 -0.39633729886E-01  0.68147342837E+00  0.68647208779E+00  0.51100000000E-03 0.  1.
    9000002    1    1    2    0    0 -0.40448845830E+00  0.22432306986E+00  0.14557355972E+00  0.10559201740E+01  0.93800000000E+00 0. -1.
         22    1    1    2    0    0  0.33191573568E+00 -0.18468933997E+00  0.31729529793E+01  0.31956077382E+01  0.00000000000E+00 0.  1.
</event>
<event>
 5    1  0.8240609E+001  0.1598188E+01  0.7818608E-02  0.3355332E+00
         11   -1    0    0    0    0  0.00000000000E+00  0.00000000000E+00  0.39999999674E+01  0.40000000000E+01  0.51100000000E-03 0. -1.
    9000002   -1    0    0    0    0 -0.00000000000E+00 -0.00000000000E+00  0.00000000000E+00  0.93800000000E+00  0.93800000000E+00 0. -1.
         11    1    1    2    0    0 -0.22844095967E+00 -0.47622713741E-01  0.14163197333E+01  0.14354145892E+01  0.51100000000E-03 0. -1.
    9000002    1    1    2    0    0  0.49771412649E+00  0.99711214021E-01  0.17796282946E+00  0.10812846279E+01  0.93800000000E+00 0. -1.
         22    1    1    2    0    0 -0.26927316683E+00 -0.52088500280E-01  0.24057174046E+01  0.24213007828E+01  0.00000000000E+00 0. -1.
</event>
<event>
 5    1  0.8240609E+001  0.1599640E+01  0.7818608E-02  0.3353754E+00
         11   -1    0    0    0    0  0.00000000000E+00  0.00000000000E+00  0.39999999674E+01  0.40000000000E+01  0.51100000000E-03 0. -1.
    9000002   -1    0    0    0    0 -0.00000000000E+00 -0.00000000000E+00  0.00000000000E+00  0.93800000000E+00  0.93800000000E+00 0.  1.
         11    1    1    2    0    0 -0.13155212043E-01 -0.51342938877E-01  0.51894073066E+00  0.52164058512E+00  0.51100000000E-03 0. -1.
    9000002    1    1    2    0    0  0.66601124257E-01  0.36772526261E+00  0.93926746528E-01  0.10140630218E+01  0.93800000000E+00 0.  1.
         22    1    1    2    0    0 -0.53445912214E-01 -0.31638232373E+00  0.33871324902E+01  0.34022963931E+01  0.00000000000E+00 0. -1.
</event>
<event>
 5    1  0.8240609E+001  0.1598538E+01  0.7818608E-02  0.3354952E+00
         11   -1    0    0    0    0  0.00000000000E+00  0.00000000000E+00  0.39999999674E+01  0.40000000000E+01  0.51100000000E-03 0.  1.
    9000002   -1    0    0    0    0 -0.00000000000E+00 -0.00000000000E+00  0.00000000000E+00  0.93800000000E+00  0.93800000000E+00 0.  1.
         11    1    1    2    0    0 -0.12825866257E+00  0.15329019314E-01  0.82934881470E+00  0.83934794986E+00  0.51100000000E-03 0.  1.
    9000002    1    1    2    0    0  0.47304807015E+00 -0.17032126349E+00  0.17415509629E+00  0.10784052147E+01  0.93800000000E+00 0.  1.
         22    1    1    2    0    0 -0.34478940758E+00  0.15499224418E+00  0.29964960564E+01  0.30202468355E+01  0.00000000000E+00 0.  1.
</event>
<event>
 5    1  0.8240609E+001  0.1599677E+01  0.7818608E-02  0.3353714E+00
         11   -1    0    0    0    0  0.00000000000E+00  0.00000000000E+00  0.39999999674E+01  0.40000000000E+01  0.51100000000E-03 0. -1.
    9000002   -1    0    0    0    0 -0.00000000000E+00 -0.00000000000E+00  0.00000000000E+00  0.93800000000E+00  0.93800000000E+00 0.  1.
         11    1    1    2    0    0  0.13906826650E+00 -0.32146424316E-01  0.14515163669E+01  0.14585175350E+01  0.51100000000E-03 0. -1.
    9000002    1    1    2    0    0 -0.37496969253E+00  0.84877665244E-01  0.99504477860E-01  0.10186027830E+01  0.93800000000E+00 0.  1.
         22    1    1    2    0    0  0.23590142603E+00 -0.52731240928E-01  0.24489791226E+01  0.24608796820E+01  0.00000000000E+00 0. -1.
</event>
<event>
 5    1  0.8240609E+001  0.1583588E+01  0.7818608E-02  0.3371371E+00
         11   -1    0    0    0    0  0.00000000000E+00  0.00000000000E+00  0.39999999674E+01  0.40000000000E+01  0.51100000000E-03 0. -1.
    9000002   -1    0    0    0    0 -0.00000000000E+00 -0.00000000000E+00  0.00000000000E+00  0.93800000000E+00  0.93800000000E+00 0.  1.
         11    1    1    2    0    0  0.54975949331E-02 -0.57064580777E-01  0.86387344783E+00  0.86577374927E+00  0.51100000000E-03 0. -1.
    9000002    1    1    2    0    0 -0.55863593096E+00  0.78313743351E-01  0.23595310641E+00  0.11196986265E+01  0.93800000000E+00 0.  1.
         22    1    1    2    0    0  0.55313833603E+00 -0.21249162573E-01  0.29001734131E+01  0.29525276242E+01  0.00000000000E+00 0. -1.
</event>
<event>
 5    1  0.8240609E+001  0.1513798E+01  0.7818608E-02  0.3452590E+00
         11   -1    0    0    0    0  0.00000000000E+00  0.00000000000E+00  0.39999999674E+01  0.40000000000E+01  0.51100000000E-03 0.  1.
    9000002   -1    0    0    0    0 -0.00000000000E+00 -0.00000000000E+00  0.00000000000E+00  0.93800000000E+00  0.93800000000E+00 0.  1.
         11    1    1    2    0    0  0.16857537602E+00 -0.11899061245E+00  0.47525427593E+00  0.51811515242E+00  0.51100000000E-03 0.  1.
    9000002    1    1    2    0    0  0.27823257823E+00  0.21267329359E-01  0.12161143020E+00  0.98615364261E+00  0.93800000000E+00 0.  1.
         22    1    1    2    0    0 -0.44680795425E+00  0.97723283095E-01  0.34031342612E+01  0.34337312050E+01  0.00000000000E+00 0.  1.
</event>
<event>
 5    1  0.8240609E+001  0.1599597E+01  0.7818608E-02  0.3353801E+00
         11   -1    0    0    0    0  0.00000000000E+00  0.00000000000E+00  0.39999999674E+01  0.40000000000E+01  0.51100000000E-03 0. -1.
    9000002   -1    0    0    0    0 -0.00000000000E+00 -0.00000000000E+00  0.00000000000E+00  0.93800000000E+00  0.93800000000E+00 0. -1.
         11    1    1    2    0    0 -0.78136451457E-01  0.12438338864E+00  0.13417425845E+01  0.13497592217E+01  0.51100000000E-03 0. -1.
    9000002    1    1    2    0    0  0.20915294066E+00 -0.38357693635E+00  0.12946268614E+00  0.10428234778E+01  0.93800000000E+00 0. -1.
         22    1    1    2    0    0 -0.13101648920E+00  0.25919354771E+00  0.25287946967E+01  0.25454173005E+01  0.00000000000E+00 0. -1.
</event>
<event>
 5    1  0.8240609E+001  0.1599540E+01  0.7818608E-02  0.3353863E+00
         11   -1    0    0    0    0  0.00000000000E+00  0.00000000000E+00  0.39999999674E+01  0.40000000000E+01  0.51100000000E-03 0. -1.
    9000002   -1    0    0    0    0 -0.00000000000E+00 -0.00000000000E+00  0.00000000000E+00  0.93800000000E+00  0.93800000000E+00 0. -1.
         11    1    1    2    0    0 -0.51992448674E-01 -0.17011635697E-01  0.41740034710E+00  0.42097021433E+00  0.51100000000E-03 0. -1.
    9000002    1    1    2    0    0  0.47457713423E+00  0.76010636648E-01  0.15775352145E+00  0.10657069235E+01  0.93800000000E+00 0. -1.
         22    1    1    2    0    0 -0.42258468556E+00 -0.58999000951E-01  0.34248460988E+01  0.34513228622E+01  0.00000000000E+00 0. -1.
</event>
<event>
 5    1  0.8240609E+001  0.1508148E+01  0.7818608E-02  0.3459516E+00
         11   -1    0    0    0    0  0.00000000000E+00  0.00000000000E+00  0.39999999674E+01  0.40000000000E+01  0.51100000000E-03 0. -1.
    9000002   -1    0    0    0    0 -0.00000000000E+00 -0.00000000000E+00  0.00000000000E+00  0.93800000000E+00  0.93800000000E+00 0. -1.
         11    1    1    2    0    0 -0.34633512100E+00  0.88793509139E-01  0.12927537640E+01  0.13412847792E+01  0.51100000000E-03 0. -1.
    9000002    1    1    2    0    0  0.47912862145E-01  0.93618102117E-02  0.71144035642E-01  0.94196006267E+00  0.93800000000E+00 0. -1.
         22    1    1    2    0    0  0.29842225886E+00 -0.98155319351E-01  0.26361021677E+01  0.26547551582E+01  0.00000000000E+00 0. -1.
</event>
<event>
 5    1  0.8240609E+001  0.1598588E+01  0.7818608E-02  0.3354897E+00
         11   -1    0    0    0    0  0.00000000000E+00  0.00000000000E+00  0.39999999674E+01  0.40000000000E+01  0.51100000000E-03 0.  1.
    9000002   -1    0    0    0    0 -0.00000000000E+00 -0.00000000000E+00  0.00000000000E+00  0.93800000000E+00  0.93800000000E+00 0.  1.
         11    1    1    2    0    0 -0.12621899380E+00 -0.11305787216E+00  0.87640209568E+00  0.89263330169E+00  0.51100000000E-03 0.  1.
    9000002    1    1    2    0    0  0.41542005981E+00  0.55917408322E+00  0.34769532967E+00  0.12190100589E+01  0.93800000000E+00 0.  1.
         22    1    1    2    0    0 -0.28920106602E+00 -0.44611621106E+00  0.27759025420E+01  0.28263566394E+01  0.00000000000E+00 0.  1.
</event>
<event>
 5    1  0.8240609E+001  0.1599632E+01  0.7818608E-02  0.3353763E+00
         11   -1    0    0    0    0  0.00000000000E+00  0.00000000000E+00  0.39999999674E+01  0.40000000000E+01  0.51100000000E-03 0. -1.
    9000002   -1    0    0    0    0 -0.00000000000E+00 -0.00000000000E+00  0.00000000000E+00  0.93800000000E+00  0.93800000000E+00 0. -1.
         11    1    1    2    0    0  0.59667377851E-01 -0.45856487977E-01  0.54282383916E+00  0.54801550612E+00  0.51100000000E-03 0. -1.
    9000002    1    1    2    0    0 -0.44198001874E+00  0.34925308212E+00  0.21978319380E+00  0.11160074841E+01  0.93800000000E+00 0. -1.
         22    1    1    2    0    0  0.38231264089E+00 -0.30339659415E+00  0.32373929344E+01  0.32739770098E+01  0.00000000000E+00 0. -1.
</event>
<event>
 5    1  0.8240609E+001  0.1599676E+01  0.7818608E-02  0.3353715E+00
         11   -1    0    0    0    0  0.00000000000E+00  0.00000000000E+00  0.39999999674E+01  0.40000000000E+01  0.51100000000E-03 0. -1.
    9000002   -1    0    0    0    0 -0.00000000000E+00 -0.00000000000E+00  0.00000000000E+00  0.93800000000E+00  0.93800000000E+00 0.  1.
         11    1    1    2    0    0 -0.73523969177E-01  0.20067836552E-01  0.80281277592E+00  0.80642241189E+00  0.51100000000E-03 0. -1.
    9000002    1    1    2    0    0  0.35323291980E+00 -0.96334678976E-01  0.90049730882E-01  0.10109435296E+01  0.93800000000E+00 0.  1.
         22    1    1    2    0    0 -0.27970895062E+00  0.76266842424E-01  0.31071374606E+01  0.31206340585E+01  0.00000000000E+00 0. -1.
</event>
<event>
 5    1  0.8240609E+001  0.1599600E+01  0.7818608E-02  0.3353798E+00
         11   -1    0    0    0    0  0.00000000000E+00  0.00000000000E+00  0.39999999674E+01  0.40000000000E+01  0.51100000000E-03 0.  1.
    9000002   -1    0    0    0    0 -0.00000000000E+00 -0.00000000000E+00  0.00000000000E+00  0.93800000000E+00  0.93800000000E+00 0.  1.
         11    1    1    2    0    0  0.13367022043E-01 -0.52625005874E-01  0.61690890659E+00  0.61929389523E+00  0.51100000000E-03 0.  1.
    9000002    1    1    2    0    0 -0.12244853509E+00  0.36359312970E+00  0.99145384715E-01  0.10182668683E+01  0.93800000000E+00 0.  1.
         22    1    1    2    0    0  0.10908151305E+00 -0.31096812382E+00  0.32839456761E+01  0.33004392365E+01  0.00000000000E+00 0.  1.
</event>
<event>
 5    1  0.8240609E+001  0.1525809E+01  0.7818608E-02  0.3438046E+00
         11   -1    0    0    0    0  0.00000000000E+00  0.00000000000E+00  0.39999999674E+01  0.40000000000E+01  0.51100000000E-03 0. -1.
    9000002   -1    0    0    0    0 -0.00000000000E+00 -0.00000000000E+00  0.00000000000E+00  0.93800000000E+00  0.93800000000E+00 0. -1.
         11    1    1    2    0    0 -0.19712193438E+00 -0.76847447307E-01  0.53805058208E+00  0.57815333361E+00  0.51100000000E-03 0. -1.
    9000002    1    1    2    0    0 -0.10476546542E+00 -0.42642478009E-01  0.64581477509E-01  0.94699997408E+00  0.93800000000E+00 0. -1.
         22    1    1    2    0    0  0.30188739980E+00  0.11948992532E+00  0.33973679078E+01  0.34128466923E+01  0.00000000000E+00 0. -1.
</event>
<event>
 5    1  0.8240609E+001  0.1598781E+01  0.7818608E-02  0.3354688E+00
         11   -1    0    0    0    0  0.00000000000E+00  0.00000000000E+00  0.39999999674E+01  0.40000000000E+01  0.51100000000E-03 0.  1.
    9000002   -1    0    0    0    0 -0.00000000000E+00 -0.00000000000E+00  0.00000000000E+00  0.93800000000E+00  0.93800000000E+00 0. -1.
         11    1    1    2    0    0 -0.23117887955E-02 -0.33084503540E+00  0.12060965013E+01  0.12506529548E+01  0.51100000000E-03 0.  1.
    9000002    1    1    2    0    0  0.27563543482E-01  0.98119825424E+00  0.76886969178E+00  0.15602930385E+01  0.93800000000E+00 0. -1.
         22    1    1    2    0    0 -0.25251754686E-01 -0.65035321884E+00  0.20250337743E+01  0.21270540067E+01  0.00000000000E+00 0.  1.
</event>
<event>
 5    1  0.8240609E+001  0.1595686E+01  0.7818608E-02  0.3358059E+00
         11   -1    0    0    0    0  0.00000000000E+00  0.00000000000E+00  0.39999999674E+01  0.40000000000E+01  0.51100000000E-03 0. -1.
    9000002   -1    0    0    0    0 -0.00000000000E+00 -0.00000000000E+00  0.00000000000E+00  0.93800000000E+00  0.93800000000E+00 0. -1.
         11    1    1    2    0    0  0.12024885871E+00 -0.76993609690E-01  0.71223592203E+00  0.72640764981E+00  0.51100000000E-03 0. -1.
    9000002    1    1    2    0    0 -0.34015655868E+00  0.32548287936E+00  0.15452714104E+00  0.10608337412E+01  0.93800000000E+00 0. -1.
         22    1    1    2    0    0  0.21990769998E+00 -0.24848926967E+00  0.31332369043E+01  0.31507586090E+01  0.00000000000E+00 0. -1.
</event>
<event>
 5    1  0.8240609E+001  0.1599676E+01  0.7818608E-02  0.3353715E+00
         11   -1    0    0    0    0  0.00000000000E+00  0.00000000000E+00  0.39999999674E+01  0.40000000000E+01  0.51100000000E-03 0. -1.
    9000002   -1    0    0    0    0 -0.00000000000E+00 -0.00000000000E+00  0.00000000000E+00  0.93800000000E+00  0.93800000000E+00 0. -1.
         11    1    1    2    0    0  0.14408660874E-01  0.10107983851E+00  0.82309544548E+00  0.82940407326E+00  0.51100000000E-03 0. -1.
    9000002    1    1    2    0    0 -0.64327389866E-01 -0.47077923205E+00  0.15393002984E+00  0.10626897725E+01  0.93800000000E+00 0. -1.
         22    1    1    2    0    0  0.49918728992E-01  0.36969939354E+00  0.30229744920E+01  0.30459061543E+01  0.00000000000E+00 0. -1.
</event>
<event>
 5    1  0.8240609E+001  0.1599555E+01  0.7818608E-02  0.3353847E+00
         11   -1    0    0    0    0  0.00000000000E+00  0.00000000000E+00  0.39999999674E+01  0.40000000000E+01  0.51100000000E-03 0.  1.
    9000002   -1    0    0    0    0 -0.00000000000E+00 -0.00000000000E+00  0.00000000000E+00  0.93800000000E+00  0.93800000000E+00 0.  1.
         11    1    1    2    0    0  0.18597996249E-01  0.19393722422E-01  0.33056107528E+00  0.33165175643E+00  0.51100000000E-03 0.  1.
    9000002    1    1    2    0    0 -0.27734488248E+00 -0.29329702478E+00  0.11006236466E+00  0.10270837613E+01  0.93800000000E+00 0.  1.
         22    1    1    2    0    0  0.25874688623E+00  0.27390330236E+00  0.35593765274E+01  0.35792644823E+01  0.00000000000E+00 0.  1.
</event>
<event>
 5    1  0.8240609E+001  0.1599286E+01  0.7818608E-02  0.3354139E+00
         11   -1    0    0    0    0  0.00000000000E+00  0.00000000000E+00  0.39999999674E+01  0.40000000000E+01  0.51100000000E-03 0. -1.
    9000002   -1    0    0    0    0 -0.00000000000E+00 -0.00000000000E+00  0.00000000000E+00  0.93800000000E+00  0.93800000000E+00 0. -1.
         11    1    1    2    0    0 -0.33067151586E-01  0.21891554658E-01  0.25090660231E+00  0.25402177246E+00  0.51100000000E-03 0. -1.
    9000002    1    1    2    0    0  0.35197658567E+00 -0.24800094482E+00  0.12589733936E+00  0.10397529156E+01  0.93800000000E+00 0. -1.
         22    1    1    2    0    0 -0.31890943408E+00  0.22610939017E+00  0.36231960257E+01  0.36442253119E+01  0.00000000000E+00 0. -1.
</event>
<event>
 5    1  0.8240609E+001  0.1599675E+01  0.7818608E-02  0.3353716E+00
         11   -1    0    0    0    0  0.00000000000E+00  0.00000000000E+00  0.39999999674E+01  0.40000000000E+01  0.51100000000E-03 0. -1.
    9000002   -1    0    0    0    0 -0.00000000000E+00 -0.00000000000E+00  0.00000000000E+00  0.93800000000E+00  0.93800000000E+00 0. -1.
         11    1    1    2    0    0 -0.67328081802E-01 -0.15397951337E-01  0.62394139242E+00  0.62775257053E+00  0.51100000000E-03 0. -1.
    9000002    1    1    2    0    0  0.42272546590E+00  0.90466039065E-01  0.12660490525E+00  0.10405545280E+01  0.93800000000E+00 0. -1.
         22    1    1    2    0    0 -0.35539738409E+00 -0.75068087727E-01  0.32494536697E+01  0.32696929015E+01  0.00000000000E+00 0. -1.
</event>
<event>
 5    1  0.8240609E+001  0.1523215E+01  0.7818608E-02  0.3441166E+00
         11   -1    0    0    0    0  0.00000000000E+00  0.00000000000E+00  0.39999999674E+01  0.40000000000E+01  0.51100000000E-03 0.  1.
    9000002   -1    0    0    0    0 -0.00000000000E+00 -0.00000000000E+00  0.00000000000E+00  0.93800000000E+00  0.93800000000E+00 0. -1.
         11    1    1    2    0    0  0.32388485636E+00 -0.97965508606E-01  0.10524380823E+01  0.11054975438E+01  0.51100000000E-03 0.  1.
    9000002    1    1    2    0    0 -0.97724556172E-01  0.28974680768E+00  0.12507317008E+00  0.99448006482E+00  0.93800000000E+00 0. -1.
         22    1    1    2    0    0 -0.22616030019E+00 -0.19178129908E+00  0.28224887150E+01  0.28380223914E+01  0.00000000000E+00 0.  1.
</event>
<event>
 5    1  0.8240609E+001  0.1599670E+01  0.7818608E-02  0.3353722E+00
         11   -1    0    0    0    0  0.00000000000E+00  0.00000000000E+00  0.39999999674E+01  0.40000000000E+01  0.51100000000E-03 0. -1.
    9000002   -1    0    0    0    0 -0.00000000000E+00 -0.00000000000E+00  0.00000000000E+00  0.93800000000E+00  0.93800000000E+00 0. -1.
         11    1    1    2    0    0  0.13548339798E+00  0.12452061025E-01  0.12873195331E+01  0.12944893381E+01  0.51100000000E-03 0. -1.
    9000002    1    1    2    0    0 -0.40519949781E+00 -0.29451496774E-01  0.11142859418E+00  0.10282579225E+01  0.93800000000E+00 0. -1.
         22    1    1    2    0    0  0.26971609983E+00  0.16999435750E-01  0.26012518400E+01  0.26152527393E+01  0.00000000000E+00 0. -1.
</event>
<event>
 5    1  0.8240609E+001  0.1570432E+01  0.7818608E-02  0.3386094E+00
         11   -1    0    0    0    0  0.00000000000E+00  0.00000000000E+00  0.39999999674E+01  0.40000000000E+01  0.51100000000E-03 0. -1.
    9000002   -1    0    0    0    0 -0.00000000000E+00 -0.00000000000E+00  0.00000000000E+00  0.93800000000E+00  0.93800000000E+00 0. -1.
         11    1    1    2    0    0 -0.21788506661E+00  0.13628084750E+00  0.95958564303E+00  0.99340386504E+00  0.51100000000E-03 0. -1.
    9000002    1    1    2    0    0  0.43500994762E+00  0.24132744167E-01  0.15407173695E+00  0.10456568003E+01  0.93800000000E+00 0. -1.
         22    1    1    2    0    0 -0.21712488101E+00 -0.16041359167E+00  0.28863425874E+01  0.28989393347E+01  0.00000000000E+00 0. -1.
</event>
<event>
 5    1  0.8240609E+001  0.1599673E+01  0.7818608E-02  0.3353719E+00
         11   -1    0    0    0    0  0.00000000000E+00  0.00000000000E+00  0.39999999674E+01  0.40000000000E+01  0.51100000000E-03 0.  1.
    9000002   -1    0    0    0    0 -0.00000000000E+00 -0.00000000000E+00  0.00000000000E+00  0.93800000000E+00  0.93800000000E+00 0. -1.
         11    1    1    2    0    0  0.96415221227E-02  0.11356093419E+00  0.98456803806E+00  0.99114253637E+00  0.51100000000E-03 0.  1.
    9000002    1    1    2    0    0 -0.35467738370E-01 -0.43815283300E+00  0.13104773446E+00  0.10441519881E+01  0.93800000000E+00 0. -1.
         22    1    1    2    0    0  0.25826216247E-01  0.32459189881E+00  0.28843841948E+01  0.29027054755E+01  0.00000000000E+00 0.  1.
</event>
<event>
 5    1  0.8240609E+001  0.1586297E+01  0.7818608E-02  0.3368372E+00
         11   -1    0    0    0    0  0.00000000000E+00  0.00000000000E+00  0.39999999674E+01  0.40000000000E+01  0.51100000000E-03 0.  1.
    9000002   -1    0    0    0    0 -0.00000000000E+00 -0.00000000000E+00  0.00000000000E+00  0.93800000000E+00  0.93800000000E+00 0. -1.
         11    1    1    2    0    0 -0.71838249239E-01 -0.22064525966E-01  0.38776772750E+00  0.39498309960E+00  0.51100000000E-03 0.  1.
    9000002    1    1    2    0    0  0.22589395461E+00 -0.45716020655E+00  0.19056357091E+00  0.10845192519E+01  0.93800000000E+00 0. -1.
         22    1    1    2    0    0 -0.15405570537E+00  0.47922473252E+00  0.34216686690E+01  0.34584976485E+01  0.00000000000E+00 0.  1.
</event>
<event>
 5    1  0.8240609E+001  0.1568839E+01  0.7818608E-02  0.3387894E+00
         11   -1    0    0    0    0  0.00000000000E+00  0.00000000000E+00  0.39999999674E+01  0.40000000000E+01  0.51100000000E-03 0. -1.
    9000002   -1    0    0    0    0 -0.00000000000E+00 -0.00000000000E+00  0.00000000000E+00  0.93800000000E+00  0.93800000000E+00 0. -1.
         11    1    1    2    0    0  0.21979512773E-01  0.36135244259E+00  0.83031448403E+00  0.90580411252E+00  0.51100000000E-03 0. -1.
    9000002    1    1    2    0    0  0.48185867383E+00 -0.91803398564E+00  0.95364059447E+00  0.16924091006E+01  0.93800000000E+00 0. -1.
         22    1    1    2    0    0 -0.50383818660E+00  0.55668154305E+00  0.22160448889E+01  0.23397867869E+01  0.00000000000E+00 0. -1.
</event>
<event>
 5    1  0.8240609E+001  0.1589165E+01  0.7818608E-02  0.3365207E+00
         11   -1    0    0    0    0  0.00000000000E+00  0.00000000000E+00  0.39999999674E+01  0.40000000000E+01  0.51100000000E-03 0.  1.
    9000002   -1    0    0    0    0 -0.00000000000E+00 -0.00000000000E+00  0.00000000000E+00  0.93800000000E+00  0.93800000000E+00 0. -1.
         11    1    1    2    0    0  0.18637501534E+00 -0.51658830942E-01  0.10100728100E+01  0.10284219094E+01  0.51100000000E-03 0.  1.
    9000002    1    1    2    0    0 -0.30819526268E+00  0.29428939759E+00  0.13188133467E+00  0.10386660945E+01  0.93800000000E+00 0. -1.
         22    1    1    2    0    0  0.12182024734E+00 -0.24263056665E+00  0.28580458227E+01  0.28709119961E+01  0.00000000000E+00 0.  1.
</event>
<event>
 5    1  0.8240609E+001  0.1599668E+01  0.7818608E-02  0.3353723E+00
         11   -1    0    0    0    0  0.00000000000E+00  0.00000000000E+00  0.39999999674E+01  0.40000000000E+01  0.51100000000E-03 0. -1.
    9000002   -1    0    0    0    0 -0.00000000000E+00 -0.00000000000E+00  0.00000000000E+00  0.93800000000E+00  0.93800000000E+00 0. -1.
         11    1    1    2    0    0  0.74908240391E-01  0.62888363987E-01  0.88817251098E+00  0.89354175123E+00  0.51100000000E-03 0. -1.
    9000002    1    1    2    0    0 -0.33937834799E+00 -0.27441474304E+00  0.12912532221E+00  0.10425921845E+01  0.93800000000E+00 0. -1.
         22    1    1    2    0    0  0.26447010760E+00  0.21152637905E+00  0.29827021342E+01  0.30018660643E+01  0.00000000000E+00 0. -1.
</event>
<event>
 5    1  0.8240609E+001  0.1599137E+01  0.7818608E-02  0.3354301E+00
         11   -1    0    0    0    0  0.00000000000E+00  0.00000000000E+00  0.39999999674E+01  0.40000000000E+01  0.51100000000E-03 0. -1.
    9000002   -1    0    0    0    0 -0.00000000000E+00 -0.00000000000E+00  0.00000000000E+00  0.93800000000E+00  0.93800000000E+00 0. -1.
         11    1    1    2    0    0 -0.57277535256E-01  0.46743673650E-01  0.52174322237E+00  0.52695534752E+00  0.51100000000E-03 0. -1.
    9000002    1    1    2    0    0  0.33318304047E+00 -0.23986015115E+00  0.11429541363E+00  0.10302675731E+01  0.93800000000E+00 0. -1.
         22    1    1    2    0    0 -0.27590550521E+00  0.19311647750E+00  0.33639613314E+01  0.33807770794E+01  0.00000000000E+00 0. -1.
</event>
<event>
 5    1  0.8240609E+001  0.1599676E+01  0.7818608E-02  0.3353716E+00
         11   -1    0    0    0    0  0.00000000000E+00  0.00000000000E+00  0.39999999674E+01  0.40000000000E+01  0.51100000000E-03 0.  1.
    9000002   -1    0    0    0    0 -0.00000000000E+00 -0.00000000000E+00  0.00000000000E+00  0.93800000000E+00  0.93800000000E+00 0.  1.
         11    1    1    2    0    0 -0.82730672162E-01 -0.62697179432E-01  0.10670319877E+01  0.10720694121E+01  0.51100000000E-03 0.  1.
    9000002    1    1    2    0    0  0.29873177439E+00  0.23164030913E+00  0.96125607554E-01  0.10158651674E+01  0.93800000000E+00 0.  1.
         22    1    1    2    0    0 -0.21600110223E+00 -0.16894312970E+00  0.28368423721E+01  0.28500654205E+01  0.00000000000E+00 0.  1.
</event>
<event>
 5    1  0.8240609E+001  0.1599677E+01  0.7818608E-02  0.3353714E+00
         11   -1    0    0    0    0  0.00000000000E+00  0.00000000000E+00  0.39999999674E+01  0.40000000000E+01  0.51100000000E-03 0.  1.
    9000002   -1    0    0    0    0 -0.00000000000E+00 -0.00000000000E+00  0.00000000000E+00  0.93800000000E+00  0.93800000000E+00 0. -1.
         11    1    1    2    0    0  0.11788424138E+00  0.65757909575E-01  0.12297735601E+01  0.12371596773E+01  0.51100000000E-03 0.  1.
    9000002    1    1    2    0    0 -0.37286333465E+00 -0.20592387440E+00  0.12280334159E+00  0.10374759607E+01  0.93800000000E+00 0. -1.
         22    1    1    2    0    0  0.25497909327E+00  0.14016596482E+00  0.26474230657E+01  0.26633643620E+01  0.00000000000E+00 0.  1.
</event>
<event>
 5    1  0.8240609E+001  0.1465446E+01  0.7818608E-02  0.3513738E+00
         11   -1    0    0    0    0  0.00000000000E+00  0.00000000000E+00  0.39999999674E+01  0.40000000000E+01  0.51100000000E-03 0.  1.
    9000002   -1    0    0    0    0 -0.00000000000E+00 -0.00000000000E+00  0.00000000000E+00  0.93800000000E+00  0.93800000000E+00 0. -1.
         11    1    1    2    0    0  0.18023806854E+00 -0.17307990383E+00  0.24975588180E+00  0.35329969725E+00  0.51100000000E-03 0.  1.
    9000002    1    1    2    0    0  0.11651105462E+00  0.38124545880E+00  0.22869158518E+00  0.10445414146E+01  0.93800000000E+00 0. -1.
         22    1    1    2    0    0 -0.29674912316E+00 -0.20816555497E+00  0.35215525004E+01  0.35401588881E+01  0.00000000000E+00 0.  1.
</event>
<event>
 5    1  0.8240609E+001  0.1599629E+01  0.7818608E-02  0.3353766E+00
         11   -1    0    0    0    0  0.00000000000E+00  0.00000000000E+00  0.39999999674E+01  0.40000000000E+01  0.51100000000E-03 0. -1.
    9000002   -1    0    0    0    0 -0.00000000000E+00 -0.00000000000E+00  0.00000000000E+00  0.93800000000E+00  0.93800000000E+00 0.  1.
         11    1    1    2    0    0  0.15359095753E+00 -0.61231600897E-01  0.13589573428E+01  0.13689794783E+01  0.51100000000E-03 0. -1.
    9000002    1    1    2    0    0 -0.45595282740E+00  0.17700461424E+00  0.16350979365E+00  0.10704219107E+01  0.93800000000E+00 0.  1.
         22    1    1    2    0    0  0.30236186987E+00 -0.11577301335E+00  0.24775328309E+01  0.24985986110E+01  0.00000000000E+00 0.  1.
</event>
<event>
 5    1  0.8240609E+001  0.1599675E+01  0.7818608E-02  0.3353716E+00
         11   -1    0    0    0    0  0.00000000000E+00  0.00000000000E+00  0.39999999674E+01  0.40000000000E+01  0.51100000000E-03 0. -1.
    9000002   -1    0    0    0    0 -0.00000000000E+00 -0.00000000000E+00  0.00000000000E+00  0.93800000000E+00  0.93800000000E+00 0.  1.
         11    1    1    2    0    0  0.37063536375E-01 -0.17086307801E-01  0.28526146473E+00  0.28816663933E+00  0.51100000000E-03 0. -1.
    9000002    1    1    2    0    0 -0.49184159537E+00  0.21684526624E+00  0.19910107910E+00  0.10992794295E+01  0.93800000000E+00 0.  1.
         22    1    1    2    0    0  0.45477805900E+00 -0.19975895844E+00  0.35156374235E+01  0.35505539312E+01  0.00000000000E+00 0. -1.
</event>
<event>
 5    1  0.8240609E+001  0.1595771E+01  0.7818608E-02  0.3357967E+00
         11   -1    0    0    0    0  0.00000000000E+00  0.00000000000E+00  0.39999999674E+01  0.40000000000E+01  0.51100000000E-03 0.  1.
    9000002   -1    0    0    0    0 -0.00000000000E+00 -0.00000000000E+00  0.00000000000E+00  0.93800000000E+00  0.93800000000E+00 0.  1.
         11    1    1    2    0    0  0.13419066873E-01 -0.82496699193E-01  0.11017403549E+01  0.11049062618E+01  0.51100000000E-03 0.  1.
    9000002    1    1    2    0    0  0.11700084700E+00  0.46062284323E+00  0.15744629375E+00  0.10632478250E+01  0.93800000000E+00 0.  1.
         22    1    1    2    0    0 -0.13041991387E+00 -0.37812614404E+00  0.27408133187E+01  0.27698459132E+01  0.00000000000E+00 0.  1.
</event>
<event>
 5    1  0.8240609E+001  0.1595992E+01  0.7818608E-02  0.3357726E+00
         11   -1    0    0    0    0  0.00000000000E+00  0.00000000000E+00  0.39999999674E+01  0.40000000000E+01  0.51100000000E-03 0. -1.
    9000002   -1    0    0    0    0 -0.00000000000E+00 -0.00000000000E+00  0.00000000000E+00  0.93800000000E+00  0.93800000000E+00 0. -1.
         11    1    1    2    0    0 -0.13076915423E+00 -0.19012245600E-01  0.14440624850E+01  0.14500961206E+01  0.51100000000E-03 0. -1.
    9000002    1    1    2    0    0  0.34575910617E+00 -0.13915304354E+00  0.96401049503E-01  0.10139280504E+01  0.93800000000E+00 0. -1.
         22    1    1    2    0    0 -0.21498995194E+00  0.15816528914E+00  0.24595364328E+01  0.24739758290E+01  0.00000000000E+00 0. -1.
</event>
<event>
 5    1  0.8240609E+001  0.1505346E+01  0.7818608E-02  0.3462973E+00
         11   -1    0    0    0    0  0.00000000000E+00  0.00000000000E+00  0.39999999674E+01  0.40000000000E+01  0.51100000000E-03 0. -1.
    9000002   -1    0    0    0    0 -0.00000000000E+00 -0.00000000000E+00  0.00000000000E+00  0.93800000000E+00  0.93800000000E+00 0. -1.
         11    1    1    2    0    0  0.10549235828E+00  0.35782606832E+00  0.14161040231E+01  0.14644176311E+01  0.51100000000E-03 0. -1.
    9000002    1    1    2    0    0  0.24956818134E-01 -0.58396927162E-01  0.74580997628E-01  0.94310093261E+00  0.93800000000E+00 0. -1.
         22    1    1    2    0    0 -0.13044917641E+00 -0.29942914116E+00  0.25093149466E+01  0.25304814363E+01  0.00000000000E+00 0. -1.
</event>
<event>
 5    1  0.8240609E+001  0.1599677E+01  0.7818608E-02  0.3353714E+00
         11   -1    0    0    0    0  0.00000000000E+00  0.00000000000E+00  0.39999999674E+01  0.40000000000E+01  0.51100000000E-03 0.  1.
    9000002   -1    0    0    0    0 -0.00000000000E+00 -0.00000000000E+00  0.00000000000E+00  0.93800000000E+00  0.93800000000E+00 0. -1.
         11    1    1    2    0    0 -0.13198866018E+00 -0.98839067897E-01  0.12791473932E+01  0.12897319421E+01  0.51100000000E-03 0.  1.
    9000002    1    1    2    0    0  0.39704857045E+00  0.29467851112E+00  0.16720797397E+00  0.10734456198E+01  0.93800000000E+00 0. -1.
         22    1    1    2    0    0 -0.26505991028E+00 -0.19583944322E+00  0.25536446002E+01  0.25748224381E+01  0.00000000000E+00 0.  1.
</event>
<event>
 5    1  0.8240609E+001  0.1599405E+01  0.7818608E-02  0.3354010E+00
         11   -1    0    0    0    0  0.00000000000E+00  0.00000000000E+00  0.39999999674E+01  0.40000000000E+01  0.51100000000E-03 0. -1.
    9000002   -1    0    0    0    0 -0.00000000000E+00 -0.00000000000E+00  0.00000000000E+00  0.93800000000E+00  0.93800000000E+00 0. -1.
         11    1    1    2    0    0 -0.14500917609E+00  0.77568131719E-02  0.10277783730E+01  0.10379867410E+01  0.51100000000E-03 0. -1.
    9000002    1    1    2    0    0  0.53499805969E+00  0.36546828952E-01  0.19836125578E+00  0.10985216349E+01  0.93800000000E+00 0. -1.
         22    1    1    2    0    0 -0.38998888360E+00 -0.44303642124E-01  0.27738603385E+01  0.28014916241E+01  0.00000000000E+00 0. -1.
</event>
<event>
 5    1  0.8240609E+001  0.1489451E+01  0.7818608E-02  0.3482844E+00
         11   -1    0    0    0    0  0.00000000000E+00  0.00000000000E+00  0.39999999674E+01  0.40000000000E+01  0.51100000000E-03 0.  1.
    9000002   -1    0    0    0    0 -0.00000000000E+00 -0.00000000000E+00  0.00000000000E+00  0.93800000000E+00  0.93800000000E+00 0. -1.
         11    1    1    2    0    0  0.29814902079E+00 -0.10382027893E+00  0.82700034763E+00  0.88521258747E+00  0.51100000000E-03 0.  1.
    9000002    1    1    2    0    0  0.13398421161E+00  0.26319734187E+00  0.14984393232E+00  0.99474711046E+00  0.93800000000E+00 0. -1.
         22    1    1    2    0    0 -0.43213323239E+00 -0.15937706294E+00  0.30231556874E+01  0.30580403021E+01  0.00000000000E+00 0.  1.
</event>
<event>
 5    1  0.8240609E+001  0.1599675E+01  0.7818608E-02  0.3353716E+00
         11   -1    0    0    0    0  0.00000000000E+00  0.00000000000E+00  0.39999999674E+01  0.40000000000E+01  0.51100000000E-03 0. -1.
    9000002   -1    0    0    0    0 -0.00000000000E+00 -0.00000000000E+00  0.00000000000E+00  0.93800000000E+00  0.93800000000E+00 0.  1.
         11    1    1    2    0    0 -0.86850957282E-01 -0.13546163746E+00  0.13851444107E+01  0.13944598393E+01  0.51100000000E-03 0. -1.
    9000002    1    1    2    0    0  0.24367173870E+00  0.38185532673E+00  0.13942462639E+00  0.10509389294E+01  0.93800000000E+00 0.  1.
         22    1    1    2    0    0 -0.15682078141E+00 -0.24639368927E+00  0.24754309303E+01  0.24926012313E+01  0.00000000000E+00 0. -1.
</event>
<event>
 5    1  0.8240609E+001  0.1522471E+01  0.7818608E-02  0.3442063E+00
         11   -1    0    0    0    0  0.00000000000E+00  0.00000000000E+00  0.39999999674E+01  0.40000000000E+01  0.51100000000E-03 0. -1.
    9000002   -1    0    0    0    0 -0.00000000000E+00 -0.00000000000E+00  0.00000000000E+00  0.93800000000E+00  0.93800000000E+00 0. -1.
         11    1    1    2    0    0  0.81193683768E-01  0.33008960451E+00  0.42059234461E+00  0.54078622649E+00  0.51100000000E-03 0. -1.
    9000002    1    1    2    0    0  0.37330998806E+00  0.24143102189E+00  0.36409528734E+00  0.11000266650E+01  0.93800000000E+00 0. -1.
         22    1    1    2    0    0 -0.45450367183E+00 -0.57152062640E+00  0.32153123354E+01  0.32971871085E+01  0.00000000000E+00 0. -1.
</event>
<event>
 5    1  0.8240609E+001  0.1516622E+01  0.7818608E-02  0.3449147E+00
         11   -1    0    0    0    0  0.00000000000E+00  0.00000000000E+00  0.39999999674E+01  0.40000000000E+01  0.51100000000E-03 0. -1.
    9000002   -1    0    0    0    0 -0.00000000000E+00 -0.00000000000E+00  0.00000000000E+00  0.93800000000E+00  0.93800000000E+00 0.  1.
         11    1    1    2    0    0  0.34278257721E+00  0.47336495478E-01  0.12566448234E+01  0.13034174743E+01  0.51100000000E-03 0. -1.
    9000002    1    1    2    0    0 -0.60372172095E-01 -0.66312480588E-01  0.68467800136E-01  0.94476133701E+00  0.93800000000E+00 0.  1.
         22    1    1    2    0    0 -0.28241040512E+00  0.18975985111E-01  0.26748873438E+01  0.26898211887E+01  0.00000000000E+00 0. -1.
</event>
<event>
 5    1  0.8240609E+001  0.1579373E+01  0.7818608E-02  0.3376060E+00
         11   -1    0    0    0    0  0.00000000000E+00  0.00000000000E+00  0.39999999674E+01  0.40000000000E+01  0.51100000000E-03 0.  1.
    9000002   -1    0    0    0    0 -0.00000000000E+00 -0.00000000000E+00  0.00000000000E+00  0.93800000000E+00  0.93800000000E+00 0.  1.
         11    1    1    2    0    0  0.70714945805E-01  0.21748717125E-01  0.28293229238E+00  0.29244581284E+00  0.51100000000E-03 0.  1.
    9000002    1    1    2    0    0  0.21453025009E+00 -0.64313149684E+00  0.34907043667E+00  0.12088571132E+01  0.93800000000E+00 0.  1.
         22    1    1    2    0    0 -0.28524519590E+00  0.62138277972E+00  0.33679972383E+01  0.34366970739E+01  0.00000000000E+00 0.  1.
</event>
<event>
 5    1  0.8240609E+001  0.1599670E+01  0.7818608E-02  0.3353722E+00
         11   -1    0    0    0    0  0.00000000000E+00  0.00000000000E+00  0.39999999674E+01  0.40000000000E+01  0.51100000000E-03 0.  1.
    9000002   -1    0    0    0    0 -0.00000000000E+00 -0.00000000000E+00  0.00000000000E+00  0.93800000000E+00  0.93800000000E+00 0. -1.
         11    1    1    2    0    0  0.41294040242E-01  0.25853066339E-01  0.51270072497E+00  0.51501055650E+00  0.51100000000E-03 0.  1.
    9000002    1    1    2    0    0 -0.30312503106E+00 -0.20896458110E+00  0.91082080047E-01  0.10117761244E+01  0.93800000000E+00 0. -1.
         22    1    1    2    0    0  0.26183099082E+00  0.18311151476E+00  0.33962171623E+01  0.34112133191E+01  0.00000000000E+00 0.  1.
</event>
<event>
 5    1  0.8240609E+001  0.1591596E+01  0.7818608E-02  0.3362535E+00
         11   -1    0    0    0    0  0.00000000000E+00  0.00000000000E+00  0.39999999674E+01  0.40000000000E+01  0.51100000000E-03 0. -1.
    9000002   -1    0    0    0    0 -0.00000000000E+00 -0.00000000000E+00  0.00000000000E+00  0.93800000000E+00  0.93800000000E+00 0.  1.
         11    1    1    2    0    0 -0.28523677345E-02  0.33438525425E-02 -0.15536195312E-02  0.46895848608E-02  0.51100000000E-03 0. -1.
    9000002    1    1    2    0    0  0.35953074342E+00 -0.20881942973E-01  0.93639626315E-01  0.10091138641E+01  0.93800000000E+00 0.  1.
         22    1    1    2    0    0 -0.35667837568E+00  0.17538090431E-01  0.39079139606E+01  0.39241965511E+01  0.00000000000E+00 0. -1.
</event>
<event>
 5    1  0.8240609E+001  0.1479542E+01  0.7818608E-02  0.3495465E+00
         11   -1    0    0    0    0  0.00000000000E+00  0.00000000000E+00  0.39999999674E+01  0.40000000000E+01  0.51100000000E-03 0. -1.
    9000002   -1    0    0    0    0 -0.00000000000E+00 -0.00000000000E+00  0.00000000000E+00  0.93800000000E+00  0.93800000000E+00 0. -1.
         11    1    1    2    0    0  0.14774731597E+00  0.41479698415E-01  0.10047456468E+00  0.18342637222E+00  0.51100000000E-03 0. -1.
    9000002    1    1    2    0    0  0.14252461688E+00 -0.25155747278E+00  0.15591584054E+00  0.99385520970E+00  0.93800000000E+00 0. -1.
         22    1    1    2    0    0 -0.29027193284E+00  0.21007777436E+00  0.37436095621E+01  0.37607184181E+01  0.00000000000E+00 0. -1.
</event>
<event>
 5    1  0.8240609E+001  0.1595091E+01  0.7818608E-02  0.3358708E+00
         11   -1    0    0    0    0  0.00000000000E+00  0.00000000000E+00  0.39999999674E+01  0.40000000000E+01  0.51100000000E-03 0.  1.
    9000002   -1    0    0    0    0 -0.00000000000E+00 -0.00000000000E+00  0.00000000000E+00  0.93800000000E+00  0.93800000000E+00 0.  1.
         11    1    1    2    0    0 -0.12421108978E+00 -0.39860880715E-02  0.76459619506E+00  0.77463016101E+00  0.51100000000E-03 0.  1.
    9000002    1    1    2    0    0  0.42515514031E+00  0.28097709494E+00  0.18225111262E+00  0.10829425143E+01  0.93800000000E+00 0.  1.
         22    1    1    2    0    0 -0.30094405053E+00 -0.27699100687E+00  0.30531526597E+01  0.30804273247E+01  0.00000000000E+00 0.  1.
</event>
<event>
 5    1  0.8240609E+001  0.1599675E+01  0.7818608E-02  0.3353717E+00
         11   -1    0    0    0    0  0.00000000000E+00  0.00000000000E+00  0.39999999674E+01  0.40000000000E+01  0.51100000000E-03 0.  1.
    9000002   -1    0    0    0    0 -0.00000000000E+00 -0.00000000000E+00  0.00000000000E+00  0.93800000000E+00  0.93800000000E+00 0.  1.
         11    1    1    2    0    0  0.40375502432E-01 -0.39663131597E-01  0.57990246927E+00  0.58265811604E+00  0.51100000000E-03 0.  1.
    9000002    1    1    2    0    0 -0.27255612601E+00  0.27502342210E+00  0.10096618409E+00  0.10197857103E+01  0.93800000000E+00 0.  1.
         22    1    1    2    0    0  0.23218062358E+00 -0.23536029050E+00  0.33191313140E+01  0.33355561737E+01  0.00000000000E+00 0.  1.
</event>
<event>
 5    1  0.8240609E+001  0.1572550E+01  0.7818608E-02  0.3383707E+00
         11   -1    0    0    0    0  0.00000000000E+00  0.00000000000E+00  0.39999999674E+01  0.40000000000E+01  0.51100000000E-03 0. -1.
    9000002   -1    0    0    0    0 -0.00000000000E+00 -0.00000000000E+00  0.00000000000E+00  0.93800000000E+00  0.93800000000E+00 0.  1.
         11    1    1    2    0    0  0.24059121596E+00 -0.33072726170E-01  0.65611910752E+00  0.69962167118E+00  0.51100000000E-03 0. -1.
    9000002    1    1    2    0    0 -0.49875683219E+00  0.27871929629E+00  0.25306722417E+00  0.11270891019E+01  0.93800000000E+00 0.  1.
         22    1    1    2    0    0  0.25816561623E+00 -0.24564657012E+00  0.30908136357E+01  0.31112892269E+01  0.00000000000E+00 0. -1.
</event>
<event>
 5    1  0.8240609E+001  0.1494884E+01  0.7818608E-02  0.3476000E+00
         11   -1    0    0    0    0  0.00000000000E+00  0.00000000000E+00  0.39999999674E+01  0.40000000000E+01  0.51100000000E-03 0. -1.
    9000002   -1    0    0    0    0 -0.00000000000E+00 -0.00000000000E+00  0.00000000000E+00  0.93800000000E+00  0.93800000000E+00 0.  1.
         11    1    1    2    0    0 -0.13092275150E+00  0.30579542803E+00  0.94097533623E+00  0.99804130935E+00  0.51100000000E-03 0. -1.
    9000002    1    1    2    0    0 -0.91141512869E-01 -0.31429898162E-01  0.86888262488E-01  0.94693620906E+00  0.93800000000E+00 0.  1.
         22    1    1    2    0    0  0.22206426437E+00 -0.27436552987E+00  0.29721363686E+01  0.29930224816E+01  0.00000000000E+00 0. -1.
</event>
<event>
 5    1  0.8240609E+001  0.1599627E+01  0.7818608E-02  0.3353768E+00
         11   -1    0    0    0    0  0.00000000000E+00  0.00000000000E+00  0.39999999674E+01  0.40000000000E+01  0.51100000000E-03 0. -1.
    9000002   -1    0    0    0    0 -0.00000000000E+00 -0.00000000000E+00  0.00000000000E+00  0.93800000000E+00  0.93800000000E+00 0.  1.
         11    1    1    2    0    0  0.27190952276E+00  0.19573059043E+00  0.99220002832E+00  0.10472375136E+01  0.51100000000E-03 0. -1.
    9000002    1    1    2    0    0 -0.85100479170E+00 -0.62818037778E+00  0.93344355634E+00  0.16941017134E+01  0.93800000000E+00 0.  1.
         22    1    1    2    0    0  0.57909526893E+00  0.43244978735E+00  0.20743563827E+01  0.21966607730E+01  0.00000000000E+00 0. -1.
</event>
<event>
 5    1  0.8240609E+001  0.1583333E+01  0.7818608E-02  0.3371655E+00
         11   -1    0    0    0    0  0.00000000000E+00  0.00000000000E+00  0.39999999674E+01  0.40000000000E+01  0.51100000000E-03 0.  1.
    9000002   -1    0    0    0    0 -0.00000000000E+00 -0.00000000000E+00  0.00000000000E+00  0.93800000000E+00  0.93800000000E+00 0.  1.
         11    1    1    2    0    0 -0.16304544591E+00  0.25744579200E+00  0.14464101180E+01  0.14781625905E+01  0.51100000000E-03 0.  1.
    9000002    1    1    2    0    0  0.42801391090E+00 -0.28261843841E+00  0.19553137334E+00  0.10868052298E+01  0.93800000000E+00 0.  1.
         22    1    1    2    0    0 -0.26496846499E+00  0.25172646408E-01  0.23580584760E+01  0.23730321797E+01  0.00000000000E+00 0.  1.
</event>
<event>
 5    1  0.8240609E+001  0.1599478E+01  0.7818608E-02  0.3353930E+00
         11   -1    0    0    0    0  0.00000000000E+00  0.00000000000E+00  0.39999999674E+01  0.40000000000E+01  0.51100000000E-03 0. -1.
    9000002   -1    0    0    0    0 -0.00000000000E+00 -0.00000000000E+00  0.00000000000E+00  0.93800000000E+00  0.93800000000E+00 0. -1.
         11    1    1    2    0    0 -0.71831111863E-01  0.64549600681E-01  0.78610032984E+00  0.79201032144E+00  0.51100000000E-03 0. -1.
    9000002    1    1    2    0    0  0.40060757175E+00 -0.35323143735E+00  0.19663039558E+00  0.10971628810E+01  0.93800000000E+00 0. -1.
         22    1    1    2    0    0 -0.32877645989E+00  0.28868183667E+00  0.30172692419E+01  0.30488267976E+01  0.00000000000E+00 0. -1.
</event>
<event>
 5    1  0.8240609E+001  0.1448647E+01  0.7818608E-02  0.3536020E+00
         11   -1    0    0    0    0  0.00000000000E+00  0.00000000000E+00  0.39999999674E+01  0.40000000000E+01  0.51100000000E-03 0. -1.
    9000002   -1    0    0    0    0 -0.00000000000E+00 -0.00000000000E+00  0.00000000000E+00  0.93800000000E+00  0.93800000000E+00 0. -1.
         11    1    1    2    0    0 -0.34485063768E+00 -0.11811646765E+00  0.65370563983E+00  0.74846829385E+00  0.51100000000E-03 0. -1.
    9000002    1    1    2    0    0  0.92260709203E-01 -0.14462615899E+00  0.14140553968E+00  0.96398562799E+00  0.93800000000E+00 0. -1.
         22    1    1    2    0    0  0.25258992848E+00  0.26274262664E+00  0.32048887878E+01  0.32255460782E+01  0.00000000000E+00 0. -1.
</event>
<event>
 5    1  0.8240609E+001  0.1598782E+01  0.7818608E-02  0.3354686E+00
         11   -1    0    0    0    0  0.00000000000E+00  0.00000000000E+00  0.39999999674E+01  0.40000000000E+01  0.51100000000E-03 0.  1.
    9000002   -1    0    0    0    0 -0.00000000000E+00 -0.00000000000E+00  0.00000000000E+00  0.93800000000E+00  0.93800000000E+00 0.  1.
         11    1    1    2    0    0  0.35168244549E-01 -0.27108604549E-01  0.53057880416E+00  0.53243385543E+00  0.51100000000E-03 0.  1.
    9000002    1    1    2    0    0 -0.35700790389E+00  0.46635161630E-01  0.87741042210E-01  0.10085494397E+01  0.93800000000E+00 0.  1.
         22    1    1    2    0    0  0.32183965934E+00 -0.19526557081E-01  0.33816801210E+01  0.33970167049E+01  0.00000000000E+00 0.  1.
</event>
<event>
 5    1  0.8240609E+001  0.1599677E+01  0.7818608E-02  0.3353714E+00
         11   -1    0    0    0    0  0.00000000000E+00  0.00000000000E+00  0.39999999674E+01  0.40000000000E+01  0.51100000000E-03 0. -1.
    9000002   -1    0    0    0    0 -0.00000000000E+00 -0.00000000000E+00  0.00000000000E+00  0.93800000000E+00  0.93800000000E+00 0.  1.
         11    1    1    2    0    0  0.19618097097E+00 -0.10330366823E-01  0.13012115847E+01  0.13159580309E+01  0.51100000000E-03 0. -1.
    9000002    1    1    2    0    0 -0.57037180892E+00  0.30465563349E-01  0.22627448231E+00  0.11212922422E+01  0.93800000000E+00 0.  1.
         22    1    1    2    0    0  0.37419083795E+00 -0.20135196526E-01  0.24725139004E+01  0.25007497270E+01  0.00000000000E+00 0. -1.
</event>
<event>
 5    1  0.8240609E+001  0.1599660E+01  0.7818608E-02  0.3353733E+00
         11   -1    0    0    0    0  0.00000000000E+00  0.00000000000E+00  0.39999999674E+01  0.40000000000E+01  0.51100000000E-03 0. -1.
    9000002   -1    0    0    0    0 -0.00000000000E+00 -0.00000000000E+00  0.00000000000E+00  0.93800000000E+00  0.93800000000E+00 0. -1.
         11    1    1    2    0    0  0.23823155396E+00  0.20919616260E-01  0.59603187078E+00  0.64221970988E+00  0.51100000000E-03 0. -1.
    9000002    1    1    2    0    0 -0.11447197450E+01 -0.96557313357E-01  0.11875277346E+01  0.18999401911E+01  0.93800000000E+00 0. -1.
         22    1    1    2    0    0  0.90648819106E+00  0.75637697097E-01  0.22164403620E+01  0.23958400990E+01  0.00000000000E+00 0. -1.
</event>
<event>
 5    1  0.8240609E+001  0.1599620E+01  0.7818608E-02  0.3353776E+00
         11   -1    0    0    0    0  0.00000000000E+00  0.00000000000E+00  0.39999999674E+01  0.40000000000E+01  0.51100000000E-03 0.  1.
    9000002   -1    0    0    0    0 -0.00000000000E+00 -0.00000000000E+00  0.00000000000E+00  0.93800000000E+00  0.93800000000E+00 0. -1.
         11    1    1    2    0    0  0.94972362671E-01 -0.38019836488E-01  0.89356606393E+00  0.89940304056E+00  0.51100000000E-03 0.  1.
    9000002    1    1    2    0    0 -0.39169861566E+00  0.13922503838E+00  0.11685353896E+00  0.10326229546E+01  0.93800000000E+00 0. -1.
         22    1    1    2    0    0  0.29672625299E+00 -0.10120520189E+00  0.29895803645E+01  0.30059740048E+01  0.00000000000E+00 0.  1.
</event>
<event>
 5    1  0.8240609E+001  0.1598420E+01  0.7818608E-02  0.3355080E+00
         11   -1    0    0    0    0  0.00000000000E+00  0.00000000000E+00  0.39999999674E+01  0.40000000000E+01  0.51100000000E-03 0. -1.
    9000002   -1    0    0    0    0 -0.00000000000E+00 -0.00000000000E+00  0.00000000000E+00  0.93800000000E+00  0.93800000000E+00 0. -1.
         11    1    1    2    0    0  0.23723851947E+00  0.18489610022E+00  0.12024817670E+01  0.12395286782E+01  0.51100000000E-03 0. -1.
    9000002    1    1    2    0    0 -0.61895135909E+00 -0.45936462113E+00  0.43502848440E+00  0.12896551563E+01  0.93800000000E+00 0. -1.
         22    1    1    2    0    0  0.38171283962E+00  0.27446852090E+00  0.23624897160E+01  0.24088161654E+01  0.00000000000E+00 0.  1.
</event>
<event>
 5    1  0.8240609E+001  0.1555043E+01  0.7818608E-02  0.3403652E+00
         11   -1    0    0    0    0  0.00000000000E+00  0.00000000000E+00  0.39999999674E+01  0.40000000000E+01  0.51100000000E-03 0. -1.
    9000002   -1    0    0    0    0 -0.00000000000E+00 -0.00000000000E+00  0.00000000000E+00  0.93800000000E+00  0.93800000000E+00 0.  1.
         11    1    1    2    0    0  0.13397071025E+00 -0.19814588894E+00  0.10587063572E+01  0.10853890346E+01  0.51100000000E-03 0. -1.
    9000002    1    1    2    0    0  0.14699210444E+00  0.19710571905E+00  0.75008467961E-01  0.97258810064E+00  0.93800000000E+00 0.  1.
         22    1    1    2    0    0 -0.28096281469E+00  0.10401698844E-02  0.28662851422E+01  0.28800228648E+01  0.00000000000E+00 0. -1.
</event>
<event>
 5    1  0.8240609E+001  0.1597069E+01  0.7818608E-02  0.3356551E+00
         11   -1    0    0    0    0  0.00000000000E+00  0.00000000000E+00  0.39999999674E+01  0.40000000000E+01  0.51100000000E-03 0.  1.
    9000002   -1    0    0    0    0 -0.00000000000E+00 -0.00000000000E+00  0.00000000000E+00  0.93800000000E+00  0.93800000000E+00 0.  1.
         11    1    1    2    0    0  0.29066646286E-01 -0.79729825380E-02  0.48774356786E+00  0.48867421406E+00  0.51100000000E-03 0.  1.
    9000002    1    1    2    0    0 -0.82261763552E-01  0.35262575232E+00  0.90150179855E-01  0.10094963962E+01  0.93800000000E+00 0.  1.
         22    1    1    2    0    0  0.53195117266E-01 -0.34465276979E+00  0.34221062196E+01  0.34398293898E+01  0.00000000000E+00 0.  1.
</event>
<event>
 5    1  0.8240609E+001  0.1599676E+01  0.7818608E-02  0.3353715E+00
         11   -1    0    0    0    0  0.00000000000E+00  0.00000000000E+00  0.39999999674E+01  0.40000000000E+01  0.51100000000E-03 0. -1.
    9000002   -1    0    0    0    0 -0.00000000000E+00 -0.00000000000E+00  0.00000000000E+00  0.93800000000E+00  0.93800000000E+00 0. -1.
         11    1    1    2    0    0  0.14161284446E-01 -0.15870548990E+00  0.14269188166E+01  0.14357874303E+01  0.51100000000E-03 0. -1.
    9000002    1    1    2    0    0 -0.41152649262E-01  0.42955066913E+00  0.12613401885E+00  0.10401735954E+01  0.93800000000E+00 0. -1.
         22    1    1    2    0    0  0.26991364815E-01 -0.27084517923E+00  0.24469471319E+01  0.24620389743E+01  0.00000000000E+00 0. -1.
</event>
<event>
 5    1  0.8240609E+001  0.1599677E+01  0.7818608E-02  0.3353714E+00
         11   -1    0    0    0    0  0.00000000000E+00  0.00000000000E+00  0.39999999674E+01  0.40000000000E+01  0.51100000000E-03 0. -1.
    9000002   -1    0    0    0    0 -0.00000000000E+00 -0.00000000000E+00  0.00000000000E+00  0.93800000000E+00  0.93800000000E+00 0.  1.
         11    1    1    2    0    0  0.17362011368E+00  0.32505670596E-01  0.14524253243E+01  0.14631268387E+01  0.51100000000E-03 0. -1.
    9000002    1    1    2    0    0 -0.45878919735E+00 -0.86626850516E-01  0.14843460436E+00  0.10582384281E+01  0.93800000000E+00 0.  1.
         22    1    1    2    0    0  0.28516908367E+00  0.54121179920E-01  0.23991400387E+01  0.24166347332E+01  0.00000000000E+00 0. -1.
</event>
<event>
 5    1  0.8240609E+001  0.1598426E+01  0.7818608E-02  0.3355074E+00
         11   -1    0    0    0    0  0.00000000000E+00  0.00000000000E+00  0.39999999674E+01  0.40000000000E+01  0.51100000000E-03 0. -1.
    9000002   -1    0    0    0    0 -0.00000000000E+00 -0.00000000000E+00  0.00000000000E+00  0.93800000000E+00  0.93800000000E+00 0. -1.
         11    1    1    2    0    0  0.54947007469E-01  0.14521127016E+00  0.11485591763E+01  0.11590055777E+01  0.51100000000E-03 0. -1.
    9000002    1    1    2    0    0 -0.27853594649E+00 -0.55283858634E+00  0.26975325886E+00  0.11557783510E+01  0.93800000000E+00 0. -1.
         22    1    1    2    0    0  0.22358893902E+00  0.40762731618E+00  0.25816875322E+01  0.26232160712E+01  0.00000000000E+00 0. -1.
</event>
<event>
 5    1  0.8240609E+001  0.1585483E+01  0.7818608E-02  0.3369272E+00
         11   -1    0    0    0    0  0.00000000000E+00  0.00000000000E+00  0.39999999674E+01  0.40000000000E+01  0.51100000000E-03 0.  1.
    9000002   -1    0    0    0    0 -0.00000000000E+00 -0.00000000000E+00  0.00000000000E+00  0.93800000000E+00  0.93800000000E+00 0.  1.
         11    1    1    2    0    0 -0.35425122154E-01  0.24358321424E-01  0.87089088449E+00  0.87195152440E+00  0.51100000000E-03 0.  1.
    9000002    1    1    2    0    0 -0.33918085848E+00  0.87882194624E-01  0.93841034197E-01  0.10056923360E+01  0.93800000000E+00 0.  1.
         22    1    1    2    0    0  0.37460598063E+00 -0.11224051605E+00  0.30352680487E+01  0.30603561396E+01  0.00000000000E+00 0.  1.
</event>
<event>
 5    1  0.8240609E+001  0.1598344E+01  0.7818608E-02  0.3355163E+00
         11   -1    0    0    0    0  0.00000000000E+00  0.00000000000E+00  0.39999999674E+01  0.40000000000E+01  0.51100000000E-03 0.  1.
    9000002   -1    0    0    0    0 -0.00000000000E+00 -0.00000000000E+00  0.00000000000E+00  0.93800000000E+00  0.93800000000E+00 0. -1.
         11    1    1    2    0    0 -0.11230378140E-01 -0.30918044420E-01  0.86772987474E+00  0.86835329417E+00  0.51100000000E-03 0.  1.
    9000002    1    1    2    0    0  0.98000492477E-01  0.29876014573E+00  0.67094894227E-01  0.99156817518E+00  0.93800000000E+00 0. -1.
         22    1    1    2    0    0 -0.86770114337E-01 -0.26784210131E+00  0.30651751984E+01  0.30780785306E+01  0.00000000000E+00 0.  1.
</event>
<event>
 5    1  0.8240609E+001  0.1599286E+01  0.7818608E-02  0.3354139E+00
         11   -1    0    0    0    0  0.00000000000E+00  0.00000000000E+00  0.39999999674E+01  0.40000000000E+01  0.51100000000E-03 0.  1.
    9000002   -1    0    0    0    0 -0.00000000000E+00 -0.00000000000E+00  0.00000000000E+00  0.93800000000E+00  0.93800000000E+00 0.  1.
         11    1    1    2    0    0 -0.30725227963E-02  0.87478354558E-02  0.11919152681E+00  0.11955269217E+00  0.51100000000E-03 0.  1.
    9000002    1    1    2    0    0 -0.16654960581E+00 -0.30795274244E+00  0.82503072449E-01  0.10046016224E+01  0.93800000000E+00 0.  1.
         22    1    1    2    0    0  0.16962212861E+00  0.29920490699E+00  0.37983053681E+01  0.38138456854E+01  0.00000000000E+00 0.  1.
</event>
<event>
 5    1  0.8240609E+001  0.1599585E+01  0.7818608E-02  0.3353814E+00
         11   -1    0    0    0    0  0.00000000000E+00  0.00000000000E+00  0.39999999674E+01  0.40000000000E+01  0.51100000000E-03 0.  1.
    9000002   -1    0    0    0    0 -0.00000000000E+00 -0.00000000000E+00  0.00000000000E+00  0.93800000000E+00  0.93800000000E+00 0.  1.
         11    1    1    2    0    0  0.55397343555E-02  0.14973765085E-01  0.15393483353E+00  0.15476141765E+00  0.51100000000E-03 0.  1.
    9000002    1    1    2    0    0 -0.24723562881E+00 -0.40361467304E+00  0.15277940058E+00  0.10617041988E+01  0.93800000000E+00 0.  1.
         22    1    1    2    0    0  0.24169589445E+00  0.38864090796E+00  0.36932857333E+01  0.37215343836E+01  0.00000000000E+00 0.  1.
</event>
<event>
 5    1  0.8240609E+001  0.1599486E+01  0.7818608E-02  0.3353921E+00
         11   -1    0    0    0    0  0.00000000000E+00  0.00000000000E+00  0.39999999674E+01  0.40000000000E+01  0.51100000000E-03 0. -1.
    9000002   -1    0    0    0    0 -0.00000000000E+00 -0.00000000000E+00  0.00000000000E+00  0.93800000000E+00  0.93800000000E+00 0. -1.
         11    1    1    2    0    0 -0.25930815581E-02 -0.17681963752E-01  0.16040415114E+00  0.16139742482E+00  0.51100000000E-03 0. -1.
    9000002    1    1    2    0    0 -0.87476940965E-01  0.37500204944E+00  0.99986857255E-01  0.10188818008E+01  0.93800000000E+00 0. -1.
         22    1    1    2    0    0  0.90070022523E-01 -0.35732008569E+00  0.37396089590E+01  0.37577207744E+01  0.00000000000E+00 0. -1.
</event>
<event>
 5    1  0.8240609E+001  0.1597507E+01  0.7818608E-02  0.3356074E+00
         11   -1    0    0    0    0  0.00000000000E+00  0.00000000000E+00  0.39999999674E+01  0.40000000000E+01  0.51100000000E-03 0.  1.
    9000002   -1    0    0    0    0 -0.00000000000E+00 -0.00000000000E+00  0.00000000000E+00  0.93800000000E+00  0.93800000000E+00 0. -1.
         11    1    1    2    0    0 -0.15007768940E-01  0.94468320214E-02  0.31026766040E+00  0.31077444872E+00  0.51100000000E-03 0.  1.
    9000002    1    1    2    0    0 -0.14044817198E+00 -0.31259251416E+00  0.80423614281E-01  0.10018741072E+01  0.93800000000E+00 0. -1.
         22    1    1    2    0    0  0.15545594092E+00  0.30314568213E+00  0.36093086927E+01  0.36253514441E+01  0.00000000000E+00 0.  1.
</event>
<event>
 5    1  0.8240609E+001  0.1596981E+01  0.7818608E-02  0.3356646E+00
         11   -1    0    0    0    0  0.00000000000E+00  0.00000000000E+00  0.39999999674E+01  0.40000000000E+01  0.51100000000E-03 0.  1.
    9000002   -1    0    0    0    0 -0.00000000000E+00 -0.00000000000E+00  0.00000000000E+00  0.93800000000E+00  0.93800000000E+00 0.  1.
         11    1    1    2    0    0 -0.12561535201E+00 -0.47266467616E-01  0.98222781506E+00  0.99135517219E+00  0.51100000000E-03 0.  1.
    9000002    1    1    2    0    0  0.58885058690E+00  0.34710999601E+00  0.33543276633E+00  0.12081347209E+01  0.93800000000E+00 0.  1.
         22    1    1    2    0    0 -0.46323523489E+00 -0.29984352839E+00  0.26823393860E+01  0.27385101069E+01  0.00000000000E+00 0.  1.
</event>
<event>
 5    1  0.8240609E+001  0.1599677E+01  0.7818608E-02  0.3353715E+00
         11   -1    0    0    0    0  0.00000000000E+00  0.00000000000E+00  0.39999999674E+01  0.40000000000E+01  0.51100000000E-03 0. -1.
    9000002   -1    0    0    0    0 -0.00000000000E+00 -0.00000000000E+00  0.00000000000E+00  0.93800000000E+00  0.93800000000E+00 0.  1.
         11    1    1    2    0    0 -0.62165988955E-02 -0.67157605323E-01  0.69623479399E+00  0.69949405969E+00  0.51100000000E-03 0. -1.
    9000002    1    1    2    0    0  0.33835715592E-01  0.37921408488E+00  0.97535854277E-01  0.10170080731E+01  0.93800000000E+00 0.  1.
         22    1    1    2    0    0 -0.27619116696E-01 -0.31205647956E+00  0.32062293191E+01  0.32214978672E+01  0.00000000000E+00 0. -1.
</event>
<event>
 5    1  0.8240609E+001  0.1571829E+01  0.7818608E-02  0.3384518E+00
         11   -1    0    0    0    0  0.00000000000E+00  0.00000000000E+00  0.39999999674E+01  0.40000000000E+01  0.51100000000E-03 0.  1.
    9000002   -1    0    0    0    0 -0.00000000000E+00 -0.00000000000E+00  0.00000000000E+00  0.93800000000E+00  0.93800000000E+00 0.  1.
         11    1    1    2    0    0 -0.18480267876E+00  0.72031537047E-01  0.10881355091E+01  0.11060649709E+01  0.51100000000E-03 0.  1.
    9000002    1    1    2    0    0  0.28340589422E+00  0.26616698333E+00  0.12518074651E+00  0.10230728142E+01  0.93800000000E+00 0.  1.
         22    1    1    2    0    0 -0.98603215457E-01 -0.33819852038E+00  0.27866837117E+01  0.28088622149E+01  0.00000000000E+00 0.  1.
</event>
<event>
 5    1  0.8240609E+001  0.1599677E+01  0.7818608E-02  0.3353714E+00
         11   -1    0    0    0    0  0.00000000000E+00  0.00000000000E+00  0.39999999674E+01  0.40000000000E+01  0.51100000000E-03 0.  1.
    9000002   -1    0    0    0    0 -0.00000000000E+00 -0.00000000000E+00  0.00000000000E+00  0.93800000000E+00  0.93800000000E+00 0. -1.
         11    1    1    2    0    0 -0.75074468664E-01 -0.67117962403E-01  0.10929831568E+01  0.10976126088E+01  0.51100000000E-03 0.  1.
    9000002    1    1    2    0    0  0.26823387610E+00  0.23915285705E+00  0.86683005455E-01  0.10082169631E+01  0.93800000000E+00 0. -1.
         22    1    1    2    0    0 -0.19315940743E+00 -0.17203489464E+00  0.28203338051E+01  0.28321704281E+01  0.00000000000E+00 0.  1.
</event>
<event>
 5    1  0.8240609E+001  0.1597740E+01  0.7818608E-02  0.3355820E+00
         11   -1    0    0    0    0  0.00000000000E+00  0.00000000000E+00  0.39999999674E+01  0.40000000000E+01  0.51100000000E-03 0.  1.
    9000002   -1    0    0    0    0 -0.00000000000E+00 -0.00000000000E+00  0.00000000000E+00  0.93800000000E+00  0.93800000000E+00 0. -1.
         11    1    1    2    0    0  0.63742871250E-01  0.19705567238E+00  0.12582286153E+01  0.12751602257E+01  0.51100000000E-03 0.  1.
    9000002    1    1    2    0    0 -0.22179452081E+00 -0.44950994465E+00  0.17378122083E+00  0.10776344058E+01  0.93800000000E+00 0. -1.
         22    1    1    2    0    0  0.15805164956E+00  0.25245427227E+00  0.25679901312E+01  0.25852053685E+01  0.00000000000E+00 0.  1.
</event>
<event>
 5    1  0.8240609E+001  0.1554281E+01  0.7818608E-02  0.3404531E+00
         11   -1    0    0    0    0  0.00000000000E+00  0.00000000000E+00  0.39999999674E+01  0.40000000000E+01  0.51100000000E-03 0.  1.
    9000002   -1    0    0    0    0 -0.00000000000E+00 -0.00000000000E+00  0.00000000000E+00  0.93800000000E+00  0.93800000000E+00 0.  1.
         11    1    1    2    0    0  0.13197374184E+00  0.10051950359E-01  0.81640404206E+00  0.82706343847E+00  0.51100000000E-03 0.  1.
    9000002    1    1    2    0    0  0.34269054236E+00  0.16609729773E+00  0.13586035162E+00  0.10214338722E+01  0.93800000000E+00 0.  1.
         22    1    1    2    0    0 -0.47466428420E+00 -0.17614924809E+00  0.30477355737E+01  0.30895026893E+01  0.00000000000E+00 0.  1.
</event>
<event>
 5    1  0.8240609E+001  0.1457983E+01  0.7818608E-02  0.3523567E+00
         11   -1    0    0    0    0  0.00000000000E+00  0.00000000000E+00  0.39999999674E+01  0.40000000000E+01  0.51100000000E-03 0. -1.
    9000002   -1    0    0    0    0 -0.00000000000E+00 -0.00000000000E+00  0.00000000000E+00  0.93800000000E+00  0.93800000000E+00 0.  1.
         11    1    1    2    0    0  0.16392308524E+00  0.42797823746E+00  0.97956528885E+00  0.10814733311E+01  0.51100000000E-03 0. -1.
    9000002    1    1    2    0    0 -0.37050802709E+00 -0.11743761153E+00  0.22972378176E+00  0.10410018284E+01  0.93800000000E+00 0.  1.
         22    1    1    2    0    0  0.20658494185E+00 -0.31054062593E+00  0.27907108967E+01  0.28155248405E+01  0.00000000000E+00 0. -1.
</event>
<event>
 5    1  0.8240609E+001  0.1599633E+01  0.7818608E-02  0.3353762E+00
         11   -1    0    0    0    0  0.00000000000E+00  0.00000000000E+00  0.39999999674E+01  0.40000000000E+01  0.51100000000E-03 0.  1.
    9000002   -1    0    0    0    0 -0.00000000000E+00 -0.00000000000E+00  0.00000000000E+00  0.93800000000E+00  0.93800000000E+00 0. -1.
         11    1    1    2    0    0 -0.42112620065E-02 -0.17237609166E-01  0.23753828268E+00  0.23820068588E+00  0.51100000000E-03 0.  1.
    9000002    1    1    2    0    0  0.10680300969E+00  0.33466755417E+00  0.82794687528E-01  0.10050413996E+01  0.93800000000E+00 0. -1.
         22    1    1    2    0    0 -0.10259174769E+00 -0.31742994501E+00  0.36796669972E+01  0.36947579145E+01  0.00000000000E+00 0.  1.
</event>
<event>
 5    1  0.8240609E+001  0.1598580E+01  0.7818608E-02  0.3354907E+00
         11   -1    0    0    0    0  0.00000000000E+00  0.00000000000E+00  0.39999999674E+01  0.40000000000E+01  0.51100000000E-03 0.  1.
    9000002   -1    0    0    0    0 -0.00000000000E+00 -0.00000000000E+00  0.00000000000E+00  0.93800000000E+00  0.93800000000E+00 0.  1.
         11    1    1    2    0    0  0.12806001809E-01 -0.13924841613E-02  0.58142951958E-01  0.59554988690E-01  0.51100000000E-03 0.  1.
    9000002    1    1    2    0    0 -0.23801330350E+00  0.28907081907E+00  0.95175592929E-01  0.10144528893E+01  0.93800000000E+00 0.  1.
         22    1    1    2    0    0  0.22520730169E+00 -0.28767833491E+00  0.38466814225E+01  0.38639921220E+01  0.00000000000E+00 0.  1.
</event>
<event>
 5    1  0.8240609E+001  0.1552676E+01  0.7818608E-02  0.3406386E+00
         11   -1    0    0    0    0  0.00000000000E+00  0.00000000000E+00  0.39999999674E+01  0.40000000000E+01  0.51100000000E-03 0.  1.
    9000002   -1    0    0    0    0 -0.00000000000E+00 -0.00000000000E+00  0.00000000000E+00  0.93800000000E+00  0.93800000000E+00 0. -1.
         11    1    1    2    0    0 -0.80195899338E-01 -0.11419681675E+00  0.58794322616E+00  0.60427625598E+00  0.51100000000E-03 0.  1.
    9000002    1    1    2    0    0 -0.23902811438E+00 -0.21376176246E+00  0.10691722847E+00  0.99704755368E+00  0.93800000000E+00 0. -1.
         22    1    1    2    0    0  0.31922401372E+00  0.32795857921E+00  0.33051395127E+01  0.33366761903E+01  0.00000000000E+00 0.  1.
</event>
<event>
 5    1  0.8240609E+001  0.1599677E+01  0.7818608E-02  0.3353715E+00
         11   -1    0    0    0    0  0.00000000000E+00  0.00000000000E+00  0.39999999674E+01  0.40000000000E+01  0.51100000000E-03 0. -1.
    9000002   -1    0    0    0    0 -0.00000000000E+00 -0.00000000000E+00  0.00000000000E+00  0.93800000000E+00  0.93800000000E+00 0. -1.
         11    1    1    2    0    0  0.60027312643E-01  0.11947718683E+00  0.87875881050E+00  0.88887309814E+00  0.51100000000E-03 0. -1.
    9000002    1    1    2    0    0 -0.25541515784E+00 -0.51449374544E+00  0.22898073533E+00  0.11234842652E+01  0.93800000000E+00 0. -1.
         22    1    1    2    0    0  0.19538784520E+00  0.39501655861E+00  0.28922604215E+01  0.29256426367E+01  0.00000000000E+00 0. -1.
</event>
<event>
 5    1  0.8240609E+001  0.1594291E+01  0.7818608E-02  0.3359584E+00
         11   -1    0    0    0    0  0.00000000000E+00  0.00000000000E+00  0.39999999674E+01  0.40000000000E+01  0.51100000000E-03 0. -1.
    9000002   -1    0    0    0    0 -0.00000000000E+00 -0.00000000000E+00  0.00000000000E+00  0.93800000000E+00  0.93800000000E+00 0.  1.
         11    1    1    2    0    0 -0.98193654057E-03 -0.15939860929E-01  0.13225678356E+01  0.13226643506E+01  0.51100000000E-03 0. -1.
    9000002    1    1    2    0    0 -0.23165469657E+00 -0.37520323536E-01  0.40643016736E-01  0.96776419025E+00  0.93800000000E+00 0.  1.
         22    1    1    2    0    0  0.23263663311E+00  0.53460184465E-01  0.26367891150E+01  0.26475714591E+01  0.00000000000E+00 0.  1.
</event>
<event>
 5    1  0.8240609E+001  0.1560781E+01  0.7818608E-02  0.3397063E+00
         11   -1    0    0    0    0  0.00000000000E+00  0.00000000000E+00  0.39999999674E+01  0.40000000000E+01  0.51100000000E-03 0.  1.
    9000002   -1    0    0    0    0 -0.00000000000E+00 -0.00000000000E+00  0.00000000000E+00  0.93800000000E+00  0.93800000000E+00 0.  1.
         11    1    1    2    0    0  0.12649520309E+00  0.24735677156E+00  0.58493832006E-01  0.28391582968E+00  0.51100000000E-03 0.  1.
    9000002    1    1    2    0    0 -0.59103965411E+00 -0.19731889605E-01  0.57691649374E+00  0.12499575437E+01  0.93800000000E+00 0.  1.
         22    1    1    2    0    0  0.46454445102E+00 -0.22762488195E+00  0.33645896416E+01  0.34041266267E+01  0.00000000000E+00 0.  1.
</event>
<event>
 5    1  0.8240609E+001  0.1599657E+01  0.7818608E-02  0.3353736E+00
         11   -1    0    0    0    0  0.00000000000E+00  0.00000000000E+00  0.39999999674E+01  0.40000000000E+01  0.51100000000E-03 0.  1.
    9000002   -1    0    0    0    0 -0.00000000000E+00 -0.00000000000E+00  0.00000000000E+00  0.93800000000E+00  0.93800000000E+00 0.  1.
         11    1    1    2    0    0 -0.40502275279E-02 -0.34842652640E-03  0.33921249014E-01  0.34167791848E-01  0.51100000000E-03 0. -1.
    9000002    1    1    2    0    0  0.43620790219E+00 -0.57294485015E-01  0.13128835323E+00  0.10443374089E+01  0.93800000000E+00 0.  1.
         22    1    1    2    0    0 -0.43215767467E+00  0.57642911542E-01  0.38347903651E+01  0.38594947992E+01  0.00000000000E+00 0.  1.
</event>
<event>
 5    1  0.8240609E+001  0.1597175E+01  0.7818608E-02  0.3356435E+00
         11   -1    0    0    0    0  0.00000000000E+00  0.00000000000E+00  0.39999999674E+01  0.40000000000E+01  0.51100000000E-03 0.  1.
    9000002   -1    0    0    0    0 -0.00000000000E+00 -0.00000000000E+00  0.00000000000E+00  0.93800000000E+00  0.93800000000E+00 0. -1.
         11    1    1    2    0    0  0.28054511434E-01 -0.44026136080E-01  0.13344428591E+01  0.13354637253E+01  0.51100000000E-03 0.  1.
    9000002    1    1    2    0    0 -0.19601911763E+00  0.25393275503E+00  0.70770251601E-01  0.99386003394E+00  0.93800000000E+00 0. -1.
         22    1    1    2    0    0  0.16796460620E+00 -0.20990661895E+00  0.25947868566E+01  0.26086762407E+01  0.00000000000E+00 0.  1.
</event>
<event>
 5    1  0.8240609E+001  0.1588598E+01  0.7818608E-02  0.3365833E+00
         11   -1    0    0    0    0  0.00000000000E+00  0.00000000000E+00  0.39999999674E+01  0.40000000000E+01  0.51100000000E-03 0. -1.
    9000002   -1    0    0    0    0 -0.00000000000E+00 -0.00000000000E+00  0.00000000000E+00  0.93800000000E+00  0.93800000000E+00 0. -1.
         11    1    1    2    0    0 -0.31094144627E-01  0.52566004808E-01  0.92975790170E+00  0.93176179766E+00  0.51100000000E-03 0. -1.
    9000002    1    1    2    0    0  0.16266227328E+00  0.23202121853E+00  0.62132553114E-01  0.98183364943E+00  0.93800000000E+00 0. -1.
         22    1    1    2    0    0 -0.13156812865E+00 -0.28458722334E+00  0.30081095125E+01  0.30244045529E+01  0.00000000000E+00 0. -1.
</event>
<event>
 5    1  0.8240609E+001  0.1599676E+01  0.7818608E-02  0.3353716E+00
         11   -1    0    0    0    0  0.00000000000E+00  0.00000000000E+00  0.39999999674E+01  0.40000000000E+01  0.51100000000E-03 0.  1.
    9000002   -1    0    0    0    0 -0.00000000000E+00 -0.00000000000E+00  0.00000000000E+00  0.93800000000E+00  0.93800000000E+00 0. -1.
         11    1    1    2    0    0  0.36513370247E-01 -0.72770145707E-01  0.88647877092E+00  0.89020985881E+00  0.51100000000E-03 0.  1.
    9000002    1    1    2    0    0 -0.16608664190E+00  0.32223415075E+00  0.88243527509E-01  0.10094803320E+01  0.93800000000E+00 0. -1.
         22    1    1    2    0    0  0.12957327165E+00 -0.24946400504E+00  0.30252776689E+01  0.30383098092E+01  0.00000000000E+00 0.  1.
</event>
<event>
 5    1  0.8240609E+001  0.1589865E+01  0.7818608E-02  0.3364437E+00
         11   -1    0    0    0    0  0.00000000000E+00  0.00000000000E+00  0.39999999674E+01  0.40000000000E+01  0.51100000000E-03 0.  1.
    9000002   -1    0    0    0    0 -0.00000000000E+00 -0.00000000000E+00  0.00000000000E+00  0.93800000000E+00  0.93800000000E+00 0. -1.
         11    1    1    2    0    0  0.91619657276E-01 -0.70441496743E-01  0.96929727152E+00  0.97616270558E+00  0.51100000000E-03 0.  1.
    9000002    1    1    2    0    0 -0.56674701170E-01  0.54828878340E+00  0.21923730201E+00  0.11098385497E+01  0.93800000000E+00 0. -1.
         22    1    1    2    0    0 -0.34944956106E-01 -0.47784728666E+00  0.28114653938E+01  0.28519987447E+01  0.00000000000E+00 0.  1.
</event>
<event>
 5    1  0.8240609E+001  0.1576156E+01  0.7818608E-02  0.3379656E+00
         11   -1    0    0    0    0  0.00000000000E+00  0.00000000000E+00  0.39999999674E+01  0.40000000000E+01  0.51100000000E-03 0. -1.
    9000002   -1    0    0    0    0 -0.00000000000E+00 -0.00000000000E+00  0.00000000000E+00  0.93800000000E+00  0.93800000000E+00 0. -1.
         11    1    1    2    0    0  0.14641684313E+00 -0.33955253899E-01  0.49113871913E+00  0.51362277380E+00  0.51100000000E-03 0. -1.
    9000002    1    1    2    0    0 -0.18100482197E+00  0.37694282997E+00  0.13832256736E+00  0.10362556515E+01  0.93800000000E+00 0. -1.
         22    1    1    2    0    0  0.34587978840E-01 -0.34298757607E+00  0.33705386809E+01  0.33881215747E+01  0.00000000000E+00 0. -1.
</event>
<event>
 5    1  0.8240609E+001  0.1588806E+01  0.7818608E-02  0.3365604E+00
         11   -1    0    0    0    0  0.00000000000E+00  0.00000000000E+00  0.39999999674E+01  0.40000000000E+01  0.51100000000E-03 0.  1.
    9000002   -1    0    0    0    0 -0.00000000000E+00 -0.00000000000E+00  0.00000000000E+00  0.93800000000E+00  0.93800000000E+00 0. -1.
         11    1    1    2    0    0 -0.18966143043E+00 -0.39829682124E-01  0.76127762105E+00  0.78555823412E+00  0.51100000000E-03 0.  1.
    9000002    1    1    2    0    0  0.45277709012E+00  0.32609162166E+00  0.22579087863E+00  0.11145260696E+01  0.93800000000E+00 0. -1.
         22    1    1    2    0    0 -0.26311565969E+00 -0.28626193953E+00  0.30129314677E+01  0.30379156962E+01  0.00000000000E+00 0.  1.
</event>
<event>
 5    1  0.8240609E+001  0.1599529E+01  0.7818608E-02  0.3353875E+00
         11   -1    0    0    0    0  0.00000000000E+00  0.00000000000E+00  0.39999999674E+01  0.40000000000E+01  0.51100000000E-03 0.  1.
    9000002   -1    0    0    0    0 -0.00000000000E+00 -0.00000000000E+00  0.00000000000E+00  0.93800000000E+00  0.93800000000E+00 0. -1.
         11    1    1    2    0    0 -0.13035109555E-01  0.11291198730E-03  0.85854463706E-01  0.86839949847E-01  0.51100000000E-03 0.  1.
    9000002    1    1    2    0    0  0.40270981988E+00 -0.59099178491E-01  0.11197222260E+00  0.10286154240E+01  0.93800000000E+00 0. -1.
         22    1    1    2    0    0 -0.38967471033E+00  0.58986266504E-01  0.38021732811E+01  0.38225446261E+01  0.00000000000E+00 0.  1.
</event>
<event>
 5    1  0.8240609E+001  0.1597570E+01  0.7818608E-02  0.3356005E+00
         11   -1    0    0    0    0  0.00000000000E+00  0.00000000000E+00  0.39999999674E+01  0.40000000000E+01  0.51100000000E-03 0. -1.
    9000002   -1    0    0    0    0 -0.00000000000E+00 -0.00000000000E+00  0.00000000000E+00  0.93800000000E+00  0.93800000000E+00 0.  1.
         11    1    1    2    0    0 -0.37689710328E-01 -0.16282687429E-01  0.12002704720E+01  0.12009725672E+01  0.51100000000E-03 0. -1.
    9000002    1    1    2    0    0  0.28875866905E+00  0.79694214437E-01  0.61509544327E-01  0.98659016862E+00  0.93800000000E+00 0.  1.
         22    1    1    2    0    0 -0.25106895872E+00 -0.63411527008E-01  0.27382199510E+01  0.27504372641E+01  0.00000000000E+00 0. -1.
</event>
<event>
 5    1  0.8240609E+001  0.1599655E+01  0.7818608E-02  0.3353738E+00
         11   -1    0    0    0    0  0.00000000000E+00  0.00000000000E+00  0.39999999674E+01  0.40000000000E+01  0.51100000000E-03 0. -1.
    9000002   -1    0    0    0    0 -0.00000000000E+00 -0.00000000000E+00  0.00000000000E+00  0.93800000000E+00  0.93800000000E+00 0. -1.
         11    1    1    2    0    0 -0.66829853840E-01  0.10548678702E+00  0.11014759863E+01  0.11085320478E+01  0.51100000000E-03 0. -1.
    9000002    1    1    2    0    0  0.21743676549E+00 -0.36918441652E+00  0.12431606685E+00  0.10386887719E+01  0.93800000000E+00 0. -1.
         22    1    1    2    0    0 -0.15060691165E+00  0.26369762951E+00  0.27742079142E+01  0.27907791803E+01  0.00000000000E+00 0.  1.
</event>
<event>
 5    1  0.8240609E+001  0.1489391E+01  0.7818608E-02  0.3482920E+00
         11   -1    0    0    0    0  0.00000000000E+00  0.00000000000E+00  0.39999999674E+01  0.40000000000E+01  0.51100000000E-03 0. -1.
    9000002   -1    0    0    0    0 -0.00000000000E+00 -0.00000000000E+00  0.00000000000E+00  0.93800000000E+00  0.93800000000E+00 0.  1.
         11    1    1    2    0    0 -0.15110169397E+00  0.21093267839E+00  0.26340211458E+00  0.36973673312E+00  0.51100000000E-03 0. -1.
    9000002    1    1    2    0    0 -0.26579644172E+00  0.30158307852E+00  0.29282663782E+00  0.10616927717E+01  0.93800000000E+00 0.  1.
         22    1    1    2    0    0  0.41689813569E+00 -0.51251575690E+00  0.34437712150E+01  0.35065704952E+01  0.00000000000E+00 0. -1.
</event>
<event>
 5    1  0.8240609E+001  0.1599647E+01  0.7818608E-02  0.3353747E+00
         11   -1    0    0    0    0  0.00000000000E+00  0.00000000000E+00  0.39999999674E+01  0.40000000000E+01  0.51100000000E-03 0.  1.
    9000002   -1    0    0    0    0 -0.00000000000E+00 -0.00000000000E+00  0.00000000000E+00  0.93800000000E+00  0.93800000000E+00 0. -1.
         11    1    1    2    0    0 -0.72173219988E-01  0.11645604539E+00  0.10913672868E+01  0.10999335435E+01  0.51100000000E-03 0.  1.
    9000002    1    1    2    0    0  0.23580519635E+00 -0.42021973893E+00  0.15850049002E+00  0.10663747582E+01  0.93800000000E+00 0. -1.
         22    1    1    2    0    0 -0.16363197636E+00  0.30376369353E+00  0.27501321905E+01  0.27716916983E+01  0.00000000000E+00 0.  1.
</event>
<event>
 5    1  0.8240609E+001  0.1599643E+01  0.7818608E-02  0.3353751E+00
         11   -1    0    0    0    0  0.00000000000E+00  0.00000000000E+00  0.39999999674E+01  0.40000000000E+01  0.51100000000E-03 0.  1.
    9000002   -1    0    0    0    0 -0.00000000000E+00 -0.00000000000E+00  0.00000000000E+00  0.93800000000E+00  0.93800000000E+00 0.  1.
         11    1    1    2    0    0  0.10562499259E+00 -0.13748524260E+00  0.13995397436E+01  0.14102377765E+01  0.51100000000E-03 0.  1.
    9000002    1    1    2    0    0 -0.27763093509E+00  0.39117916664E+00  0.15702350625E+00  0.10651762568E+01  0.93800000000E+00 0.  1.
         22    1    1    2    0    0  0.17200594250E+00 -0.25369392404E+00  0.24434367175E+01  0.24625859667E+01  0.00000000000E+00 0.  1.
</event>
<event>
 5    1  0.8240609E+001  0.1536347E+01  0.7818608E-02  0.3425486E+00
         11   -1    0    0    0    0  0.00000000000E+00  0.00000000000E+00  0.39999999674E+01  0.40000000000E+01  0.51100000000E-03 0. -1.
    9000002   -1    0    0    0    0 -0.00000000000E+00 -0.00000000000E+00  0.00000000000E+00  0.93800000000E+00  0.93800000000E+00 0. -1.
         11    1    1    2    0    0 -0.12340075562E-01  0.76796324463E-01  0.27011468144E-01  0.82339744037E-01  0.51100000000E-03 0. -1.
    9000002    1    1    2    0    0  0.56759243431E+00 -0.26515518811E+00  0.34349269914E+00  0.11791096979E+01  0.93800000000E+00 0. -1.
         22    1    1    2    0    0 -0.55525235875E+00  0.18835886364E+00  0.36294958001E+01  0.36765505581E+01  0.00000000000E+00 0. -1.
</event>
<event>
 5    1  0.8240609E+001  0.1599471E+01  0.7818608E-02  0.3353937E+00
         11   -1    0    0    0    0  0.00000000000E+00  0.00000000000E+00  0.39999999674E+01  0.40000000000E+01  0.51100000000E-03 0.  1.
    9000002   -1    0    0    0    0 -0.00000000000E+00 -0.00000000000E+00  0.00000000000E+00  0.93800000000E+00  0.93800000000E+00 0. -1.
         11    1    1    2    0    0  0.25947369463E+00  0.15086824290E+00  0.46143498878E+00  0.55046374532E+00  0.51100000000E-03 0.  1.
    9000002    1    1    2    0    0 -0.11375886119E+01 -0.60174992276E+00  0.19551968877E+01  0.25216759683E+01  0.93800000000E+00 0. -1.
         22    1    1    2    0    0  0.87811491723E+00  0.45088167986E+00  0.15833680909E+01  0.18658602864E+01  0.00000000000E+00 0.  1.
</event>
<event>
 5    1  0.8240609E+001  0.1541785E+01  0.7818608E-02  0.3419077E+00
         11   -1    0    0    0    0  0.00000000000E+00  0.00000000000E+00  0.39999999674E+01  0.40000000000E+01  0.51100000000E-03 0. -1.
    9000002   -1    0    0    0    0 -0.00000000000E+00 -0.00000000000E+00  0.00000000000E+00  0.93800000000E+00  0.93800000000E+00 0. -1.
         11    1    1    2    0    0 -0.49813364841E-01 -0.24840540944E+00  0.33583670283E+00  0.42068179287E+00  0.51100000000E-03 0. -1.
    9000002    1    1    2    0    0 -0.60301570921E-01  0.75135556743E+00  0.48608274117E+00  0.12978027198E+01  0.93800000000E+00 0. -1.
         22    1    1    2    0    0  0.11011493576E+00 -0.50295015798E+00  0.31780805234E+01  0.32195154874E+01  0.00000000000E+00 0. -1.
</event>
<event>
 5    1  0.8240609E+001  0.1599676E+01  0.7818608E-02  0.3353715E+00
         11   -1    0    0    0    0  0.00000000000E+00  0.00000000000E+00  0.39999999674E+01  0.40000000000E+01  0.51100000000E-03 0.  1.
    9000002   -1    0    0    0    0 -0.00000000000E+00 -0.00000000000E+00  0.00000000000E+00  0.93800000000E+00  0.93800000000E+00 0.  1.
         11    1    1    2    0    0 -0.14983637332E+00  0.23186201095E-01  0.97970369948E+00  0.99136680325E+00  0.51100000000E-03 0.  1.
    9000002    1    1    2    0    0  0.57731013234E+00 -0.85971851350E-01  0.23687932355E+00  0.11298822780E+01  0.93800000000E+00 0.  1.
         22    1    1    2    0    0 -0.42747375901E+00  0.62785650255E-01  0.27834169443E+01  0.28167509188E+01  0.00000000000E+00 0.  1.
</event>
<event>
 5    1  0.8240609E+001  0.1599608E+01  0.7818608E-02  0.3353788E+00
         11   -1    0    0    0    0  0.00000000000E+00  0.00000000000E+00  0.39999999674E+01  0.40000000000E+01  0.51100000000E-03 0.  1.
    9000002   -1    0    0    0    0 -0.00000000000E+00 -0.00000000000E+00  0.00000000000E+00  0.93800000000E+00  0.93800000000E+00 0.  1.
         11    1    1    2    0    0  0.62564976196E-02  0.76029446434E-01  0.61143743392E+00  0.61617823493E+00  0.51100000000E-03 0.  1.
    9000002    1    1    2    0    0 -0.79457745695E-01 -0.45680431627E+00  0.14637330771E+00  0.10565286849E+01  0.93800000000E+00 0.  1.
         22    1    1    2    0    0  0.73201248075E-01  0.38077486983E+00  0.32421892257E+01  0.32652930802E+01  0.00000000000E+00 0.  1.
</event>
<event>
 5    1  0.8240609E+001  0.1599666E+01  0.7818608E-02  0.3353726E+00
         11   -1    0    0    0    0  0.00000000000E+00  0.00000000000E+00  0.39999999674E+01  0.40000000000E+01  0.51100000000E-03 0. -1.
    9000002   -1    0    0    0    0 -0.00000000000E+00 -0.00000000000E+00  0.00000000000E+00  0.93800000000E+00  0.93800000000E+00 0.  1.
         11    1    1    2    0    0  0.45996345810E-01 -0.31084490105E-02  0.45488790094E+00  0.45721831747E+00  0.51100000000E-03 0. -1.
    9000002    1    1    2    0    0 -0.37415009499E+00  0.20831822868E-01  0.94430780528E-01  0.10144867819E+01  0.93800000000E+00 0.  1.
         22    1    1    2    0    0  0.32815374917E+00 -0.17723373858E-01  0.34506812859E+01  0.34662949006E+01  0.00000000000E+00 0. -1.
</event>
<event>
 5    1  0.8240609E+001  0.1599669E+01  0.7818608E-02  0.3353722E+00
         11   -1    0    0    0    0  0.00000000000E+00  0.00000000000E+00  0.39999999674E+01  0.40000000000E+01  0.51100000000E-03 0. -1.
    9000002   -1    0    0    0    0 -0.00000000000E+00 -0.00000000000E+00  0.00000000000E+00  0.93800000000E+00  0.93800000000E+00 0.  1.
         11    1    1    2    0    0 -0.61176068711E-03 -0.13900127589E+00  0.68606600570E+00  0.70000611015E+00  0.51100000000E-03 0. -1.
    9000002    1    1    2    0    0  0.54095521146E-02  0.74323514164E+00  0.39967406528E+00  0.12617492213E+01  0.93800000000E+00 0.  1.
         22    1    1    2    0    0 -0.47977914275E-02 -0.60423386575E+00  0.29142598964E+01  0.29762446685E+01  0.00000000000E+00 0. -1.
</event>
<event>
 5    1  0.8240609E+001  0.1598773E+01  0.7818608E-02  0.3354696E+00
         11   -1    0    0    0    0  0.00000000000E+00  0.00000000000E+00  0.39999999674E+01  0.40000000000E+01  0.51100000000E-03 0.  1.
    9000002   -1    0    0    0    0 -0.00000000000E+00 -0.00000000000E+00  0.00000000000E+00  0.93800000000E+00  0.93800000000E+00 0. -1.
         11    1    1    2    0    0  0.17022292733E-02 -0.46832257529E-01  0.70189457931E+00  0.70345747527E+00  0.51100000000E-03 0.  1.
    9000002    1    1    2    0    0  0.35703355086E-01  0.40727393310E+00  0.11363068658E+00  0.10295157692E+01  0.93800000000E+00 0. -1.
         22    1    1    2    0    0 -0.37405584359E-01 -0.36044167557E+00  0.31844747015E+01  0.32050267555E+01  0.00000000000E+00 0.  1.
</event>
<event>
 5    1  0.8240609E+001  0.1550032E+01  0.7818608E-02  0.3409449E+00
         11   -1    0    0    0    0  0.00000000000E+00  0.00000000000E+00  0.39999999674E+01  0.40000000000E+01  0.51100000000E-03 0.  1.
    9000002   -1    0    0    0    0 -0.00000000000E+00 -0.00000000000E+00  0.00000000000E+00  0.93800000000E+00  0.93800000000E+00 0.  1.
         11    1    1    2    0    0 -0.10996613348E+00  0.12738523418E+00  0.10134583753E+01  0.10273352365E+01  0.51100000000E-03 0.  1.
    9000002    1    1    2    0    0 -0.14664160292E+00  0.21260740577E+00  0.83439487631E-01  0.97647929665E+00  0.93800000000E+00 0.  1.
         22    1    1    2    0    0  0.25660773640E+00 -0.33999263995E+00  0.29031021044E+01  0.29341854669E+01  0.00000000000E+00 0.  1.
</event>
<event>
 5    1  0.8240609E+001  0.1589019E+01  0.7818608E-02  0.3365369E+00
         11   -1    0    0    0    0  0.00000000000E+00  0.00000000000E+00  0.39999999674E+01  0.40000000000E+01  0.51100000000E-03 0.  1.
    9000002   -1    0    0    0    0 -0.00000000000E+00 -0.00000000000E+00  0.00000000000E+00  0.93800000000E+00  0.93800000000E+00 0.  1.
         11    1    1    2    0    0 -0.57547857078E-01 -0.91371363166E-01  0.84964449830E+00  0.85647913954E+00  0.51100000000E-03 0.  1.
    9000002    1    1    2    0    0 -0.19414497181E+00  0.31181158009E+00  0.99368666957E-01  0.10122434804E+01  0.93800000000E+00 0.  1.
         22    1    1    2    0    0  0.25169282889E+00 -0.22044021693E+00  0.30509868021E+01  0.30692773801E+01  0.00000000000E+00 0.  1.
</event>
<event>
 5    1  0.8240609E+001  0.1599659E+01  0.7818608E-02  0.3353734E+00
         11   -1    0    0    0    0  0.00000000000E+00  0.00000000000E+00  0.39999999674E+01  0.40000000000E+01  0.51100000000E-03 0. -1.
    9000002   -1    0    0    0    0 -0.00000000000E+00 -0.00000000000E+00  0.00000000000E+00  0.93800000000E+00  0.93800000000E+00 0. -1.
         11    1    1    2    0    0 -0.52492916459E-01 -0.42205610092E-01  0.45101608771E+00  0.45601819294E+00  0.51100000000E-03 0.  1.
    9000002    1    1    2    0    0  0.43863150089E+00  0.38008942794E+00  0.23408804416E+00  0.11276110940E+01  0.93800000000E+00 0. -1.
         22    1    1    2    0    0 -0.38613858443E+00 -0.33788381785E+00  0.33148958355E+01  0.33543707131E+01  0.00000000000E+00 0. -1.
</event>
<event>
 5    1  0.8240609E+001  0.1599668E+01  0.7818608E-02  0.3353724E+00
         11   -1    0    0    0    0  0.00000000000E+00  0.00000000000E+00  0.39999999674E+01  0.40000000000E+01  0.51100000000E-03 0. -1.
    9000002   -1    0    0    0    0 -0.00000000000E+00 -0.00000000000E+00  0.00000000000E+00  0.93800000000E+00  0.93800000000E+00 0. -1.
         11    1    1    2    0    0 -0.15266557435E+00  0.71061661046E-01  0.12977505947E+01  0.13086303544E+01  0.51100000000E-03 0. -1.
    9000002    1    1    2    0    0  0.44297376826E+00 -0.21600136674E+00  0.16607640779E+00  0.10725239965E+01  0.93800000000E+00 0. -1.
         22    1    1    2    0    0 -0.29030819391E+00  0.14493970570E+00  0.25361729648E+01  0.25568456491E+01  0.00000000000E+00 0. -1.
</event>
<event>
 5    1  0.8240609E+001  0.1599625E+01  0.7818608E-02  0.3353771E+00
         11   -1    0    0    0    0  0.00000000000E+00  0.00000000000E+00  0.39999999674E+01  0.40000000000E+01  0.51100000000E-03 0. -1.
    9000002   -1    0    0    0    0 -0.00000000000E+00 -0.00000000000E+00  0.00000000000E+00  0.93800000000E+00  0.93800000000E+00 0.  1.
         11    1    1    2    0    0 -0.66708688227E-01 -0.17117598612E-01  0.75674110826E+00  0.75986869084E+00  0.51100000000E-03 0. -1.
    9000002    1    1    2    0    0  0.37173687370E+00  0.65943388124E-01  0.95918919641E-01  0.10156678950E+01  0.93800000000E+00 0.  1.
         22    1    1    2    0    0 -0.30502818547E+00 -0.48825789511E-01  0.31473399395E+01  0.31624634142E+01  0.00000000000E+00 0. -1.
</event>
<event>
 5    1  0.8240609E+001  0.1594936E+01  0.7818608E-02  0.3358878E+00
         11   -1    0    0    0    0  0.00000000000E+00  0.00000000000E+00  0.39999999674E+01  0.40000000000E+01  0.51100000000E-03 0. -1.
    9000002   -1    0    0    0    0 -0.00000000000E+00 -0.00000000000E+00  0.00000000000E+00  0.93800000000E+00  0.93800000000E+00 0.  1.
         11    1    1    2    0    0 -0.67255320048E-01  0.49278919709E-01  0.84225425237E+00  0.84637118143E+00  0.51100000000E-03 0. -1.
    9000002    1    1    2    0    0  0.36344361644E+00  0.83232580698E-01  0.97340320266E-01  0.10140700483E+01  0.93800000000E+00 0.  1.
         22    1    1    2    0    0 -0.29618829640E+00 -0.13251150041E+00  0.30604053947E+01  0.30775587703E+01  0.00000000000E+00 0. -1.
</event>
<event>
 5    1  0.8240609E+001  0.1599670E+01  0.7818608E-02  0.3353721E+00
         11   -1    0    0    0    0  0.00000000000E+00  0.00000000000E+00  0.39999999674E+01  0.40000000000E+01  0.51100000000E-03 0.  1.
    9000002   -1    0    0    0    0 -0.00000000000E+00 -0.00000000000E+00  0.00000000000E+00  0.93800000000E+00  0.93800000000E+00 0.  1.
         11    1    1    2    0    0  0.72763006763E-01  0.34630619260E-01  0.77638051551E+00  0.78055153637E+00  0.51100000000E-03 0.  1.
    9000002    1    1    2    0    0 -0.35415729643E+00 -0.16800545972E+00  0.10354239459E+00  0.10218699783E+01  0.93800000000E+00 0.  1.
         22    1    1    2    0    0  0.28139428967E+00  0.13337484046E+00  0.31200770573E+01  0.31355784853E+01  0.00000000000E+00 0.  1.
</event>
<event>
 5    1  0.8240609E+001  0.1598261E+01  0.7818608E-02  0.3355253E+00
         11   -1    0    0    0    0  0.00000000000E+00  0.00000000000E+00  0.39999999674E+01  0.40000000000E+01  0.51100000000E-03 0. -1.
    9000002   -1    0    0    0    0 -0.00000000000E+00 -0.00000000000E+00  0.00000000000E+00  0.93800000000E+00  0.93800000000E+00 0. -1.
         11    1    1    2    0    0 -0.25048106613E+00 -0.52687676867E-01  0.14709722041E+01  0.14930761006E+01  0.51100000000E-03 0. -1.
    9000002    1    1    2    0    0  0.56113600737E+00  0.56024157590E-01  0.22159924513E+00  0.11166747738E+01  0.93800000000E+00 0. -1.
         22    1    1    2    0    0 -0.31065494124E+00 -0.33364807226E-02  0.23074285181E+01  0.23282491256E+01  0.00000000000E+00 0. -1.
</event>
<event>
 5    1  0.8240609E+001  0.1599675E+01  0.7818608E-02  0.3353716E+00
         11   -1    0    0    0    0  0.00000000000E+00  0.00000000000E+00  0.39999999674E+01  0.40000000000E+01  0.51100000000E-03 0.  1.
    9000002   -1    0    0    0    0 -0.00000000000E+00 -0.00000000000E+00  0.00000000000E+00  0.93800000000E+00  0.93800000000E+00 0. -1.
         11    1    1    2    0    0  0.38706708133E-01  0.48281168595E-01  0.50472099372E+00  0.50850056354E+00  0.51100000000E-03 0.  1.
    9000002    1    1    2    0    0 -0.29696831727E+00 -0.37610516299E+00  0.15667352245E+00  0.10649112018E+01  0.93800000000E+00 0. -1.
         22    1    1    2    0    0  0.25826160914E+00  0.32782399440E+00  0.33386054512E+01  0.33645882347E+01  0.00000000000E+00 0.  1.
</event>
<event>
 5    1  0.8240609E+001  0.1599662E+01  0.7818608E-02  0.3353730E+00
         11   -1    0    0    0    0  0.00000000000E+00  0.00000000000E+00  0.39999999674E+01  0.40000000000E+01  0.51100000000E-03 0. -1.
    9000002   -1    0    0    0    0 -0.00000000000E+00 -0.00000000000E+00  0.00000000000E+00  0.93800000000E+00  0.93800000000E+00 0. -1.
         11    1    1    2    0    0 -0.25671425213E-01  0.77908985320E-01  0.73647578243E+00  0.74103014196E+00  0.51100000000E-03 0. -1.
    9000002    1    1    2    0    0  0.14248322692E+00 -0.42611588326E+00  0.13710993926E+00  0.10490564100E+01  0.93800000000E+00 0. -1.
         22    1    1    2    0    0 -0.11681180171E+00  0.34820689794E+00  0.31264142457E+01  0.31479134480E+01  0.00000000000E+00 0. -1.
</event>
<event>
 5    1  0.8240609E+001  0.1598213E+01  0.7818608E-02  0.3355305E+00
         11   -1    0    0    0    0  0.00000000000E+00  0.00000000000E+00  0.39999999674E+01  0.40000000000E+01  0.51100000000E-03 0. -1.
    9000002   -1    0    0    0    0 -0.00000000000E+00 -0.00000000000E+00  0.00000000000E+00  0.93800000000E+00  0.93800000000E+00 0.  1.
         11    1    1    2    0    0 -0.13748236478E-02  0.13485849712E-01  0.20962445587E+00  0.21006292367E+00  0.51100000000E-03 0. -1.
    9000002    1    1    2    0    0  0.38110797715E+00 -0.38254845257E+00  0.20239037117E+00  0.11010869499E+01  0.93800000000E+00 0.  1.
         22    1    1    2    0    0 -0.37973315350E+00  0.36906260285E+00  0.35879851403E+01  0.36268501265E+01  0.00000000000E+00 0. -1.
</event>
<event>
 5    1  0.8240609E+001  0.1599677E+01  0.7818608E-02  0.3353714E+00
         11   -1    0    0    0    0  0.00000000000E+00  0.00000000000E+00  0.39999999674E+01  0.40000000000E+01  0.51100000000E-03 0. -1.
    9000002   -1    0    0    0    0 -0.00000000000E+00 -0.00000000000E+00  0.00000000000E+00  0.93800000000E+00  0.93800000000E+00 0. -1.
         11    1    1    2    0    0  0.10010094018E+00  0.56369955112E-01  0.12042979030E+01  0.12097650475E+01  0.51100000000E-03 0. -1.
    9000002    1    1    2    0    0 -0.32354902601E+00 -0.18229876983E+00  0.92700518618E-01  0.10130914075E+01  0.93800000000E+00 0. -1.
         22    1    1    2    0    0  0.22344808584E+00  0.12592881472E+00  0.27030015458E+01  0.27151435450E+01  0.00000000000E+00 0. -1.
</event>
<event>
 5    1  0.8240609E+001  0.1599677E+01  0.7818608E-02  0.3353714E+00
         11   -1    0    0    0    0  0.00000000000E+00  0.00000000000E+00  0.39999999674E+01  0.40000000000E+01  0.51100000000E-03 0. -1.
    9000002   -1    0    0    0    0 -0.00000000000E+00 -0.00000000000E+00  0.00000000000E+00  0.93800000000E+00  0.93800000000E+00 0. -1.
         11    1    1    2    0    0 -0.82066319103E-01 -0.74590813267E-01  0.62009608415E+00  0.62993498463E+00  0.51100000000E-03 0.  1.
    9000002    1    1    2    0    0  0.48906928011E+00  0.44649461659E+00  0.31038216088E+00  0.11894230909E+01  0.93800000000E+00 0. -1.
         22    1    1    2    0    0 -0.40700296100E+00 -0.37190380333E+00  0.30695217223E+01  0.31186419245E+01  0.00000000000E+00 0. -1.
</event>
<event>
 5    1  0.8240609E+001  0.1599538E+01  0.7818608E-02  0.3353865E+00
         11   -1    0    0    0    0  0.00000000000E+00  0.00000000000E+00  0.39999999674E+01  0.40000000000E+01  0.51100000000E-03 0. -1.
    9000002   -1    0    0    0    0 -0.00000000000E+00 -0.00000000000E+00  0.00000000000E+00  0.93800000000E+00  0.93800000000E+00 0. -1.
         11    1    1    2    0    0  0.55020811286E-01  0.13406791538E+00  0.14055504042E+01  0.14130016615E+01  0.51100000000E-03 0. -1.
    9000002    1    1    2    0    0 -0.15227756877E+00 -0.40706686468E+00  0.12812605154E+00  0.10417063767E+01  0.93800000000E+00 0. -1.
         22    1    1    2    0    0  0.97256757486E-01  0.27299894930E+00  0.24663235116E+01  0.24832919617E+01  0.00000000000E+00 0. -1.
</event>
<event>
 5    1  0.8240609E+001  0.1599674E+01  0.7818608E-02  0.3353717E+00
         11   -1    0    0    0    0  0.00000000000E+00  0.00000000000E+00  0.39999999674E+01  0.40000000000E+01  0.51100000000E-03 0.  1.
    9000002   -1    0    0    0    0 -0.00000000000E+00 -0.00000000000E+00  0.00000000000E+00  0.93800000000E+00  0.93800000000E+00 0. -1.
         11    1    1    2    0    0 -0.46914572533E-03 -0.12522746170E+00  0.13703316559E+01  0.13760418764E+01  0.51100000000E-03 0.  1.
    9000002    1    1    2    0    0  0.48099646241E-03  0.36275371878E+00  0.88361684187E-01  0.10095752964E+01  0.93800000000E+00 0. -1.
         22    1    1    2    0    0 -0.11850737080E-04 -0.23752625708E+00  0.25413066272E+01  0.25523828272E+01  0.00000000000E+00 0.  1.
</event>
<event>
 5    1  0.8240609E+001  0.1589742E+01  0.7818608E-02  0.3364573E+00
         11   -1    0    0    0    0  0.00000000000E+00  0.00000000000E+00  0.39999999674E+01  0.40000000000E+01  0.51100000000E-03 0. -1.
    9000002   -1    0    0    0    0 -0.00000000000E+00 -0.00000000000E+00  0.00000000000E+00  0.93800000000E+00  0.93800000000E+00 0. -1.
         11    1    1    2    0    0 -0.15755781878E+00 -0.30696847096E-01  0.86555573537E+00  0.88031457720E+00  0.51100000000E-03 0. -1.
    9000002    1    1    2    0    0  0.30432885179E+00  0.34200659383E+00  0.15119794524E+00  0.10546513068E+01  0.93800000000E+00 0. -1.
         22    1    1    2    0    0 -0.14677103301E+00 -0.31130974673E+00  0.29832462868E+01  0.30030341160E+01  0.00000000000E+00 0. -1.
</event>
<event>
 5    1  0.8240609E+001  0.1589445E+01  0.7818608E-02  0.3364899E+00
         11   -1    0    0    0    0  0.00000000000E+00  0.00000000000E+00  0.39999999674E+01  0.40000000000E+01  0.51100000000E-03 0. -1.
    9000002   -1    0    0    0    0 -0.00000000000E+00 -0.00000000000E+00  0.00000000000E+00  0.93800000000E+00  0.93800000000E+00 0. -1.
         11    1    1    2    0    0 -0.17850836738E-01  0.50101045617E-01  0.56704201403E+00  0.56953110006E+00  0.51100000000E-03 0. -1.
    9000002    1    1    2    0    0 -0.41029122413E+00 -0.92540612098E-01  0.12834104940E+00  0.10359623924E+01  0.93800000000E+00 0. -1.
         22    1    1    2    0    0  0.42814206087E+00  0.42439566481E-01  0.33046169039E+01  0.33325065075E+01  0.00000000000E+00 0. -1.
</event>
<event>
 5    1  0.8240609E+001  0.1594877E+01  0.7818608E-02  0.3358943E+00
         11   -1    0    0    0    0  0.00000000000E+00  0.00000000000E+00  0.39999999674E+01  0.40000000000E+01  0.51100000000E-03 0.  1.
    9000002   -1    0    0    0    0 -0.00000000000E+00 -0.00000000000E+00  0.00000000000E+00  0.93800000000E+00  0.93800000000E+00 0. -1.
         11    1    1    2    0    0  0.32179084507E-01  0.28281974632E-01  0.94322818267E+00  0.94420073569E+00  0.51100000000E-03 0.  1.
    9000002    1    1    2    0    0  0.92253664761E-01 -0.30985584897E+00  0.73700111291E-01  0.99488546688E+00  0.93800000000E+00 0. -1.
         22    1    1    2    0    0 -0.12443274927E+00  0.28157387434E+00  0.29830716734E+01  0.29989137974E+01  0.00000000000E+00 0.  1.
</event>
<event>
 5    1  0.8240609E+001  0.1599397E+01  0.7818608E-02  0.3354018E+00
         11   -1    0    0    0    0  0.00000000000E+00  0.00000000000E+00  0.39999999674E+01  0.40000000000E+01  0.51100000000E-03 0.  1.
    9000002   -1    0    0    0    0 -0.00000000000E+00 -0.00000000000E+00  0.00000000000E+00  0.93800000000E+00  0.93800000000E+00 0. -1.
         11    1    1    2    0    0 -0.13924963390E+00  0.38828219557E-01  0.14183454001E+01  0.14256935247E+01  0.51100000000E-03 0.  1.
    9000002    1    1    2    0    0  0.38894858513E+00 -0.53795565995E-01  0.10412915363E+00  0.10221848392E+01  0.93800000000E+00 0. -1.
         22    1    1    2    0    0 -0.24969895123E+00  0.14967346438E-01  0.24775254136E+01  0.24901216362E+01  0.00000000000E+00 0.  1.
</event>
<event>
 5    1  0.8240609E+001  0.1599619E+01  0.7818608E-02  0.3353777E+00
         11   -1    0    0    0    0  0.00000000000E+00  0.00000000000E+00  0.39999999674E+01  0.40000000000E+01  0.51100000000E-03 0.  1.
    9000002   -1    0    0    0    0 -0.00000000000E+00 -0.00000000000E+00  0.00000000000E+00  0.93800000000E+00  0.93800000000E+00 0. -1.
         11    1    1    2    0    0 -0.33540524880E-03 -0.10399852192E+00  0.11891265197E+01  0.11936657598E+01  0.51100000000E-03 0.  1.
    9000002    1    1    2    0    0  0.22288039270E-01  0.36000207066E+00  0.87383566014E-01  0.10087507795E+01  0.93800000000E+00 0. -1.
         22    1    1    2    0    0 -0.21952634021E-01 -0.25600354874E+00  0.27234898817E+01  0.27355834607E+01  0.00000000000E+00 0.  1.
</event>
<event>
 5    1  0.8240609E+001  0.1599672E+01  0.7818608E-02  0.3353720E+00
         11   -1    0    0    0    0  0.00000000000E+00  0.00000000000E+00  0.39999999674E+01  0.40000000000E+01  0.51100000000E-03 0. -1.
    9000002   -1    0    0    0    0 -0.00000000000E+00 -0.00000000000E+00  0.00000000000E+00  0.93800000000E+00  0.93800000000E+00 0. -1.
         11    1    1    2    0    0  0.66907249520E-01 -0.37724917675E-01  0.87492847231E+00  0.87829371069E+00  0.51100000000E-03 0. -1.
    9000002    1    1    2    0    0 -0.30838486463E+00  0.17372324591E+00  0.84043218963E-01  0.10060756699E+01  0.93800000000E+00 0. -1.
         22    1    1    2    0    0  0.24147761511E+00 -0.13599832824E+00  0.30410282761E+01  0.30536306194E+01  0.00000000000E+00 0. -1.
</event>
<event>
 5    1  0.8240609E+001  0.1598962E+01  0.7818608E-02  0.3354491E+00
         11   -1    0    0    0    0  0.00000000000E+00  0.00000000000E+00  0.39999999674E+01  0.40000000000E+01  0.51100000000E-03 0.  1.
    9000002   -1    0    0    0    0 -0.00000000000E+00 -0.00000000000E+00  0.00000000000E+00  0.93800000000E+00  0.93800000000E+00 0.  1.
         11    1    1    2    0    0  0.70676925395E-01  0.18814215051E-01  0.59172389880E+00  0.59622700039E+00  0.51100000000E-03 0.  1.
    9000002    1    1    2    0    0 -0.39453291761E+00 -0.25857019830E+00  0.15225657072E+00  0.10609150927E+01  0.93800000000E+00 0.  1.
         22    1    1    2    0    0  0.32385599221E+00  0.23975598324E+00  0.32560194978E+01  0.32808579069E+01  0.00000000000E+00 0.  1.
</event>
<event>
 5    1  0.8240609E+001  0.1599677E+01  0.7818608E-02  0.3353714E+00
         11   -1    0    0    0    0  0.00000000000E+00  0.00000000000E+00  0.39999999674E+01  0.40000000000E+01  0.51100000000E-03 0.  1.
    9000002   -1    0    0    0    0 -0.00000000000E+00 -0.00000000000E+00  0.00000000000E+00  0.93800000000E+00  0.93800000000E+00 0. -1.
         11    1    1    2    0    0  0.10893743273E+00  0.75020124794E-01  0.11821683919E+01  0.11895451868E+01  0.51100000000E-03 0.  1.
    9000002    1    1    2    0    0 -0.35711696156E+00 -0.24500327397E+00  0.12707692570E+00  0.10409378817E+01  0.93800000000E+00 0. -1.
         22    1    1    2    0    0  0.24817952882E+00  0.16998314917E+00  0.26907546498E+01  0.27075169316E+01  0.00000000000E+00 0.  1.
</event>
<event>
 5    1  0.8240609E+001  0.1599556E+01  0.7818608E-02  0.3353845E+00
         11   -1    0    0    0    0  0.00000000000E+00  0.00000000000E+00  0.39999999674E+01  0.40000000000E+01  0.51100000000E-03 0.  1.
    9000002   -1    0    0    0    0 -0.00000000000E+00 -0.00000000000E+00  0.00000000000E+00  0.93800000000E+00  0.93800000000E+00 0. -1.
         11    1    1    2    0    0  0.92002471700E-01 -0.41971575573E-01  0.64212178779E+00  0.65003593703E+00  0.51100000000E-03 0.  1.
    9000002    1    1    2    0    0 -0.53581930363E+00  0.18855802683E+00  0.22375595946E+00  0.11191814799E+01  0.93800000000E+00 0. -1.
         22    1    1    2    0    0  0.44381683193E+00 -0.14658645125E+00  0.31341222201E+01  0.31687825830E+01  0.00000000000E+00 0.  1.
</event>
<event>
 5    1  0.8240609E+001  0.1599331E+01  0.7818608E-02  0.3354089E+00
         11   -1    0    0    0    0  0.00000000000E+00  0.00000000000E+00  0.39999999674E+01  0.40000000000E+01  0.51100000000E-03 0. -1.
    9000002   -1    0    0    0    0 -0.00000000000E+00 -0.00000000000E+00  0.00000000000E+00  0.93800000000E+00  0.93800000000E+00 0. -1.
         11    1    1    2    0    0  0.78291746019E-01  0.81282683492E-01  0.79439581116E+00  0.80237238116E+00  0.51100000000E-03 0. -1.
    9000002    1    1    2    0    0 -0.39308149889E+00 -0.30564749332E+00  0.16997626248E+00  0.10754856506E+01  0.93800000000E+00 0. -1.
         22    1    1    2    0    0  0.31478975287E+00  0.22436480982E+00  0.30356278937E+01  0.30601419682E+01  0.00000000000E+00 0. -1.
</event>
<event>
 5    1  0.8240609E+001  0.1599674E+01  0.7818608E-02  0.3353718E+00
         11   -1    0    0    0    0  0.00000000000E+00  0.00000000000E+00  0.39999999674E+01  0.40000000000E+01  0.51100000000E-03 0.  1.
    9000002   -1    0    0    0    0 -0.00000000000E+00 -0.00000000000E+00  0.00000000000E+00  0.93800000000E+00  0.93800000000E+00 0.  1.
         11    1    1    2    0    0  0.20569081399E+00 -0.14695757658E-01  0.12016884194E+01  0.12192538680E+01  0.51100000000E-03 0.  1.
    9000002    1    1    2    0    0 -0.63217551553E+00  0.50246652698E-01  0.28273804593E+00  0.11670284534E+01  0.93800000000E+00 0.  1.
         22    1    1    2    0    0  0.42648470154E+00 -0.35550895041E-01  0.25155735021E+01  0.25517176786E+01  0.00000000000E+00 0.  1.
</event>
<event>
 5    1  0.8240609E+001  0.1599676E+01  0.7818608E-02  0.3353715E+00
         11   -1    0    0    0    0  0.00000000000E+00  0.00000000000E+00  0.39999999674E+01  0.40000000000E+01  0.51100000000E-03 0. -1.
    9000002   -1    0    0    0    0 -0.00000000000E+00 -0.00000000000E+00  0.00000000000E+00  0.93800000000E+00  0.93800000000E+00 0. -1.
         11    1    1    2    0    0  0.44058714147E-01  0.11158021600E+00  0.12630557470E+01  0.12687400821E+01  0.51100000000E-03 0. -1.
    9000002    1    1    2    0    0 -0.13507789821E+00 -0.34858129496E+00  0.93964247224E-01  0.10141145091E+01  0.93800000000E+00 0. -1.
         22    1    1    2    0    0  0.91019184067E-01  0.23700107896E+00  0.26429799732E+01  0.26551454088E+01  0.00000000000E+00 0. -1.
</event>
<event>
 5    1  0.8240609E+001  0.1599614E+01  0.7818608E-02  0.3353783E+00
         11   -1    0    0    0    0  0.00000000000E+00  0.00000000000E+00  0.39999999674E+01  0.40000000000E+01  0.51100000000E-03 0.  1.
    9000002   -1    0    0    0    0 -0.00000000000E+00 -0.00000000000E+00  0.00000000000E+00  0.93800000000E+00  0.93800000000E+00 0. -1.
         11    1    1    2    0    0 -0.23984457280E-01 -0.10569061821E+00  0.10165438533E+01  0.10223049583E+01  0.51100000000E-03 0.  1.
    9000002    1    1    2    0    0  0.10981068461E+00  0.42847316266E+00  0.13278642839E+00  0.10455256444E+01  0.93800000000E+00 0. -1.
         22    1    1    2    0    0 -0.85826227327E-01 -0.32278254444E+00  0.28506696856E+01  0.28701693973E+01  0.00000000000E+00 0.  1.
</event>
<event>
 5    1  0.8240609E+001  0.1599521E+01  0.7818608E-02  0.3353883E+00
         11   -1    0    0    0    0  0.00000000000E+00  0.00000000000E+00  0.39999999674E+01  0.40000000000E+01  0.51100000000E-03 0.  1.
    9000002   -1    0    0    0    0 -0.00000000000E+00 -0.00000000000E+00  0.00000000000E+00  0.93800000000E+00  0.93800000000E+00 0. -1.
         11    1    1    2    0    0  0.24492690028E+00  0.14478760721E+00  0.67759850670E+00  0.73490995033E+00  0.51100000000E-03 0.  1.
    9000002    1    1    2    0    0 -0.97278480483E+00 -0.59177155439E+00  0.11554595269E+01  0.18738822181E+01  0.93800000000E+00 0. -1.
         22    1    1    2    0    0  0.72785790455E+00  0.44698394718E+00  0.21669419338E+01  0.23292078316E+01  0.00000000000E+00 0.  1.
</event>
<event>
 5    1  0.8840705E+001  0.1515637E+01  0.7818608E-02  0.3450347E+00
         11   -1    0    0    0    0  0.00000000000E+00  0.00000000000E+00  0.39999999674E+01  0.40000000000E+01  0.51100000000E-03 0.  1.
    9000002   -1    0    0    0    0 -0.00000000000E+00 -0.00000000000E+00  0.00000000000E+00  0.93800000000E+00  0.93800000000E+00 0.  1.
         11    1    1    2    0    0 -0.23888421355E+00 -0.20960183749E+00  0.10323396958E+01  0.10801500389E+01  0.51100000000E-03 0.  1.
    9000002    1    1    2    0    0  0.19451041382E-01  0.31634149823E-01  0.64471601963E-01  0.94094614612E+00  0.93800000000E+00 0.  1.
         22    1    1    2    0    0  0.21943317217E+00  0.17796768766E+00  0.29031886696E+01  0.29169038150E+01  0.00000000000E+00 0.  1.
</event>
<event>
 5    1  0.8240609E+001  0.1599674E+01  0.7818608E-02  0.3353717E+00
         11   -1    0    0    0    0  0.00000000000E+00  0.00000000000E+00  0.39999999674E+01  0.40000000000E+01  0.51100000000E-03 0. -1.
    9000002   -1    0    0    0    0 -0.00000000000E+00 -0.00000000000E+00  0.00000000000E+00  0.93800000000E+00  0.93800000000E+00 0. -1.
         11    1    1    2    0    0  0.33609931732E-03  0.31573930934E-01  0.24948029421E+00  0.25147108064E+00  0.51100000000E-03 0.  1.
    9000002    1    1    2    0    0 -0.18205968620E-01 -0.48383012633E+00  0.16006065764E+00  0.10676546551E+01  0.93800000000E+00 0. -1.
         22    1    1    2    0    0  0.17869869303E-01  0.45225619539E+00  0.35904590155E+01  0.36188742643E+01  0.00000000000E+00 0. -1.
</event>
<event>
 5    1  0.8240609E+001  0.1599675E+01  0.7818608E-02  0.3353716E+00
         11   -1    0    0    0    0  0.00000000000E+00  0.00000000000E+00  0.39999999674E+01  0.40000000000E+01  0.51100000000E-03 0. -1.
    9000002   -1    0    0    0    0 -0.00000000000E+00 -0.00000000000E+00  0.00000000000E+00  0.93800000000E+00  0.93800000000E+00 0. -1.
         11    1    1    2    0    0  0.95938431648E-03  0.34213560061E-01  0.38246706089E+00  0.38399583578E+00  0.51100000000E-03 0. -1.
    9000002    1    1    2    0    0 -0.18084732813E-02 -0.35397932189E+00  0.84056657004E-01  0.10060885411E+01  0.93800000000E+00 0. -1.
         22    1    1    2    0    0  0.84908896486E-03  0.31976576183E+00  0.35334762495E+01  0.35479156231E+01  0.00000000000E+00 0. -1.
</event>
<event>
 5    1  0.8240609E+001  0.1599677E+01  0.7818608E-02  0.3353714E+00
         11   -1    0    0    0    0  0.00000000000E+00  0.00000000000E+00  0.39999999674E+01  0.40000000000E+01  0.51100000000E-03 0. -1.
    9000002   -1    0    0    0    0 -0.00000000000E+00 -0.00000000000E+00  0.00000000000E+00  0.93800000000E+00  0.93800000000E+00 0.  1.
         11    1    1    2    0    0  0.95742057124E-01  0.29428307388E-01  0.10923201631E+01  0.10969029887E+01  0.51100000000E-03 0.  1.
    9000002    1    1    2    0    0 -0.34233411310E+00 -0.10498631441E+00  0.86046950300E-01  0.10077017658E+01  0.93800000000E+00 0.  1.
         22    1    1    2    0    0  0.24659205598E+00  0.75558007025E-01  0.28216328539E+01  0.28333952455E+01  0.00000000000E+00 0. -1.
</event>
<event>
 5    1  0.8240609E+001  0.1599663E+01  0.7818608E-02  0.3353729E+00
         11   -1    0    0    0    0  0.00000000000E+00  0.00000000000E+00  0.39999999674E+01  0.40000000000E+01  0.51100000000E-03 0.  1.
    9000002   -1    0    0    0    0 -0.00000000000E+00 -0.00000000000E+00  0.00000000000E+00  0.93800000000E+00  0.93800000000E+00 0. -1.
         11    1    1    2    0    0  0.36306719765E-01  0.54390214510E-01  0.62903869864E+00  0.63242898324E+00  0.51100000000E-03 0.  1.
    9000002    1    1    2    0    0 -0.20848680061E+00 -0.34880795680E+00  0.11148953630E+00  0.10283032887E+01  0.93800000000E+00 0. -1.
         22    1    1    2    0    0  0.17218008084E+00  0.29441774229E+00  0.32594717324E+01  0.32772677281E+01  0.00000000000E+00 0.  1.
</event>
<event>
 5    1  0.8240609E+001  0.1452434E+01  0.7818608E-02  0.3530948E+00
         11   -1    0    0    0    0  0.00000000000E+00  0.00000000000E+00  0.39999999674E+01  0.40000000000E+01  0.51100000000E-03 0.  1.
    9000002   -1    0    0    0    0 -0.00000000000E+00 -0.00000000000E+00  0.00000000000E+00  0.93800000000E+00  0.93800000000E+00 0.  1.
         11    1    1    2    0    0  0.25091673537E+00 -0.39601605136E+00  0.76130910212E+00  0.89408038292E+00  0.51100000000E-03 0.  1.
    9000002    1    1    2    0    0  0.10912248096E-02  0.48904473308E+00  0.30914063975E+00  0.11020788887E+01  0.93800000000E+00 0.  1.
         22    1    1    2    0    0 -0.25200796018E+00 -0.93028681719E-01  0.29295502255E+01  0.29418407284E+01  0.00000000000E+00 0.  1.
</event>
<event>
 5    1  0.8240609E+001  0.1599672E+01  0.7818608E-02  0.3353720E+00
         11   -1    0    0    0    0  0.00000000000E+00  0.00000000000E+00  0.39999999674E+01  0.40000000000E+01  0.51100000000E-03 0.  1.
    9000002   -1    0    0    0    0 -0.00000000000E+00 -0.00000000000E+00  0.00000000000E+00  0.93800000000E+00  0.93800000000E+00 0. -1.
         11    1    1    2    0    0 -0.80388117226E-01  0.19177446269E+00  0.13227051113E+01  0.13389506214E+01  0.51100000000E-03 0.  1.
    9000002    1    1    2    0    0  0.22405382305E+00 -0.55051347767E+00  0.24618293031E+00  0.11374160364E+01  0.93800000000E+00 0. -1.
         22    1    1    2    0    0 -0.14366570582E+00  0.35873901498E+00  0.24311119257E+01  0.24616333422E+01  0.00000000000E+00 0.  1.
</event>
<event>
 5    1  0.8240609E+001  0.1473981E+01  0.7818608E-02  0.3502629E+00
         11   -1    0    0    0    0  0.00000000000E+00  0.00000000000E+00  0.39999999674E+01  0.40000000000E+01  0.51100000000E-03 0.  1.
    9000002   -1    0    0    0    0 -0.00000000000E+00 -0.00000000000E+00  0.00000000000E+00  0.93800000000E+00  0.93800000000E+00 0. -1.
         11    1    1    2    0    0 -0.13016433401E+00  0.98039684255E-01  0.12207342033E+00  0.20360922034E+00  0.51100000000E-03 0.  1.
    9000002    1    1    2    0    0 -0.42638077006E-01  0.23781547231E+00  0.14147079512E+00  0.97889334984E+00  0.93800000000E+00 0. -1.
         22    1    1    2    0    0  0.17280241101E+00 -0.33585515656E+00  0.37364557519E+01  0.37554974298E+01  0.00000000000E+00 0.  1.
</event>
<event>
 5    1  0.8240609E+001  0.1590031E+01  0.7818608E-02  0.3364255E+00
         11   -1    0    0    0    0  0.00000000000E+00  0.00000000000E+00  0.39999999674E+01  0.40000000000E+01  0.51100000000E-03 0. -1.
    9000002   -1    0    0    0    0 -0.00000000000E+00 -0.00000000000E+00  0.00000000000E+00  0.93800000000E+00  0.93800000000E+00 0.  1.
         11    1    1    2    0    0 -0.15782797404E+00  0.40109258796E-02  0.13938745273E+01  0.14027873024E+01  0.51100000000E-03 0. -1.
    9000002    1    1    2    0    0  0.22515794356E+00 -0.24243057682E+00  0.80968988339E-01  0.99793219268E+00  0.93800000000E+00 0.  1.
         22    1    1    2    0    0 -0.67329969517E-01  0.23841965094E+00  0.25251564518E+01  0.25372805049E+01  0.00000000000E+00 0. -1.
</event>
<event>
 5    1  0.8240609E+001  0.1599673E+01  0.7818608E-02  0.3353718E+00
         11   -1    0    0    0    0  0.00000000000E+00  0.00000000000E+00  0.39999999674E+01  0.40000000000E+01  0.51100000000E-03 0. -1.
    9000002   -1    0    0    0    0 -0.00000000000E+00 -0.00000000000E+00  0.00000000000E+00  0.93800000000E+00  0.93800000000E+00 0.  1.
         11    1    1    2    0    0  0.16314316071E+00  0.61498404363E-01  0.13720280223E+01  0.13830614229E+01  0.51100000000E-03 0. -1.
    9000002    1    1    2    0    0 -0.45448919386E+00 -0.17782688649E+00  0.16273052385E+00  0.10698168312E+01  0.93800000000E+00 0.  1.
         22    1    1    2    0    0  0.29134603315E+00  0.11632848212E+00  0.24652414212E+01  0.24851217459E+01  0.00000000000E+00 0.  1.
</event>
<event>
 5    1  0.8240609E+001  0.1599617E+01  0.7818608E-02  0.3353780E+00
         11   -1    0    0    0    0  0.00000000000E+00  0.00000000000E+00  0.39999999674E+01  0.40000000000E+01  0.51100000000E-03 0.  1.
    9000002   -1    0    0    0    0 -0.00000000000E+00 -0.00000000000E+00  0.00000000000E+00  0.93800000000E+00  0.93800000000E+00 0. -1.
         11    1    1    2    0    0 -0.58924340496E-01  0.12730982182E+00  0.14723209326E+01  0.14789892016E+01  0.51100000000E-03 0.  1.
    9000002    1    1    2    0    0  0.13513258863E+00 -0.34914522757E+00  0.94293369897E-01  0.10143463147E+01  0.93800000000E+00 0. -1.
         22    1    1    2    0    0 -0.76208248131E-01  0.22183540575E+00  0.24333856648E+01  0.24446644838E+01  0.00000000000E+00 0.  1.
</event>
<event>
 5    1  0.8240609E+001  0.1585839E+01  0.7818608E-02  0.3368878E+00
         11   -1    0    0    0    0  0.00000000000E+00  0.00000000000E+00  0.39999999674E+01  0.40000000000E+01  0.51100000000E-03 0.  1.
    9000002   -1    0    0    0    0 -0.00000000000E+00 -0.00000000000E+00  0.00000000000E+00  0.93800000000E+00  0.93800000000E+00 0.  1.
         11    1    1    2    0    0  0.24094138098E+00 -0.20624027562E+00  0.11586509072E+01  0.12012743176E+01  0.51100000000E-03 0.  1.
    9000002    1    1    2    0    0 -0.35837611316E+00  0.54306982922E+00  0.31351526846E+00  0.11838471614E+01  0.93800000000E+00 0.  1.
         22    1    1    2    0    0  0.11743473218E+00 -0.33682955360E+00  0.25278337917E+01  0.25528785210E+01  0.00000000000E+00 0.  1.
</event>
<event>
 5    1  0.8240609E+001  0.1599677E+01  0.7818608E-02  0.3353714E+00
         11   -1    0    0    0    0  0.00000000000E+00  0.00000000000E+00  0.39999999674E+01  0.40000000000E+01  0.51100000000E-03 0.  1.
    9000002   -1    0    0    0    0 -0.00000000000E+00 -0.00000000000E+00  0.00000000000E+00  0.93800000000E+00  0.93800000000E+00 0.  1.
         11    1    1    2    0    0 -0.14618911961E+00  0.16124167444E-01  0.11974449116E+01  0.12064434611E+01  0.51100000000E-03 0.  1.
    9000002    1    1    2    0    0  0.46840113973E+00 -0.52391052394E-01  0.15136607673E+00  0.10606130959E+01  0.93800000000E+00 0.  1.
         22    1    1    2    0    0 -0.32221202012E+00  0.36266884951E-01  0.26511889790E+01  0.26709434429E+01  0.00000000000E+00 0.  1.
</event>
<event>
 5    1  0.8240609E+001  0.1599666E+01  0.7818608E-02  0.3353727E+00
         11   -1    0    0    0    0  0.00000000000E+00  0.00000000000E+00  0.39999999674E+01  0.40000000000E+01  0.51100000000E-03 0. -1.
    9000002   -1    0    0    0    0 -0.00000000000E+00 -0.00000000000E+00  0.00000000000E+00  0.93800000000E+00  0.93800000000E+00 0.  1.
         11    1    1    2    0    0  0.83260638802E-01  0.94990733457E-01  0.92304831829E+00  0.93165123970E+00  0.51100000000E-03 0. -1.
    9000002    1    1    2    0    0 -0.35410836079E+00 -0.38220991601E+00  0.18652695847E+00  0.10890883607E+01  0.93800000000E+00 0.  1.
         22    1    1    2    0    0  0.27084772199E+00  0.28721918255E+00  0.28904246906E+01  0.29172603996E+01  0.00000000000E+00 0. -1.
</event>
<event>
 5    1  0.8240609E+001  0.1597866E+01  0.7818608E-02  0.3355683E+00
         11   -1    0    0    0    0  0.00000000000E+00  0.00000000000E+00  0.39999999674E+01  0.40000000000E+01  0.51100000000E-03 0. -1.
    9000002   -1    0    0    0    0 -0.00000000000E+00 -0.00000000000E+00  0.00000000000E+00  0.93800000000E+00  0.93800000000E+00 0.  1.
         11    1    1    2    0    0  0.21893611897E-01 -0.32993763274E-01  0.23835801034E+00  0.24162516606E+00  0.51100000000E-03 0. -1.
    9000002    1    1    2    0    0 -0.34726249663E+00  0.13762168978E+00  0.95290786695E-01  0.10141278544E+01  0.93800000000E+00 0.  1.
         22    1    1    2    0    0  0.32536888473E+00 -0.10462792651E+00  0.36663511703E+01  0.36822469795E+01  0.00000000000E+00 0. -1.
</event>
<event>
 5    1  0.8240609E+001  0.1599671E+01  0.7818608E-02  0.3353721E+00
         11   -1    0    0    0    0  0.00000000000E+00  0.00000000000E+00  0.39999999674E+01  0.40000000000E+01  0.51100000000E-03 0. -1.
    9000002   -1    0    0    0    0 -0.00000000000E+00 -0.00000000000E+00  0.00000000000E+00  0.93800000000E+00  0.93800000000E+00 0.  1.
         11    1    1    2    0    0 -0.47446637094E-01  0.17063700407E+00  0.14459484448E+01  0.14567550709E+01  0.51100000000E-03 0. -1.
    9000002    1    1    2    0    0  0.12490297065E+00 -0.44699676821E+00  0.14661726848E+00  0.10567627389E+01  0.93800000000E+00 0.  1.
         22    1    1    2    0    0 -0.77456333560E-01  0.27635976414E+00  0.24074342541E+01  0.24244821902E+01  0.00000000000E+00 0. -1.
</event>
<event>
 5    1  0.8240609E+001  0.1599670E+01  0.7818608E-02  0.3353721E+00
         11   -1    0    0    0    0  0.00000000000E+00  0.00000000000E+00  0.39999999674E+01  0.40000000000E+01  0.51100000000E-03 0. -1.
    9000002   -1    0    0    0    0 -0.00000000000E+00 -0.00000000000E+00  0.00000000000E+00  0.93800000000E+00  0.93800000000E+00 0.  1.
         11    1    1    2    0    0 -0.28399726823E-01  0.13556411261E+00  0.13787797524E+01  0.13857193222E+01  0.51100000000E-03 0. -1.
    9000002    1    1    2    0    0  0.79530592688E-01 -0.39119253150E+00  0.10748383625E+00  0.10250626746E+01  0.93800000000E+00 0.  1.
         22    1    1    2    0    0 -0.51130865866E-01  0.25562841889E+00  0.25137363787E+01  0.25272180032E+01  0.00000000000E+00 0. -1.
</event>
<event>
 5    1  0.8240609E+001  0.1599314E+01  0.7818608E-02  0.3354108E+00
         11   -1    0    0    0    0  0.00000000000E+00  0.00000000000E+00  0.39999999674E+01  0.40000000000E+01  0.51100000000E-03 0.  1.
    9000002   -1    0    0    0    0 -0.00000000000E+00 -0.00000000000E+00  0.00000000000E+00  0.93800000000E+00  0.93800000000E+00 0. -1.
         11    1    1    2    0    0 -0.11577735261E+00 -0.14437208560E+00  0.11071047915E+01  0.11224655785E+01  0.51100000000E-03 0.  1.
    9000002    1    1    2    0    0  0.36148131622E+00  0.42958926387E+00  0.21854612281E+00  0.11148193062E+01  0.93800000000E+00 0. -1.
         22    1    1    2    0    0 -0.24570396361E+00 -0.28521717827E+00  0.26743490530E+01  0.27007151153E+01  0.00000000000E+00 0.  1.
</event>
<event>
 5    1  0.8240609E+001  0.1599616E+01  0.7818608E-02  0.3353780E+00
         11   -1    0    0    0    0  0.00000000000E+00  0.00000000000E+00  0.39999999674E+01  0.40000000000E+01  0.51100000000E-03 0. -1.
    9000002   -1    0    0    0    0 -0.00000000000E+00 -0.00000000000E+00  0.00000000000E+00  0.93800000000E+00  0.93800000000E+00 0.  1.
         11    1    1    2    0    0 -0.21856658330E-02  0.11910506408E-01  0.14165915556E+00  0.14217670264E+00  0.51100000000E-03 0. -1.
    9000002    1    1    2    0    0 -0.18149935288E-01 -0.38323071068E+00  0.99132973024E-01  0.10182664406E+01  0.93800000000E+00 0.  1.
         22    1    1    2    0    0  0.20335601121E-01  0.37132020427E+00  0.37592078388E+01  0.37775568567E+01  0.00000000000E+00 0. -1.
</event>
<event>
 5    1  0.8240609E+001  0.1599677E+01  0.7818608E-02  0.3353714E+00
         11   -1    0    0    0    0  0.00000000000E+00  0.00000000000E+00  0.39999999674E+01  0.40000000000E+01  0.51100000000E-03 0. -1.
    9000002   -1    0    0    0    0 -0.00000000000E+00 -0.00000000000E+00  0.00000000000E+00  0.93800000000E+00  0.93800000000E+00 0.  1.
         11    1    1    2    0    0 -0.13788843487E+00 -0.32951399672E-01  0.14395031087E+01  0.14464675857E+01  0.51100000000E-03 0. -1.
    9000002    1    1    2    0    0  0.37481235469E+00  0.89401491083E-01  0.99966313773E-01  0.10189770320E+01  0.93800000000E+00 0.  1.
         22    1    1    2    0    0 -0.23692391982E+00 -0.56450091410E-01  0.24605305448E+01  0.24725553823E+01  0.00000000000E+00 0. -1.
</event>
<event>
 5    1  0.8240609E+001  0.1599655E+01  0.7818608E-02  0.3353738E+00
         11   -1    0    0    0    0  0.00000000000E+00  0.00000000000E+00  0.39999999674E+01  0.40000000000E+01  0.51100000000E-03 0. -1.
    9000002   -1    0    0    0    0 -0.00000000000E+00 -0.00000000000E+00  0.00000000000E+00  0.93800000000E+00  0.93800000000E+00 0. -1.
         11    1    1    2    0    0  0.12997413734E+00  0.12958781905E-01  0.14172650129E+01  0.14232714374E+01  0.51100000000E-03 0. -1.
    9000002    1    1    2    0    0 -0.35845017473E+00 -0.50774737913E-01  0.88017008945E-01  0.10092846950E+01  0.93800000000E+00 0. -1.
         22    1    1    2    0    0  0.22847603739E+00  0.37815956008E-01  0.24947179455E+01  0.25054438676E+01  0.00000000000E+00 0. -1.
</event>
<event>
 5    1  0.8240609E+001  0.1589745E+01  0.7818608E-02  0.3364569E+00
         11   -1    0    0    0    0  0.00000000000E+00  0.00000000000E+00  0.39999999674E+01  0.40000000000E+01  0.51100000000E-03 0.  1.
    9000002   -1    0    0    0    0 -0.00000000000E+00 -0.00000000000E+00  0.00000000000E+00  0.93800000000E+00  0.93800000000E+00 0.  1.
         11    1    1    2    0    0 -0.10230494964E-01  0.33426540441E-01  0.10663856391E+01  0.10669585695E+01  0.51100000000E-03 0.  1.
    9000002    1    1    2    0    0 -0.12942217772E+00 -0.47027888238E+00  0.17143947728E+00  0.10710498689E+01  0.93800000000E+00 0.  1.
         22    1    1    2    0    0  0.13965267268E+00  0.43685234194E+00  0.27621748510E+01  0.27999915616E+01  0.00000000000E+00 0.  1.
</event>
<event>
 5    1  0.8240609E+001  0.1598462E+01  0.7818608E-02  0.3355035E+00
         11   -1    0    0    0    0  0.00000000000E+00  0.00000000000E+00  0.39999999674E+01  0.40000000000E+01  0.51100000000E-03 0.  1.
    9000002   -1    0    0    0    0 -0.00000000000E+00 -0.00000000000E+00  0.00000000000E+00  0.93800000000E+00  0.93800000000E+00 0. -1.
         11    1    1    2    0    0 -0.51840276700E-01 -0.41748611183E-01  0.39738547461E+00  0.40292162684E+00  0.51100000000E-03 0.  1.
    9000002    1    1    2    0    0  0.32654175712E+00  0.23495358754E+00  0.11020495295E+00  0.10265582492E+01  0.93800000000E+00 0. -1.
         22    1    1    2    0    0 -0.27470148042E+00 -0.19320497636E+00  0.34924095398E+01  0.35085201239E+01  0.00000000000E+00 0.  1.
</event>
<event>
 5    1  0.8240609E+001  0.1599570E+01  0.7818608E-02  0.3353830E+00
         11   -1    0    0    0    0  0.00000000000E+00  0.00000000000E+00  0.39999999674E+01  0.40000000000E+01  0.51100000000E-03 0. -1.
    9000002   -1    0    0    0    0 -0.00000000000E+00 -0.00000000000E+00  0.00000000000E+00  0.93800000000E+00  0.93800000000E+00 0. -1.
         11    1    1    2    0    0 -0.36712978328E-02  0.40596733785E-02  0.47688661430E-01  0.48004467768E-01  0.51100000000E-03 0. -1.
    9000002    1    1    2    0    0  0.46306594085E+00 -0.18741604288E+00  0.17091773418E+00  0.10763882713E+01  0.93800000000E+00 0. -1.
         22    1    1    2    0    0 -0.45939464302E+00  0.18335636950E+00  0.37813935718E+01  0.38136072609E+01  0.00000000000E+00 0. -1.
</event>
<event>
 5    1  0.8240609E+001  0.1568858E+01  0.7818608E-02  0.3387873E+00
         11   -1    0    0    0    0  0.00000000000E+00  0.00000000000E+00  0.39999999674E+01  0.40000000000E+01  0.51100000000E-03 0. -1.
    9000002   -1    0    0    0    0 -0.00000000000E+00 -0.00000000000E+00  0.00000000000E+00  0.93800000000E+00  0.93800000000E+00 0.  1.
         11    1    1    2    0    0 -0.34142607461E-01  0.10696668904E+00  0.26010163203E+00  0.28330321268E+00  0.51100000000E-03 0. -1.
    9000002    1    1    2    0    0 -0.28391270924E+00 -0.20240857042E+00  0.10673034609E+00  0.10063851264E+01  0.93800000000E+00 0.  1.
         22    1    1    2    0    0  0.31805531670E+00  0.95441881378E-01  0.36331679892E+01  0.36483116609E+01  0.00000000000E+00 0. -1.
</event>
<event>
 5    1  0.8240609E+001  0.1599676E+01  0.7818608E-02  0.3353716E+00
         11   -1    0    0    0    0  0.00000000000E+00  0.00000000000E+00  0.39999999674E+01  0.40000000000E+01  0.51100000000E-03 0.  1.
    9000002   -1    0    0    0    0 -0.00000000000E+00 -0.00000000000E+00  0.00000000000E+00  0.93800000000E+00  0.93800000000E+00 0.  1.
         11    1    1    2    0    0 -0.40083372643E-01 -0.34007888080E-01  0.50329844199E+00  0.50603635843E+00  0.51100000000E-03 0.  1.
    9000002    1    1    2    0    0  0.30311706779E+00  0.26125512959E+00  0.10801729066E+00  0.10254978960E+01  0.93800000000E+00 0.  1.
         22    1    1    2    0    0 -0.26303369514E+00 -0.22724724151E+00  0.33886842347E+01  0.34064657456E+01  0.00000000000E+00 0.  1.
</event>
<event>
 5    1  0.8240609E+001  0.1574618E+01  0.7818608E-02  0.3381382E+00
         11   -1    0    0    0    0  0.00000000000E+00  0.00000000000E+00  0.39999999674E+01  0.40000000000E+01  0.51100000000E-03 0. -1.
    9000002   -1    0    0    0    0 -0.00000000000E+00 -0.00000000000E+00  0.00000000000E+00  0.93800000000E+00  0.93800000000E+00 0.  1.
         11    1    1    2    0    0 -0.85802881552E-01 -0.10819432524E-01  0.86249615516E+00  0.86682124650E+00  0.51100000000E-03 0. -1.
    9000002    1    1    2    0    0  0.15369503941E+00 -0.61217052229E+00  0.30615023994E+00  0.11713013630E+01  0.93800000000E+00 0.  1.
         22    1    1    2    0    0 -0.67892157863E-01  0.62298995481E+00  0.28313535723E+01  0.28998773905E+01  0.00000000000E+00 0. -1.
</event>
<event>
 5    1  0.8240609E+001  0.1588728E+01  0.7818608E-02  0.3365690E+00
         11   -1    0    0    0    0  0.00000000000E+00  0.00000000000E+00  0.39999999674E+01  0.40000000000E+01  0.51100000000E-03 0. -1.
    9000002   -1    0    0    0    0 -0.00000000000E+00 -0.00000000000E+00  0.00000000000E+00  0.93800000000E+00  0.93800000000E+00 0. -1.
         11    1    1    2    0    0  0.97554565589E-02  0.54424011527E-01  0.11707480202E+01  0.11720530406E+01  0.51100000000E-03 0. -1.
    9000002    1    1    2    0    0  0.23598199736E+00  0.96236150849E-01  0.51593863918E-01  0.97337291240E+00  0.93800000000E+00 0. -1.
         22    1    1    2    0    0 -0.24573745392E+00 -0.15066016238E+00  0.27776580832E+01  0.27925740470E+01  0.00000000000E+00 0. -1.
</event>
<event>
 5    1  0.8862547E+001  0.1515313E+01  0.7818608E-02  0.3450741E+00
         11   -1    0    0    0    0  0.00000000000E+00  0.00000000000E+00  0.39999999674E+01  0.40000000000E+01  0.51100000000E-03 0.  1.
    9000002   -1    0    0    0    0 -0.00000000000E+00 -0.00000000000E+00  0.00000000000E+00  0.93800000000E+00  0.93800000000E+00 0. -1.
         11    1    1    2    0    0  0.23681343968E+00  0.16843252601E+00  0.86947246416E+00  0.91675119202E+00  0.51100000000E-03 0.  1.
    9000002    1    1    2    0    0 -0.16057630800E-01  0.32117159079E-01  0.64663213541E-01  0.94091162741E+00  0.93800000000E+00 0. -1.
         22    1    1    2    0    0 -0.22075580888E+00 -0.20054968508E+00  0.30658642897E+01  0.30803371806E+01  0.00000000000E+00 0.  1.
</event>
<event>
 5    1  0.8240609E+001  0.1556336E+01  0.7818608E-02  0.3402162E+00
         11   -1    0    0    0    0  0.00000000000E+00  0.00000000000E+00  0.39999999674E+01  0.40000000000E+01  0.51100000000E-03 0. -1.
    9000002   -1    0    0    0    0 -0.00000000000E+00 -0.00000000000E+00  0.00000000000E+00  0.93800000000E+00  0.93800000000E+00 0.  1.
         11    1    1    2    0    0  0.11766567479E+00  0.10951324386E+00  0.10457826947E+01  0.10580643021E+01  0.51100000000E-03 0. -1.
    9000002    1    1    2    0    0  0.37065425113E+00 -0.24040726246E+00  0.17059263564E+00  0.10507740352E+01  0.93800000000E+00 0.  1.
         22    1    1    2    0    0 -0.48831992592E+00  0.13089401860E+00  0.27836246370E+01  0.28291616627E+01  0.00000000000E+00 0. -1.
</event>
<event>
 5    1  0.8240609E+001  0.1599677E+01  0.7818608E-02  0.3353714E+00
         11   -1    0    0    0    0  0.00000000000E+00  0.00000000000E+00  0.39999999674E+01  0.40000000000E+01  0.51100000000E-03 0. -1.
    9000002   -1    0    0    0    0 -0.00000000000E+00 -0.00000000000E+00  0.00000000000E+00  0.93800000000E+00  0.93800000000E+00 0.  1.
         11    1    1    2    0    0  0.60527347937E-01  0.13024670781E+00  0.11137235966E+01  0.11229462478E+01  0.51100000000E-03 0. -1.
    9000002    1    1    2    0    0 -0.20875157642E+00 -0.44883804929E+00  0.16759913823E+00  0.10737626769E+01  0.93800000000E+00 0.  1.
         22    1    1    2    0    0  0.14822422848E+00  0.31859134148E+00  0.27186772326E+01  0.27412910753E+01  0.00000000000E+00 0. -1.
</event>
<event>
 5    1  0.8240609E+001  0.1599528E+01  0.7818608E-02  0.3353876E+00
         11   -1    0    0    0    0  0.00000000000E+00  0.00000000000E+00  0.39999999674E+01  0.40000000000E+01  0.51100000000E-03 0. -1.
    9000002   -1    0    0    0    0 -0.00000000000E+00 -0.00000000000E+00  0.00000000000E+00  0.93800000000E+00  0.93800000000E+00 0. -1.
         11    1    1    2    0    0 -0.12909719417E+00  0.81303800515E-01  0.13912895846E+01  0.13996297235E+01  0.51100000000E-03 0. -1.
    9000002    1    1    2    0    0  0.37017858587E+00 -0.18879947830E+00  0.11683798365E+00  0.10325563146E+01  0.93800000000E+00 0. -1.
         22    1    1    2    0    0 -0.24108139170E+00  0.10749567779E+00  0.24918723991E+01  0.25058139619E+01  0.00000000000E+00 0. -1.
</event>
<event>
 5    1  0.8240609E+001  0.1599615E+01  0.7818608E-02  0.3353781E+00
         11   -1    0    0    0    0  0.00000000000E+00  0.00000000000E+00  0.39999999674E+01  0.40000000000E+01  0.51100000000E-03 0.  1.
    9000002   -1    0    0    0    0 -0.00000000000E+00 -0.00000000000E+00  0.00000000000E+00  0.93800000000E+00  0.93800000000E+00 0.  1.
         11    1    1    2    0    0 -0.56457340533E-01  0.39267370784E-01  0.58371518549E+00  0.58775253006E+00  0.51100000000E-03 0.  1.
    9000002    1    1    2    0    0  0.41191776767E+00 -0.27553504039E+00  0.16805554965E+00  0.10740961193E+01  0.93800000000E+00 0.  1.
         22    1    1    2    0    0 -0.35546042713E+00  0.23626766961E+00  0.32482292322E+01  0.32761513506E+01  0.00000000000E+00 0.  1.
</event>
<event>
 5    1  0.8240609E+001  0.1599470E+01  0.7818608E-02  0.3353939E+00
         11   -1    0    0    0    0  0.00000000000E+00  0.00000000000E+00  0.39999999674E+01  0.40000000000E+01  0.51100000000E-03 0.  1.
    9000002   -1    0    0    0    0 -0.00000000000E+00 -0.00000000000E+00  0.00000000000E+00  0.93800000000E+00  0.93800000000E+00 0.  1.
         11    1    1    2    0    0 -0.25017401718E+00  0.11944657344E+00  0.14486198744E+01  0.14749082427E+01  0.51100000000E-03 0.  1.
    9000002    1    1    2    0    0  0.61882024836E+00 -0.34175404922E+00  0.35805248768E+00  0.12279169002E+01  0.93800000000E+00 0.  1.
         22    1    1    2    0    0 -0.36864623118E+00  0.22230747578E+00  0.21933276052E+01  0.22351748570E+01  0.00000000000E+00 0.  1.
</event>
<event>
 5    1  0.8240609E+001  0.1598376E+01  0.7818608E-02  0.3355128E+00
         11   -1    0    0    0    0  0.00000000000E+00  0.00000000000E+00  0.39999999674E+01  0.40000000000E+01  0.51100000000E-03 0. -1.
    9000002   -1    0    0    0    0 -0.00000000000E+00 -0.00000000000E+00  0.00000000000E+00  0.93800000000E+00  0.93800000000E+00 0. -1.
         11    1    1    2    0    0 -0.58061074131E-02 -0.99358394990E-01  0.12713734473E+01  0.12752633082E+01  0.51100000000E-03 0. -1.
    9000002    1    1    2    0    0 -0.28807200041E-01  0.41909571708E+00  0.12044883096E+00  0.10348057768E+01  0.93800000000E+00 0. -1.
         22    1    1    2    0    0  0.34613307454E-01 -0.31973732209E+00  0.26081776891E+01  0.26279309150E+01  0.00000000000E+00 0. -1.
</event>
<event>
 5    1  0.8240609E+001  0.1599669E+01  0.7818608E-02  0.3353722E+00
         11   -1    0    0    0    0  0.00000000000E+00  0.00000000000E+00  0.39999999674E+01  0.40000000000E+01  0.51100000000E-03 0. -1.
    9000002   -1    0    0    0    0 -0.00000000000E+00 -0.00000000000E+00  0.00000000000E+00  0.93800000000E+00  0.93800000000E+00 0. -1.
         11    1    1    2    0    0  0.69929957180E-01  0.52308232180E-01  0.61748952899E+00  0.62363445190E+00  0.51100000000E-03 0. -1.
    9000002    1    1    2    0    0 -0.43722962254E+00 -0.33381978993E+00  0.20902071816E+00  0.11073116344E+01  0.93800000000E+00 0. -1.
         22    1    1    2    0    0  0.36729966536E+00  0.28151155775E+00  0.31734897202E+01  0.32070539137E+01  0.00000000000E+00 0. -1.
</event>
<event>
 5    1  0.8240609E+001  0.1599651E+01  0.7818608E-02  0.3353742E+00
         11   -1    0    0    0    0  0.00000000000E+00  0.00000000000E+00  0.39999999674E+01  0.40000000000E+01  0.51100000000E-03 0. -1.
    9000002   -1    0    0    0    0 -0.00000000000E+00 -0.00000000000E+00  0.00000000000E+00  0.93800000000E+00  0.93800000000E+00 0.  1.
         11    1    1    2    0    0  0.54500030350E-01 -0.10857449110E+00  0.11215587899E+01  0.11281192552E+01  0.51100000000E-03 0. -1.
    9000002    1    1    2    0    0 -0.19601117228E+00  0.35855987412E+00  0.11278300090E+00  0.10293442419E+01  0.93800000000E+00 0.  1.
         22    1    1    2    0    0  0.14151114193E+00 -0.24998538302E+00  0.27656581765E+01  0.27805365030E+01  0.00000000000E+00 0. -1.
</event>
<event>
 5    1  0.8240609E+001  0.1549601E+01  0.7818608E-02  0.3409950E+00
         11   -1    0    0    0    0  0.00000000000E+00  0.00000000000E+00  0.39999999674E+01  0.40000000000E+01  0.51100000000E-03 0. -1.
    9000002   -1    0    0    0    0 -0.00000000000E+00 -0.00000000000E+00  0.00000000000E+00  0.93800000000E+00  0.93800000000E+00 0.  1.
         11    1    1    2    0    0  0.47289968632E+00 -0.13850150845E+00  0.11059326070E+01  0.12107452142E+01  0.51100000000E-03 0. -1.
    9000002    1    1    2    0    0 -0.69832928711E+00  0.28121692583E+00  0.47439934018E+00  0.12929212995E+01  0.93800000000E+00 0.  1.
         22    1    1    2    0    0  0.22542960079E+00 -0.14271541738E+00  0.24196680201E+01  0.24343334864E+01  0.00000000000E+00 0. -1.
</event>
<event>
 5    1  0.8240609E+001  0.1599669E+01  0.7818608E-02  0.3353722E+00
         11   -1    0    0    0    0  0.00000000000E+00  0.00000000000E+00  0.39999999674E+01  0.40000000000E+01  0.51100000000E-03 0.  1.
    9000002   -1    0    0    0    0 -0.00000000000E+00 -0.00000000000E+00  0.00000000000E+00  0.93800000000E+00  0.93800000000E+00 0. -1.
         11    1    1    2    0    0 -0.43912840920E-03 -0.57020799484E-02  0.34936969720E-01  0.35405642541E-01  0.51100000000E-03 0.  1.
    9000002    1    1    2    0    0  0.29542352289E-01  0.57652896002E+00  0.23142467856E+00  0.11254598057E+01  0.93800000000E+00 0. -1.
         22    1    1    2    0    0 -0.29103223880E-01 -0.57082688007E+00  0.37336383191E+01  0.37771345518E+01  0.00000000000E+00 0.  1.
</event>
<event>
 5    1  0.3291079E+002  0.1561179E+01  0.7818608E-02  0.3396607E+00
         11   -1    0    0    0    0  0.00000000000E+00  0.00000000000E+00  0.39999999674E+01  0.40000000000E+01  0.51100000000E-03 0. -1.
    9000002   -1    0    0    0    0 -0.00000000000E+00 -0.00000000000E+00  0.00000000000E+00  0.93800000000E+00  0.93800000000E+00 0.  1.
         11    1    1    2    0    0  0.12869244915E-01  0.21087462206E+00  0.12877163399E+01  0.13049319358E+01  0.51100000000E-03 0. -1.
    9000002    1    1    2    0    0  0.50863604970E-01  0.25768530733E-01  0.30621071450E-01  0.94023017049E+00  0.93800000000E+00 0.  1.
         22    1    1    2    0    0 -0.63732849885E-01 -0.23664315280E+00  0.26816625560E+01  0.26928378938E+01  0.00000000000E+00 0. -1.
</event>
<event>
 5    1  0.8240609E+001  0.1599675E+01  0.7818608E-02  0.3353716E+00
         11   -1    0    0    0    0  0.00000000000E+00  0.00000000000E+00  0.39999999674E+01  0.40000000000E+01  0.51100000000E-03 0.  1.
    9000002   -1    0    0    0    0 -0.00000000000E+00 -0.00000000000E+00  0.00000000000E+00  0.93800000000E+00  0.93800000000E+00 0. -1.
         11    1    1    2    0    0  0.18897385179E+00 -0.84015014873E-01  0.12923447926E+01  0.13087875929E+01  0.51100000000E-03 0.  1.
    9000002    1    1    2    0    0 -0.54561289709E+00  0.24096229403E+00  0.24802496009E+00  0.11389102868E+01  0.93800000000E+00 0. -1.
         22    1    1    2    0    0  0.35663904529E+00 -0.15694727916E+00  0.24596302147E+01  0.24903021203E+01  0.00000000000E+00 0.  1.
</event>
<event>
 5    1  0.8240609E+001  0.1527220E+01  0.7818608E-02  0.3436354E+00
         11   -1    0    0    0    0  0.00000000000E+00  0.00000000000E+00  0.39999999674E+01  0.40000000000E+01  0.51100000000E-03 0. -1.
    9000002   -1    0    0    0    0 -0.00000000000E+00 -0.00000000000E+00  0.00000000000E+00  0.93800000000E+00  0.93800000000E+00 0.  1.
         11    1    1    2    0    0  0.44951857417E+00 -0.26460964336E-01  0.12594091143E+01  0.13374897044E+01  0.51100000000E-03 0. -1.
    9000002    1    1    2    0    0 -0.63283630257E+00  0.68945747638E+00  0.81466430914E+00  0.15554277014E+01  0.93800000000E+00 0.  1.
         22    1    1    2    0    0  0.18331772840E+00 -0.66299651205E+00  0.19259265440E+01  0.20450825942E+01  0.00000000000E+00 0. -1.
</event>
<event>
 5    1  0.8240609E+001  0.1599434E+01  0.7818608E-02  0.3353978E+00
         11   -1    0    0    0    0  0.00000000000E+00  0.00000000000E+00  0.39999999674E+01  0.40000000000E+01  0.51100000000E-03 0.  1.
    9000002   -1    0    0    0    0 -0.00000000000E+00 -0.00000000000E+00  0.00000000000E+00  0.93800000000E+00  0.93800000000E+00 0.  1.
         11    1    1    2    0    0 -0.96176560703E-01  0.10281929084E+00  0.12511575210E+01  0.12590540659E+01  0.51100000000E-03 0.  1.
    9000002    1    1    2    0    0  0.28798561792E+00 -0.26666068746E+00  0.10400748594E+00  0.10221082112E+01  0.93800000000E+00 0.  1.
         22    1    1    2    0    0 -0.19180905722E+00  0.16384139662E+00  0.26448349604E+01  0.26568377229E+01  0.00000000000E+00 0. -1.
</event>
<event>
 5    1  0.8240609E+001  0.1599516E+01  0.7818608E-02  0.3353889E+00
         11   -1    0    0    0    0  0.00000000000E+00  0.00000000000E+00  0.39999999674E+01  0.40000000000E+01  0.51100000000E-03 0. -1.
    9000002   -1    0    0    0    0 -0.00000000000E+00 -0.00000000000E+00  0.00000000000E+00  0.93800000000E+00  0.93800000000E+00 0.  1.
         11    1    1    2    0    0 -0.13713998697E+00 -0.57263113938E-01  0.10903106938E+01  0.11003927073E+01  0.51100000000E-03 0. -1.
    9000002    1    1    2    0    0  0.46506985929E+00  0.24626595162E+00  0.19059312380E+00  0.10922942057E+01  0.93800000000E+00 0.  1.
         22    1    1    2    0    0 -0.32792987231E+00 -0.18900283768E+00  0.27190961498E+01  0.27453130870E+01  0.00000000000E+00 0. -1.
</event>
<event>
 5    1  0.8240609E+001  0.1599677E+01  0.7818608E-02  0.3353714E+00
         11   -1    0    0    0    0  0.00000000000E+00  0.00000000000E+00  0.39999999674E+01  0.40000000000E+01  0.51100000000E-03 0.  1.
    9000002   -1    0    0    0    0 -0.00000000000E+00 -0.00000000000E+00  0.00000000000E+00  0.93800000000E+00  0.93800000000E+00 0.  1.
         11    1    1    2    0    0 -0.15092053892E+00  0.51415254035E-01  0.12157982330E+01  0.12262080337E+01  0.51100000000E-03 0.  1.
    9000002    1    1    2    0    0  0.47409413732E+00 -0.16164997977E+00  0.17177832000E+00  0.10771479742E+01  0.93800000000E+00 0.  1.
         22    1    1    2    0    0 -0.32317359840E+00  0.11023472573E+00  0.26124234144E+01  0.26346439922E+01  0.00000000000E+00 0.  1.
</event>
<event>
 5    1  0.8240609E+001  0.1599642E+01  0.7818608E-02  0.3353752E+00
         11   -1    0    0    0    0  0.00000000000E+00  0.00000000000E+00  0.39999999674E+01  0.40000000000E+01  0.51100000000E-03 0.  1.
    9000002   -1    0    0    0    0 -0.00000000000E+00 -0.00000000000E+00  0.00000000000E+00  0.93800000000E+00  0.93800000000E+00 0.  1.
         11    1    1    2    0    0  0.11233413898E+00  0.45738925508E-01  0.12941265411E+01  0.12997979742E+01  0.51100000000E-03 0.  1.
    9000002    1    1    2    0    0 -0.34243985051E+00 -0.11823594335E+00  0.88150919093E-01  0.10093856419E+01  0.93800000000E+00 0.  1.
         22    1    1    2    0    0  0.23010571153E+00  0.72497017838E-01  0.26177225071E+01  0.26288163839E+01  0.00000000000E+00 0.  1.
</event>
<event>
 5    1  0.8240609E+001  0.1596668E+01  0.7818608E-02  0.3356988E+00
         11   -1    0    0    0    0  0.00000000000E+00  0.00000000000E+00  0.39999999674E+01  0.40000000000E+01  0.51100000000E-03 0. -1.
    9000002   -1    0    0    0    0 -0.00000000000E+00 -0.00000000000E+00  0.00000000000E+00  0.93800000000E+00  0.93800000000E+00 0.  1.
         11    1    1    2    0    0  0.79651413112E-02 -0.13970349895E-01  0.42283084696E-01  0.45240850177E-01  0.51100000000E-03 0. -1.
    9000002    1    1    2    0    0 -0.43882759910E+00  0.32729922166E-01  0.13391047169E+00  0.10447090140E+01  0.93800000000E+00 0.  1.
         22    1    1    2    0    0  0.43086245779E+00 -0.18759572271E-01  0.38238064110E+01  0.38480501358E+01  0.00000000000E+00 0. -1.
</event>
<event>
 5    1  0.8240609E+001  0.1599675E+01  0.7818608E-02  0.3353716E+00
         11   -1    0    0    0    0  0.00000000000E+00  0.00000000000E+00  0.39999999674E+01  0.40000000000E+01  0.51100000000E-03 0. -1.
    9000002   -1    0    0    0    0 -0.00000000000E+00 -0.00000000000E+00  0.00000000000E+00  0.93800000000E+00  0.93800000000E+00 0. -1.
         11    1    1    2    0    0 -0.87667574316E-01 -0.57192794887E-01  0.49991704957E+00  0.51075819812E+00  0.51100000000E-03 0. -1.
    9000002    1    1    2    0    0  0.63604982208E+00  0.41216327577E+00  0.41743604447E+00  0.12761405852E+01  0.93800000000E+00 0. -1.
         22    1    1    2    0    0 -0.54838224776E+00 -0.35497048088E+00  0.30826468733E+01  0.31511012166E+01  0.00000000000E+00 0. -1.
</event>
<event>
 5    1  0.8240609E+001  0.1598296E+01  0.7818608E-02  0.3355215E+00
         11   -1    0    0    0    0  0.00000000000E+00  0.00000000000E+00  0.39999999674E+01  0.40000000000E+01  0.51100000000E-03 0. -1.
    9000002   -1    0    0    0    0 -0.00000000000E+00 -0.00000000000E+00  0.00000000000E+00  0.93800000000E+00  0.93800000000E+00 0. -1.
         11    1    1    2    0    0 -0.68562968286E-01  0.59118947813E-02  0.55481543202E+00  0.55906730887E+00  0.51100000000E-03 0. -1.
    9000002    1    1    2    0    0  0.31841315553E+00 -0.18794459390E+00  0.92998177642E-01  0.10125229721E+01  0.93800000000E+00 0. -1.
         22    1    1    2    0    0 -0.24985018724E+00  0.18203269912E+00  0.33521863577E+01  0.33664097190E+01  0.00000000000E+00 0. -1.
</event>
<event>
 5    1  0.8240609E+001  0.1587338E+01  0.7818608E-02  0.3367222E+00
         11   -1    0    0    0    0  0.00000000000E+00  0.00000000000E+00  0.39999999674E+01  0.40000000000E+01  0.51100000000E-03 0.  1.
    9000002   -1    0    0    0    0 -0.00000000000E+00 -0.00000000000E+00  0.00000000000E+00  0.93800000000E+00  0.93800000000E+00 0.  1.
         11    1    1    2    0    0  0.12950770736E+00 -0.38774873517E-01  0.98608739780E+00  0.99531118466E+00  0.51100000000E-03 0.  1.
    9000002    1    1    2    0    0 -0.42820705206E+00 -0.29668756368E+00  0.19786678731E+00  0.10910453957E+01  0.93800000000E+00 0.  1.
         22    1    1    2    0    0  0.29869934469E+00  0.33546243720E+00  0.28160457822E+01  0.28516434197E+01  0.00000000000E+00 0.  1.
</event>
<event>
 5    1  0.1128086E+002  0.1589329E+01  0.7818608E-02  0.3365027E+00
         11   -1    0    0    0    0  0.00000000000E+00  0.00000000000E+00  0.39999999674E+01  0.40000000000E+01  0.51100000000E-03 0. -1.
    9000002   -1    0    0    0    0 -0.00000000000E+00 -0.00000000000E+00  0.00000000000E+00  0.93800000000E+00  0.93800000000E+00 0.  1.
         11    1    1    2    0    0  0.31770933893E-01 -0.41658447136E-01  0.13451099521E+01  0.13461299576E+01  0.51100000000E-03 0. -1.
    9000002    1    1    2    0    0  0.19386926477E+00 -0.61958161110E-01  0.35234062045E-01  0.96047360436E+00  0.93800000000E+00 0.  1.
         22    1    1    2    0    0 -0.22564019866E+00  0.10361660825E+00  0.26196559532E+01  0.26313964380E+01  0.00000000000E+00 0. -1.
</event>
<event>
 5    1  0.8240609E+001  0.1582709E+01  0.7818608E-02  0.3372347E+00
         11   -1    0    0    0    0  0.00000000000E+00  0.00000000000E+00  0.39999999674E+01  0.40000000000E+01  0.51100000000E-03 0.  1.
    9000002   -1    0    0    0    0 -0.00000000000E+00 -0.00000000000E+00  0.00000000000E+00  0.93800000000E+00  0.93800000000E+00 0. -1.
         11    1    1    2    0    0  0.91355427614E-01  0.19862267654E+00  0.11366532006E+01  0.11574875988E+01  0.51100000000E-03 0.  1.
    9000002    1    1    2    0    0 -0.39965715258E+00 -0.19588225732E+00  0.14919303345E+00  0.10489033605E+01  0.93800000000E+00 0. -1.
         22    1    1    2    0    0  0.30830172496E+00 -0.27404192204E-02  0.27141537333E+01  0.27316090408E+01  0.00000000000E+00 0.  1.
</event>
<event>
 5    1  0.8240609E+001  0.1599613E+01  0.7818608E-02  0.3353784E+00
         11   -1    0    0    0    0  0.00000000000E+00  0.00000000000E+00  0.39999999674E+01  0.40000000000E+01  0.51100000000E-03 0.  1.
    9000002   -1    0    0    0    0 -0.00000000000E+00 -0.00000000000E+00  0.00000000000E+00  0.93800000000E+00  0.93800000000E+00 0. -1.
         11    1    1    2    0    0  0.11631875007E+00 -0.44057334872E-01  0.97002449877E+00  0.97796671196E+00  0.51100000000E-03 0.  1.
    9000002    1    1    2    0    0 -0.43570914963E+00  0.19610317924E+00  0.15577478047E+00  0.10641469364E+01  0.93800000000E+00 0. -1.
         22    1    1    2    0    0  0.31939039956E+00 -0.15204584437E+00  0.28742006881E+01  0.28958863517E+01  0.00000000000E+00 0.  1.
</event>
<event>
 5    1  0.8240609E+001  0.1599647E+01  0.7818608E-02  0.3353746E+00
         11   -1    0    0    0    0  0.00000000000E+00  0.00000000000E+00  0.39999999674E+01  0.40000000000E+01  0.51100000000E-03 0. -1.
    9000002   -1    0    0    0    0 -0.00000000000E+00 -0.00000000000E+00  0.00000000000E+00  0.93800000000E+00  0.93800000000E+00 0.  1.
         11    1    1    2    0    0  0.11041279444E-01 -0.60459623807E-01  0.57254966778E+00  0.57583909138E+00  0.51100000000E-03 0. -1.
    9000002    1    1    2    0    0 -0.48068232649E-01  0.39461467913E+00  0.10658646094E+00  0.10243222021E+01  0.93800000000E+00 0.  1.
         22    1    1    2    0    0  0.37026953205E-01 -0.33415505532E+00  0.33208638386E+01  0.33378387066E+01  0.00000000000E+00 0. -1.
</event>
<event>
 5    1  0.8240609E+001  0.1594769E+01  0.7818608E-02  0.3359060E+00
         11   -1    0    0    0    0  0.00000000000E+00  0.00000000000E+00  0.39999999674E+01  0.40000000000E+01  0.51100000000E-03 0.  1.
    9000002   -1    0    0    0    0 -0.00000000000E+00 -0.00000000000E+00  0.00000000000E+00  0.93800000000E+00  0.93800000000E+00 0.  1.
         11    1    1    2    0    0  0.57972425515E-01  0.51962391912E-01  0.10620696615E+01  0.10649193018E+01  0.51100000000E-03 0.  1.
    9000002    1    1    2    0    0 -0.32905947118E+00  0.59806127689E-01  0.78801106536E-01  0.99895471513E+00  0.93800000000E+00 0.  1.
         22    1    1    2    0    0  0.27108704566E+00 -0.11176851960E+00  0.28591291993E+01  0.28741259831E+01  0.00000000000E+00 0.  1.
</event>
<event>
 5    1  0.8240609E+001  0.1560450E+01  0.7818608E-02  0.3397441E+00
         11   -1    0    0    0    0  0.00000000000E+00  0.00000000000E+00  0.39999999674E+01  0.40000000000E+01  0.51100000000E-03 0. -1.
    9000002   -1    0    0    0    0 -0.00000000000E+00 -0.00000000000E+00  0.00000000000E+00  0.93800000000E+00  0.93800000000E+00 0. -1.
         11    1    1    2    0    0 -0.23797583756E+00 -0.12322552543E-01  0.13702035199E+01  0.13907703950E+01  0.51100000000E-03 0. -1.
    9000002    1    1    2    0    0  0.83081723961E-01  0.29261581313E+00  0.93183773910E-01  0.99048160138E+00  0.93800000000E+00 0. -1.
         22    1    1    2    0    0  0.15489411360E+00 -0.28029326059E+00  0.25366126735E+01  0.25567480036E+01  0.00000000000E+00 0. -1.
</event>
<event>
 5    1  0.8240609E+001  0.1584999E+01  0.7818608E-02  0.3369808E+00
         11   -1    0    0    0    0  0.00000000000E+00  0.00000000000E+00  0.39999999674E+01  0.40000000000E+01  0.51100000000E-03 0. -1.
    9000002   -1    0    0    0    0 -0.00000000000E+00 -0.00000000000E+00  0.00000000000E+00  0.93800000000E+00  0.93800000000E+00 0.  1.
         11    1    1    2    0    0  0.11862482858E-01  0.50556175046E-01  0.19772325763E+00  0.20442943297E+00  0.51100000000E-03 0. -1.
    9000002    1    1    2    0    0  0.28535301019E+00  0.15593033848E+00  0.82453858961E-01  0.99618434526E+00  0.93800000000E+00 0.  1.
         22    1    1    2    0    0 -0.29721549305E+00 -0.20648651353E+00  0.37198228508E+01  0.37373862218E+01  0.00000000000E+00 0. -1.
</event>
<event>
 5    1  0.8240609E+001  0.1599348E+01  0.7818608E-02  0.3354071E+00
         11   -1    0    0    0    0  0.00000000000E+00  0.00000000000E+00  0.39999999674E+01  0.40000000000E+01  0.51100000000E-03 0. -1.
    9000002   -1    0    0    0    0 -0.00000000000E+00 -0.00000000000E+00  0.00000000000E+00  0.93800000000E+00  0.93800000000E+00 0. -1.
         11    1    1    2    0    0 -0.37332962862E-01 -0.75790653865E-02  0.44809525641E+00  0.44971192145E+00  0.51100000000E-03 0. -1.
    9000002    1    1    2    0    0  0.43764375287E+00  0.10067977350E+00  0.13723544122E+00  0.10489738021E+01  0.93800000000E+00 0. -1.
         22    1    1    2    0    0 -0.40031079001E+00 -0.93100708113E-01  0.34146692697E+01  0.34393142764E+01  0.00000000000E+00 0. -1.
</event>
<event>
 5    1  0.8240609E+001  0.1591166E+01  0.7818608E-02  0.3363008E+00
         11   -1    0    0    0    0  0.00000000000E+00  0.00000000000E+00  0.39999999674E+01  0.40000000000E+01  0.51100000000E-03 0. -1.
    9000002   -1    0    0    0    0 -0.00000000000E+00 -0.00000000000E+00  0.00000000000E+00  0.93800000000E+00  0.93800000000E+00 0.  1.
         11    1    1    2    0    0 -0.56276161891E-01 -0.38237689930E-01  0.25035683623E+00  0.25943772644E+00  0.51100000000E-03 0. -1.
    9000002    1    1    2    0    0  0.45377700684E+00 -0.15554143278E+00  0.16456961234E+00  0.10663179013E+01  0.93800000000E+00 0.  1.
         22    1    1    2    0    0 -0.39750084495E+00  0.19377912271E+00  0.35850735188E+01  0.36122443723E+01  0.00000000000E+00 0. -1.
</event>
<event>
 5    1  0.8240609E+001  0.1599676E+01  0.7818608E-02  0.3353715E+00
         11   -1    0    0    0    0  0.00000000000E+00  0.00000000000E+00  0.39999999674E+01  0.40000000000E+01  0.51100000000E-03 0.  1.
    9000002   -1    0    0    0    0 -0.00000000000E+00 -0.00000000000E+00  0.00000000000E+00  0.93800000000E+00  0.93800000000E+00 0. -1.
         11    1    1    2    0    0  0.38250310295E-01 -0.84048808434E-01  0.92133935016E+00  0.92595558625E+00  0.51100000000E-03 0.  1.
    9000002    1    1    2    0    0 -0.16648020471E+00  0.35427569724E+00  0.10324365719E+00  0.10216311374E+01  0.93800000000E+00 0. -1.
         22    1    1    2    0    0  0.12822989442E+00 -0.27022688880E+00  0.29754169600E+01  0.29904132763E+01  0.00000000000E+00 0.  1.
</event>
<event>
 5    1  0.8240609E+001  0.1511084E+01  0.7818608E-02  0.3455910E+00
         11   -1    0    0    0    0  0.00000000000E+00  0.00000000000E+00  0.39999999674E+01  0.40000000000E+01  0.51100000000E-03 0.  1.
    9000002   -1    0    0    0    0 -0.00000000000E+00 -0.00000000000E+00  0.00000000000E+00  0.93800000000E+00  0.93800000000E+00 0.  1.
         11    1    1    2    0    0  0.27656271931E+00  0.11833225391E+00  0.86789141115E+00  0.91854516639E+00  0.51100000000E-03 0.  1.
    9000002    1    1    2    0    0 -0.19428875407E+00  0.32518599866E+00  0.17315344406E+00  0.10263138744E+01  0.93800000000E+00 0.  1.
         22    1    1    2    0    0 -0.82273965238E-01 -0.44351825258E+00  0.29589551121E+01  0.29931409592E+01  0.00000000000E+00 0. -1.
</event>
<event>
 5    1  0.8240609E+001  0.1598929E+01  0.7818608E-02  0.3354526E+00
         11   -1    0    0    0    0  0.00000000000E+00  0.00000000000E+00  0.39999999674E+01  0.40000000000E+01  0.51100000000E-03 0. -1.
    9000002   -1    0    0    0    0 -0.00000000000E+00 -0.00000000000E+00  0.00000000000E+00  0.93800000000E+00  0.93800000000E+00 0.  1.
         11    1    1    2    0    0  0.62631942381E-02 -0.75459327916E-01  0.80323972861E+00  0.80680088034E+00  0.51100000000E-03 0. -1.
    9000002    1    1    2    0    0  0.94439275540E-01  0.39792158240E+00  0.11357838436E+00  0.10295651567E+01  0.93800000000E+00 0.  1.
         22    1    1    2    0    0 -0.10070246978E+00 -0.32246225448E+00  0.30831818544E+01  0.31016339630E+01  0.00000000000E+00 0. -1.
</event>
<event>
 5    1  0.8240609E+001  0.1599589E+01  0.7818608E-02  0.3353810E+00
         11   -1    0    0    0    0  0.00000000000E+00  0.00000000000E+00  0.39999999674E+01  0.40000000000E+01  0.51100000000E-03 0. -1.
    9000002   -1    0    0    0    0 -0.00000000000E+00 -0.00000000000E+00  0.00000000000E+00  0.93800000000E+00  0.93800000000E+00 0. -1.
         11    1    1    2    0    0 -0.60066996013E-01  0.19897523092E+00  0.13892034990E+01  0.14046657286E+01  0.51100000000E-03 0. -1.
    9000002    1    1    2    0    0  0.18313044467E+00 -0.55986693647E+00  0.24162136305E+00  0.11336721878E+01  0.93800000000E+00 0. -1.
         22    1    1    2    0    0 -0.12306344865E+00  0.36089170555E+00  0.23691751054E+01  0.23996620836E+01  0.00000000000E+00 0. -1.
</event>
<event>
 5    1  0.8240609E+001  0.1599671E+01  0.7818608E-02  0.3353720E+00
         11   -1    0    0    0    0  0.00000000000E+00  0.00000000000E+00  0.39999999674E+01  0.40000000000E+01  0.51100000000E-03 0. -1.
    9000002   -1    0    0    0    0 -0.00000000000E+00 -0.00000000000E+00  0.00000000000E+00  0.93800000000E+00  0.93800000000E+00 0.  1.
         11    1    1    2    0    0 -0.15094702000E+00  0.11512715855E+00  0.13999629832E+01  0.14127759486E+01  0.51100000000E-03 0. -1.
    9000002    1    1    2    0    0  0.40464414784E+00 -0.31694991797E+00  0.18129413882E+00  0.10848528479E+01  0.93800000000E+00 0.  1.
         22    1    1    2    0    0 -0.25369712784E+00  0.20182275942E+00  0.24187428453E+01  0.24403712035E+01  0.00000000000E+00 0. -1.
</event>
<event>
 5    1  0.8240609E+001  0.1594550E+01  0.7818608E-02  0.3359300E+00
         11   -1    0    0    0    0  0.00000000000E+00  0.00000000000E+00  0.39999999674E+01  0.40000000000E+01  0.51100000000E-03 0. -1.
    9000002   -1    0    0    0    0 -0.00000000000E+00 -0.00000000000E+00  0.00000000000E+00  0.93800000000E+00  0.93800000000E+00 0. -1.
         11    1    1    2    0    0  0.99541948368E-02  0.17899846325E-01  0.11341585614E+00  0.11525149907E+00  0.51100000000E-03 0. -1.
    9000002    1    1    2    0    0  0.30788280221E+00  0.13844892015E+00  0.80417349918E-01  0.10001354276E+01  0.93800000000E+00 0. -1.
         22    1    1    2    0    0 -0.31783699705E+00 -0.15634876648E+00  0.38061667613E+01  0.38226130733E+01  0.00000000000E+00 0. -1.
</event>
<event>
 5    1  0.8240609E+001  0.1498508E+01  0.7818608E-02  0.3471465E+00
         11   -1    0    0    0    0  0.00000000000E+00  0.00000000000E+00  0.39999999674E+01  0.40000000000E+01  0.51100000000E-03 0. -1.
    9000002   -1    0    0    0    0 -0.00000000000E+00 -0.00000000000E+00  0.00000000000E+00  0.93800000000E+00  0.93800000000E+00 0.  1.
         11    1    1    2    0    0  0.14374164576E-01 -0.11442603330E+00  0.68620147533E-01  0.13419731545E+00  0.51100000000E-03 0. -1.
    9000002    1    1    2    0    0 -0.10170951793E-01 -0.24146317576E+00  0.12022681952E+00  0.97606680183E+00  0.93800000000E+00 0.  1.
         22    1    1    2    0    0 -0.42032127829E-02  0.35588920906E+00  0.38111530003E+01  0.38277358827E+01  0.00000000000E+00 0. -1.
</event>
<event>
 5    1  0.8240609E+001  0.1599597E+01  0.7818608E-02  0.3353801E+00
         11   -1    0    0    0    0  0.00000000000E+00  0.00000000000E+00  0.39999999674E+01  0.40000000000E+01  0.51100000000E-03 0.  1.
    9000002   -1    0    0    0    0 -0.00000000000E+00 -0.00000000000E+00  0.00000000000E+00  0.93800000000E+00  0.93800000000E+00 0. -1.
         11    1    1    2    0    0  0.39416591576E-01  0.14265134398E+00  0.13932555547E+01  0.14010939924E+01  0.51100000000E-03 0.  1.
    9000002    1    1    2    0    0 -0.11383341598E+00 -0.42469415835E+00  0.13117394202E+00  0.10442096426E+01  0.93800000000E+00 0. -1.
         22    1    1    2    0    0  0.74416824404E-01  0.28204281437E+00  0.24755704706E+01  0.24926963649E+01  0.00000000000E+00 0. -1.
</event>
<event>
 5    1  0.8240609E+001  0.1599677E+01  0.7818608E-02  0.3353714E+00
         11   -1    0    0    0    0  0.00000000000E+00  0.00000000000E+00  0.39999999674E+01  0.40000000000E+01  0.51100000000E-03 0. -1.
    9000002   -1    0    0    0    0 -0.00000000000E+00 -0.00000000000E+00  0.00000000000E+00  0.93800000000E+00  0.93800000000E+00 0.  1.
         11    1    1    2    0    0 -0.78359070513E-01 -0.19960111636E+00  0.10548736648E+01  0.10764476110E+01  0.51100000000E-03 0. -1.
    9000002    1    1    2    0    0  0.26747259151E+00  0.68363373566E+00  0.38882744895E+00  0.12529674604E+01  0.93800000000E+00 0.  1.
         22    1    1    2    0    0 -0.18911352100E+00 -0.48403261931E+00  0.25562988536E+01  0.26085849286E+01  0.00000000000E+00 0. -1.
</event>
<event>
 5    1  0.8240609E+001  0.1548137E+01  0.7818608E-02  0.3411652E+00
         11   -1    0    0    0    0  0.00000000000E+00  0.00000000000E+00  0.39999999674E+01  0.40000000000E+01  0.51100000000E-03 0. -1.
    9000002   -1    0    0    0    0 -0.00000000000E+00 -0.00000000000E+00  0.00000000000E+00  0.93800000000E+00  0.93800000000E+00 0.  1.
         11    1    1    2    0    0  0.11827247372E+00  0.24657430590E+00  0.11516985702E+01  0.11837217258E+01  0.51100000000E-03 0. -1.
    9000002    1    1    2    0    0  0.15298190340E+00 -0.19660134963E+00  0.81684672581E-01  0.97394657922E+00  0.93800000000E+00 0.  1.
         22    1    1    2    0    0 -0.27125437712E+00 -0.49972956271E-01  0.27666167246E+01  0.27803316950E+01  0.00000000000E+00 0. -1.
</event>
<event>
 5    1  0.8240609E+001  0.1470920E+01  0.7818608E-02  0.3506596E+00
         11   -1    0    0    0    0  0.00000000000E+00  0.00000000000E+00  0.39999999674E+01  0.40000000000E+01  0.51100000000E-03 0.  1.
    9000002   -1    0    0    0    0 -0.00000000000E+00 -0.00000000000E+00  0.00000000000E+00  0.93800000000E+00  0.93800000000E+00 0. -1.
         11    1    1    2    0    0  0.20533417929E+00 -0.22419344107E+00  0.92388132898E-01  0.31774306039E+00  0.51100000000E-03 0.  1.
    9000002    1    1    2    0    0  0.27916818827E+00  0.10930575789E+01  0.22113078120E+01  0.26537588413E+01  0.93800000000E+00 0. -1.
         22    1    1    2    0    0 -0.48450236756E+00 -0.86886413784E+00  0.16963040225E+01  0.19664980984E+01  0.00000000000E+00 0.  1.
</event>
<event>
 5    1  0.8240609E+001  0.1599556E+01  0.7818608E-02  0.3353845E+00
         11   -1    0    0    0    0  0.00000000000E+00  0.00000000000E+00  0.39999999674E+01  0.40000000000E+01  0.51100000000E-03 0. -1.
    9000002   -1    0    0    0    0 -0.00000000000E+00 -0.00000000000E+00  0.00000000000E+00  0.93800000000E+00  0.93800000000E+00 0. -1.
         11    1    1    2    0    0 -0.82594727857E-02 -0.46288468498E-02  0.64418705603E-01  0.65112793416E-01  0.51100000000E-03 0. -1.
    9000002    1    1    2    0    0  0.30839747593E+00  0.35487791217E+00  0.15069708761E+00  0.10600004471E+01  0.93800000000E+00 0. -1.
         22    1    1    2    0    0 -0.30013800315E+00 -0.35024906532E+00  0.37848841741E+01  0.38128867594E+01  0.00000000000E+00 0. -1.
</event>
<event>
 5    1  0.8240609E+001  0.1599661E+01  0.7818608E-02  0.3353732E+00
         11   -1    0    0    0    0  0.00000000000E+00  0.00000000000E+00  0.39999999674E+01  0.40000000000E+01  0.51100000000E-03 0.  1.
    9000002   -1    0    0    0    0 -0.00000000000E+00 -0.00000000000E+00  0.00000000000E+00  0.93800000000E+00  0.93800000000E+00 0.  1.
         11    1    1    2    0    0  0.63140164724E-01 -0.98540570759E-01  0.89530274705E+00  0.90291981619E+00  0.51100000000E-03 0.  1.
    9000002    1    1    2    0    0 -0.28373986666E+00  0.43012352628E+00  0.18225032436E+00  0.10856213615E+01  0.93800000000E+00 0.  1.
         22    1    1    2    0    0  0.22059970194E+00 -0.33158295552E+00  0.29224468960E+01  0.29494588223E+01  0.00000000000E+00 0.  1.
</event>
<event>
 5    1  0.8240609E+001  0.1599676E+01  0.7818608E-02  0.3353715E+00
         11   -1    0    0    0    0  0.00000000000E+00  0.00000000000E+00  0.39999999674E+01  0.40000000000E+01  0.51100000000E-03 0.  1.
    9000002   -1    0    0    0    0 -0.00000000000E+00 -0.00000000000E+00  0.00000000000E+00  0.93800000000E+00  0.93800000000E+00 0.  1.
         11    1    1    2    0    0  0.10920203377E+00 -0.88402463455E-01  0.11222048445E+01  0.11309659826E+01  0.51100000000E-03 0.  1.
    9000002    1    1    2    0    0 -0.37454958436E+00  0.30507979483E+00  0.15930549848E+00  0.10670441951E+01  0.93800000000E+00 0.  1.
         22    1    1    2    0    0  0.26534755059E+00 -0.21667733138E+00  0.27184896244E+01  0.27399898223E+01  0.00000000000E+00 0.  1.
</event>
<event>
 5    1  0.8240609E+001  0.1599676E+01  0.7818608E-02  0.3353715E+00
         11   -1    0    0    0    0  0.00000000000E+00  0.00000000000E+00  0.39999999674E+01  0.40000000000E+01  0.51100000000E-03 0. -1.
    9000002   -1    0    0    0    0 -0.00000000000E+00 -0.00000000000E+00  0.00000000000E+00  0.93800000000E+00  0.93800000000E+00 0.  1.
         11    1    1    2    0    0  0.19076355813E+00  0.97247137817E-01  0.98089730485E+00  0.10039957792E+01  0.51100000000E-03 0. -1.
    9000002    1    1    2    0    0 -0.68925153889E+00 -0.35212171085E+00  0.43752102201E+00  0.12924109361E+01  0.93800000000E+00 0.  1.
         22    1    1    2    0    0  0.49848798075E+00  0.25487457303E+00  0.25815816405E+01  0.26415932846E+01  0.00000000000E+00 0. -1.
</event>
<event>
 5    1  0.8240609E+001  0.1596502E+01  0.7818608E-02  0.3357169E+00
         11   -1    0    0    0    0  0.00000000000E+00  0.00000000000E+00  0.39999999674E+01  0.40000000000E+01  0.51100000000E-03 0. -1.
    9000002   -1    0    0    0    0 -0.00000000000E+00 -0.00000000000E+00  0.00000000000E+00  0.93800000000E+00  0.93800000000E+00 0.  1.
         11    1    1    2    0    0  0.10559243377E-01 -0.16844196001E-01  0.57958600308E+00  0.57992708218E+00  0.51100000000E-03 0. -1.
    9000002    1    1    2    0    0 -0.37238616418E+00 -0.90669740424E-02  0.95872603525E-01  0.10137993990E+01  0.93800000000E+00 0.  1.
         22    1    1    2    0    0  0.36182692080E+00  0.25911170044E-01  0.33245413608E+01  0.33442735188E+01  0.00000000000E+00 0. -1.
</event>
<event>
 5    1  0.8240609E+001  0.1591414E+01  0.7818608E-02  0.3362735E+00
         11   -1    0    0    0    0  0.00000000000E+00  0.00000000000E+00  0.39999999674E+01  0.40000000000E+01  0.51100000000E-03 0.  1.
    9000002   -1    0    0    0    0 -0.00000000000E+00 -0.00000000000E+00  0.00000000000E+00  0.93800000000E+00  0.93800000000E+00 0. -1.
         11    1    1    2    0    0  0.71271461111E-01  0.11441809807E+00  0.58373363666E+00  0.59909627108E+00  0.51100000000E-03 0.  1.
    9000002    1    1    2    0    0 -0.33516044744E+00 -0.25327739802E+00  0.12636531016E+00  0.10355163724E+01  0.93800000000E+00 0. -1.
         22    1    1    2    0    0  0.26388898633E+00  0.13885929994E+00  0.32899010205E+01  0.33033873565E+01  0.00000000000E+00 0.  1.
</event>
<event>
 5    1  0.8240609E+001  0.1599662E+01  0.7818608E-02  0.3353730E+00
         11   -1    0    0    0    0  0.00000000000E+00  0.00000000000E+00  0.39999999674E+01  0.40000000000E+01  0.51100000000E-03 0.  1.
    9000002   -1    0    0    0    0 -0.00000000000E+00 -0.00000000000E+00  0.00000000000E+00  0.93800000000E+00  0.93800000000E+00 0. -1.
         11    1    1    2    0    0 -0.26174076113E-01 -0.39758439683E-01  0.39207337146E+00  0.39495266238E+00  0.51100000000E-03 0.  1.
    9000002    1    1    2    0    0  0.28346923777E+00  0.38852835122E+00  0.15786323550E+00  0.10658676698E+01  0.93800000000E+00 0. -1.
         22    1    1    2    0    0 -0.25729516166E+00 -0.34876991153E+00  0.34500633604E+01  0.34771796678E+01  0.00000000000E+00 0.  1.
</event>
<event>
 5    1  0.8240609E+001  0.1546601E+01  0.7818608E-02  0.3413442E+00
         11   -1    0    0    0    0  0.00000000000E+00  0.00000000000E+00  0.39999999674E+01  0.40000000000E+01  0.51100000000E-03 0.  1.
    9000002   -1    0    0    0    0 -0.00000000000E+00 -0.00000000000E+00  0.00000000000E+00  0.93800000000E+00  0.93800000000E+00 0.  1.
         11    1    1    2    0    0 -0.24254071064E+00 -0.32103965929E+00  0.34887943993E+00  0.53255007641E+00  0.51100000000E-03 0.  1.
    9000002    1    1    2    0    0  0.27018236402E+00 -0.45223541982E-02  0.27581232536E+00  0.10143645303E+01  0.93800000000E+00 0.  1.
         22    1    1    2    0    0 -0.27641653374E-01  0.32556201349E+00  0.33753082021E+01  0.33910853933E+01  0.00000000000E+00 0.  1.
</event>
<event>
 5    1  0.8240609E+001  0.1562647E+01  0.7818608E-02  0.3394930E+00
         11   -1    0    0    0    0  0.00000000000E+00  0.00000000000E+00  0.39999999674E+01  0.40000000000E+01  0.51100000000E-03 0.  1.
    9000002   -1    0    0    0    0 -0.00000000000E+00 -0.00000000000E+00  0.00000000000E+00  0.93800000000E+00  0.93800000000E+00 0. -1.
         11    1    1    2    0    0 -0.23126294099E+00  0.86311939689E-01  0.14696173866E+01  0.14902039535E+01  0.51100000000E-03 0.  1.
    9000002    1    1    2    0    0  0.14051472519E+00  0.13019283242E+00  0.52479393904E-01  0.95879750125E+00  0.93800000000E+00 0. -1.
         22    1    1    2    0    0  0.90748215798E-01 -0.21650477211E+00  0.24779031868E+01  0.24889985453E+01  0.00000000000E+00 0.  1.
</event>
<event>
 5    1  0.8240609E+001  0.1599677E+01  0.7818608E-02  0.3353714E+00
         11   -1    0    0    0    0  0.00000000000E+00  0.00000000000E+00  0.39999999674E+01  0.40000000000E+01  0.51100000000E-03 0. -1.
    9000002   -1    0    0    0    0 -0.00000000000E+00 -0.00000000000E+00  0.00000000000E+00  0.93800000000E+00  0.93800000000E+00 0. -1.
         11    1    1    2    0    0 -0.40542157519E-01 -0.88529513101E-01  0.86747965593E+00  0.87292746308E+00  0.51100000000E-03 0.  1.
    9000002    1    1    2    0    0  0.17997789728E+00  0.39420219790E+00  0.12723641383E+00  0.10410670110E+01  0.93800000000E+00 0. -1.
         22    1    1    2    0    0 -0.13943573976E+00 -0.30567268480E+00  0.30052838976E+01  0.30240055259E+01  0.00000000000E+00 0. -1.
</event>
<event>
 5    1  0.8240609E+001  0.1595882E+01  0.7818608E-02  0.3357845E+00
         11   -1    0    0    0    0  0.00000000000E+00  0.00000000000E+00  0.39999999674E+01  0.40000000000E+01  0.51100000000E-03 0. -1.
    9000002   -1    0    0    0    0 -0.00000000000E+00 -0.00000000000E+00  0.00000000000E+00  0.93800000000E+00  0.93800000000E+00 0. -1.
         11    1    1    2    0    0  0.52330915139E-01  0.82855416035E-01  0.10393452991E+01  0.10439551985E+01  0.51100000000E-03 0. -1.
    9000002    1    1    2    0    0 -0.33201911267E+00 -0.10568966979E+00  0.84449420046E-01  0.10041826039E+01  0.93800000000E+00 0. -1.
         22    1    1    2    0    0  0.27968819753E+00  0.22834253758E-01  0.28762052482E+01  0.28898621976E+01  0.00000000000E+00 0. -1.
</event>
<event>
 5    1  0.8240609E+001  0.1597604E+01  0.7818608E-02  0.3355968E+00
         11   -1    0    0    0    0  0.00000000000E+00  0.00000000000E+00  0.39999999674E+01  0.40000000000E+01  0.51100000000E-03 0. -1.
    9000002   -1    0    0    0    0 -0.00000000000E+00 -0.00000000000E+00  0.00000000000E+00  0.93800000000E+00  0.93800000000E+00 0.  1.
         11    1    1    2    0    0 -0.76417026905E-01  0.16037622055E+00  0.11476926065E+01  0.11613606995E+01  0.51100000000E-03 0. -1.
    9000002    1    1    2    0    0  0.19400806212E+00 -0.38356176763E+00  0.12688701579E+00  0.10395686954E+01  0.93800000000E+00 0.  1.
         22    1    1    2    0    0 -0.11759103521E+00  0.22318554708E+00  0.27254203451E+01  0.27370706051E+01  0.00000000000E+00 0. -1.
</event>
<event>
 5    1  0.8240609E+001  0.1595933E+01  0.7818608E-02  0.3357790E+00
         11   -1    0    0    0    0  0.00000000000E+00  0.00000000000E+00  0.39999999674E+01  0.40000000000E+01  0.51100000000E-03 0.  1.
    9000002   -1    0    0    0    0 -0.00000000000E+00 -0.00000000000E+00  0.00000000000E+00  0.93800000000E+00  0.93800000000E+00 0. -1.
         11    1    1    2    0    0 -0.38888022270E-01 -0.35992429824E-01  0.13447048346E+01  0.13457485228E+01  0.51100000000E-03 0.  1.
    9000002    1    1    2    0    0  0.30374975274E+00  0.29072176400E-01  0.65088370684E-01  0.98852900803E+00  0.93800000000E+00 0. -1.
         22    1    1    2    0    0 -0.26486173047E+00  0.69202534239E-02  0.25902067620E+01  0.26037224691E+01  0.00000000000E+00 0.  1.
</event>
<event>
 5    1  0.8240609E+001  0.1592797E+01  0.7818608E-02  0.3361218E+00
         11   -1    0    0    0    0  0.00000000000E+00  0.00000000000E+00  0.39999999674E+01  0.40000000000E+01  0.51100000000E-03 0.  1.
    9000002   -1    0    0    0    0 -0.00000000000E+00 -0.00000000000E+00  0.00000000000E+00  0.93800000000E+00  0.93800000000E+00 0. -1.
         11    1    1    2    0    0 -0.26582410747E-01 -0.45934634700E-02  0.87823624272E+00  0.87865060383E+00  0.51100000000E-03 0.  1.
    9000002    1    1    2    0    0 -0.14313383804E+00  0.28494341028E+00  0.73415130757E-01  0.99343536482E+00  0.93800000000E+00 0. -1.
         22    1    1    2    0    0  0.16971624879E+00 -0.28034994681E+00  0.30483485939E+01  0.30659140313E+01  0.00000000000E+00 0.  1.
</event>
<event>
 5    1  0.8240609E+001  0.1599670E+01  0.7818608E-02  0.3353722E+00
         11   -1    0    0    0    0  0.00000000000E+00  0.00000000000E+00  0.39999999674E+01  0.40000000000E+01  0.51100000000E-03 0. -1.
    9000002   -1    0    0    0    0 -0.00000000000E+00 -0.00000000000E+00  0.00000000000E+00  0.93800000000E+00  0.93800000000E+00 0. -1.
         11    1    1    2    0    0  0.94452109421E-01  0.21534916782E+00  0.12852591851E+01  0.13065940070E+01  0.51100000000E-03 0. -1.
    9000002    1    1    2    0    0 -0.26399794261E+00 -0.62236756153E+00  0.32459845649E+00  0.12009348248E+01  0.93800000000E+00 0. -1.
         22    1    1    2    0    0  0.16954583319E+00  0.40701839372E+00  0.23901423257E+01  0.24304711683E+01  0.00000000000E+00 0. -1.
</event>
<event>
 5    1  0.8240609E+001  0.1594691E+01  0.7818608E-02  0.3359146E+00
         11   -1    0    0    0    0  0.00000000000E+00  0.00000000000E+00  0.39999999674E+01  0.40000000000E+01  0.51100000000E-03 0. -1.
    9000002   -1    0    0    0    0 -0.00000000000E+00 -0.00000000000E+00  0.00000000000E+00  0.93800000000E+00  0.93800000000E+00 0. -1.
         11    1    1    2    0    0  0.47564607909E-02 -0.58593447021E-02  0.53165533260E+00  0.53170914008E+00  0.51100000000E-03 0. -1.
    9000002    1    1    2    0    0  0.19902003529E+00  0.39903048104E+00  0.13926880870E+00  0.10478903093E+01  0.93800000000E+00 0. -1.
         22    1    1    2    0    0 -0.20377649608E+00 -0.39317113633E+00  0.33290758261E+01  0.33584005506E+01  0.00000000000E+00 0. -1.
</event>
<event>
 5    1  0.8240609E+001  0.1599622E+01  0.7818608E-02  0.3353774E+00
         11   -1    0    0    0    0  0.00000000000E+00  0.00000000000E+00  0.39999999674E+01  0.40000000000E+01  0.51100000000E-03 0.  1.
    9000002   -1    0    0    0    0 -0.00000000000E+00 -0.00000000000E+00  0.00000000000E+00  0.93800000000E+00  0.93800000000E+00 0. -1.
         11    1    1    2    0    0  0.20288802810E+00 -0.46487970027E-01  0.13202733897E+01  0.13365802512E+01  0.51100000000E-03 0.  1.
    9000002    1    1    2    0    0 -0.59871525940E+00  0.13217402343E+00  0.26308990613E+00  0.11510822008E+01  0.93800000000E+00 0. -1.
         22    1    1    2    0    0  0.39582723130E+00 -0.85686053400E-01  0.24166366716E+01  0.24503375480E+01  0.00000000000E+00 0.  1.
</event>
<event>
 5    1  0.8240609E+001  0.1599674E+01  0.7818608E-02  0.3353717E+00
         11   -1    0    0    0    0  0.00000000000E+00  0.00000000000E+00  0.39999999674E+01  0.40000000000E+01  0.51100000000E-03 0. -1.
    9000002   -1    0    0    0    0 -0.00000000000E+00 -0.00000000000E+00  0.00000000000E+00  0.93800000000E+00  0.93800000000E+00 0.  1.
         11    1    1    2    0    0  0.22340610388E-01 -0.80576879224E-02  0.20259181585E+00  0.20397973962E+00  0.51100000000E-03 0. -1.
    9000002    1    1    2    0    0 -0.41142559492E+00  0.15212754444E+00  0.13047169528E+00  0.10436860990E+01  0.93800000000E+00 0.  1.
         22    1    1    2    0    0  0.38908498454E+00 -0.14406985652E+00  0.36669364562E+01  0.36903341614E+01  0.00000000000E+00 0. -1.
</event>
<event>
 5    1  0.8240609E+001  0.1599677E+01  0.7818608E-02  0.3353714E+00
         11   -1    0    0    0    0  0.00000000000E+00  0.00000000000E+00  0.39999999674E+01  0.40000000000E+01  0.51100000000E-03 0.  1.
    9000002   -1    0    0    0    0 -0.00000000000E+00 -0.00000000000E+00  0.00000000000E+00  0.93800000000E+00  0.93800000000E+00 0.  1.
         11    1    1    2    0    0  0.67198902744E-01  0.28362511435E+00  0.14308554475E+01  0.14602419220E+01  0.51100000000E-03 0.  1.
    9000002    1    1    2    0    0 -0.17071032664E+00 -0.71577216582E+00  0.39088510090E+00  0.12546341981E+01  0.93800000000E+00 0.  1.
         22    1    1    2    0    0  0.10351142390E+00  0.43214705147E+00  0.21782594189E+01  0.22231238799E+01  0.00000000000E+00 0.  1.
</event>
<event>
 5    1  0.8240609E+001  0.1599590E+01  0.7818608E-02  0.3353809E+00
         11   -1    0    0    0    0  0.00000000000E+00  0.00000000000E+00  0.39999999674E+01  0.40000000000E+01  0.51100000000E-03 0.  1.
    9000002   -1    0    0    0    0 -0.00000000000E+00 -0.00000000000E+00  0.00000000000E+00  0.93800000000E+00  0.93800000000E+00 0. -1.
         11    1    1    2    0    0 -0.98013085455E-01 -0.15724247704E+00  0.14436857968E+01  0.14555276371E+01  0.51100000000E-03 0.  1.
    9000002    1    1    2    0    0  0.25912092941E+00  0.39029588308E+00  0.14955702958E+00  0.10590967083E+01  0.93800000000E+00 0. -1.
         22    1    1    2    0    0 -0.16110784396E+00 -0.23305340604E+00  0.24067571410E+01  0.24233756546E+01  0.00000000000E+00 0.  1.
</event>
<event>
 5    1  0.8240609E+001  0.1599677E+01  0.7818608E-02  0.3353714E+00
         11   -1    0    0    0    0  0.00000000000E+00  0.00000000000E+00  0.39999999674E+01  0.40000000000E+01  0.51100000000E-03 0. -1.
    9000002   -1    0    0    0    0 -0.00000000000E+00 -0.00000000000E+00  0.00000000000E+00  0.93800000000E+00  0.93800000000E+00 0.  1.
         11    1    1    2    0    0  0.12607479391E-01  0.52037312285E-01  0.57555718349E+00  0.57804252697E+00  0.51100000000E-03 0.  1.
    9000002    1    1    2    0    0 -0.84642976746E-01 -0.35446090660E+00  0.89193725170E-01  0.10102507057E+01  0.93800000000E+00 0.  1.
         22    1    1    2    0    0  0.72035497356E-01  0.30242359432E+00  0.33352490587E+01  0.33497067673E+01  0.00000000000E+00 0. -1.
</event>
<event>
 5    1  0.8240609E+001  0.1599534E+01  0.7818608E-02  0.3353870E+00
         11   -1    0    0    0    0  0.00000000000E+00  0.00000000000E+00  0.39999999674E+01  0.40000000000E+01  0.51100000000E-03 0.  1.
    9000002   -1    0    0    0    0 -0.00000000000E+00 -0.00000000000E+00  0.00000000000E+00  0.93800000000E+00  0.93800000000E+00 0. -1.
         11    1    1    2    0    0 -0.91380600660E-01 -0.15281920814E+00  0.13517976341E+01  0.13634739562E+01  0.51100000000E-03 0.  1.
    9000002    1    1    2    0    0  0.22028665631E+00  0.43485522525E+00  0.16245908773E+00  0.10695149522E+01  0.93800000000E+00 0. -1.
         22    1    1    2    0    0 -0.12890605565E+00 -0.28203601712E+00  0.24857432455E+01  0.25050110915E+01  0.00000000000E+00 0.  1.
</event>
<event>
 5    1  0.8240609E+001  0.1584822E+01  0.7818608E-02  0.3370003E+00
         11   -1    0    0    0    0  0.00000000000E+00  0.00000000000E+00  0.39999999674E+01  0.40000000000E+01  0.51100000000E-03 0.  1.
    9000002   -1    0    0    0    0 -0.00000000000E+00 -0.00000000000E+00  0.00000000000E+00  0.93800000000E+00  0.93800000000E+00 0.  1.
         11    1    1    2    0    0  0.52109382850E-01  0.53071598218E-01  0.32013298735E+00  0.32865996566E+00  0.51100000000E-03 0.  1.
    9000002    1    1    2    0    0 -0.27357070977E+00  0.26921175825E+00  0.11149200457E+00  0.10196030458E+01  0.93800000000E+00 0.  1.
         22    1    1    2    0    0  0.22146132692E+00 -0.32228335647E+00  0.35683749754E+01  0.35897369885E+01  0.00000000000E+00 0.  1.
</event>
<event>
 5    1  0.8240609E+001  0.1567351E+01  0.7818608E-02  0.3389581E+00
         11   -1    0    0    0    0  0.00000000000E+00  0.00000000000E+00  0.39999999674E+01  0.40000000000E+01  0.51100000000E-03 0. -1.
    9000002   -1    0    0    0    0 -0.00000000000E+00 -0.00000000000E+00  0.00000000000E+00  0.93800000000E+00  0.93800000000E+00 0.  1.
         11    1    1    2    0    0 -0.17464806667E+00 -0.12227255462E+00  0.26500746195E-01  0.21483732328E+00  0.51100000000E-03 0. -1.
    9000002    1    1    2    0    0 -0.16516187290E+00 -0.67509779958E-01  0.26036023503E+00  0.98968048715E+00  0.93800000000E+00 0.  1.
         22    1    1    2    0    0  0.33980993957E+00  0.18978233458E+00  0.37131389861E+01  0.37334821896E+01  0.00000000000E+00 0. -1.
</event>
<event>
 5    1  0.8240609E+001  0.1566442E+01  0.7818608E-02  0.3390611E+00
         11   -1    0    0    0    0  0.00000000000E+00  0.00000000000E+00  0.39999999674E+01  0.40000000000E+01  0.51100000000E-03 0. -1.
    9000002   -1    0    0    0    0 -0.00000000000E+00 -0.00000000000E+00  0.00000000000E+00  0.93800000000E+00  0.93800000000E+00 0. -1.
         11    1    1    2    0    0 -0.14175402442E+00  0.30346547713E-01  0.12332909118E+01  0.12417817242E+01  0.51100000000E-03 0. -1.
    9000002    1    1    2    0    0 -0.19606584935E+00 -0.13272139491E+00  0.62897677013E-01  0.96946217240E+00  0.93800000000E+00 0. -1.
         22    1    1    2    0    0  0.33781987377E+00  0.10237484719E+00  0.27038113786E+01  0.27267561034E+01  0.00000000000E+00 0. -1.
</event>
<event>
 5    1  0.8240609E+001  0.1599633E+01  0.7818608E-02  0.3353761E+00
         11   -1    0    0    0    0  0.00000000000E+00  0.00000000000E+00  0.39999999674E+01  0.40000000000E+01  0.51100000000E-03 0. -1.
    9000002   -1    0    0    0    0 -0.00000000000E+00 -0.00000000000E+00  0.00000000000E+00  0.93800000000E+00  0.93800000000E+00 0. -1.
         11    1    1    2    0    0  0.61603187810E-01 -0.27336480525E-01  0.74394781378E+00  0.74699454260E+00  0.51100000000E-03 0. -1.
    9000002    1    1    2    0    0 -0.35033084563E+00  0.16139157627E+00  0.10021029562E+00  0.10191491773E+01  0.93800000000E+00 0. -1.
         22    1    1    2    0    0  0.28872765782E+00 -0.13405509574E+00  0.31558418580E+01  0.31718562801E+01  0.00000000000E+00 0. -1.
</event>
<event>
 5    1  0.8240609E+001  0.1599677E+01  0.7818608E-02  0.3353714E+00
         11   -1    0    0    0    0  0.00000000000E+00  0.00000000000E+00  0.39999999674E+01  0.40000000000E+01  0.51100000000E-03 0.  1.
    9000002   -1    0    0    0    0 -0.00000000000E+00 -0.00000000000E+00  0.00000000000E+00  0.93800000000E+00  0.93800000000E+00 0.  1.
         11    1    1    2    0    0  0.72642467685E-01 -0.63204921683E-01  0.95044758281E+00  0.95531285924E+00  0.51100000000E-03 0. -1.
    9000002    1    1    2    0    0 -0.29995115725E+00  0.25953127042E+00  0.10607517819E+00  0.10239253491E+01  0.93800000000E+00 0.  1.
         22    1    1    2    0    0  0.22730868957E+00 -0.19632634874E+00  0.29434772064E+01  0.29587617917E+01  0.00000000000E+00 0.  1.
</event>
<event>
 5    1  0.8240609E+001  0.1599676E+01  0.7818608E-02  0.3353715E+00
         11   -1    0    0    0    0  0.00000000000E+00  0.00000000000E+00  0.39999999674E+01  0.40000000000E+01  0.51100000000E-03 0. -1.
    9000002   -1    0    0    0    0 -0.00000000000E+00 -0.00000000000E+00  0.00000000000E+00  0.93800000000E+00  0.93800000000E+00 0. -1.
         11    1    1    2    0    0  0.58530210289E-01 -0.16322543668E+00  0.14175591539E+01  0.14281255353E+01  0.51100000000E-03 0. -1.
    9000002    1    1    2    0    0 -0.15661386342E+00  0.44116905334E+00  0.14925818625E+00  0.10589051147E+01  0.93800000000E+00 0. -1.
         22    1    1    2    0    0  0.98083653131E-01 -0.27794361666E+00  0.24331826272E+01  0.24509693499E+01  0.00000000000E+00 0. -1.
</event>
<event>
 5    1  0.8240609E+001  0.1599529E+01  0.7818608E-02  0.3353875E+00
         11   -1    0    0    0    0  0.00000000000E+00  0.00000000000E+00  0.39999999674E+01  0.40000000000E+01  0.51100000000E-03 0. -1.
    9000002   -1    0    0    0    0 -0.00000000000E+00 -0.00000000000E+00  0.00000000000E+00  0.93800000000E+00  0.93800000000E+00 0.  1.
         11    1    1    2    0    0 -0.55875340930E-01 -0.77069008197E-01  0.96737616190E+00  0.97204865386E+00  0.51100000000E-03 0. -1.
    9000002    1    1    2    0    0  0.26776685321E+00  0.28268995410E+00  0.10225064622E+00  0.10207408547E+01  0.93800000000E+00 0.  1.
         22    1    1    2    0    0 -0.21189151228E+00 -0.20562094591E+00  0.29303731592E+01  0.29452104914E+01  0.00000000000E+00 0. -1.
</event>
<event>
 5    1  0.8240609E+001  0.1599672E+01  0.7818608E-02  0.3353719E+00
         11   -1    0    0    0    0  0.00000000000E+00  0.00000000000E+00  0.39999999674E+01  0.40000000000E+01  0.51100000000E-03 0. -1.
    9000002   -1    0    0    0    0 -0.00000000000E+00 -0.00000000000E+00  0.00000000000E+00  0.93800000000E+00  0.93800000000E+00 0.  1.
         11    1    1    2    0    0  0.19240994827E-01  0.12934102749E+00  0.12723579786E+01  0.12790599689E+01  0.51100000000E-03 0. -1.
    9000002    1    1    2    0    0 -0.51496419998E-01 -0.39454317939E+00  0.10676251703E+00  0.10244795931E+01  0.93800000000E+00 0.  1.
         22    1    1    2    0    0  0.32255425171E-01  0.26520215190E+00  0.26208794717E+01  0.26344604380E+01  0.00000000000E+00 0. -1.
</event>
<event>
 5    1  0.8240609E+001  0.1598609E+01  0.7818608E-02  0.3354874E+00
         11   -1    0    0    0    0  0.00000000000E+00  0.00000000000E+00  0.39999999674E+01  0.40000000000E+01  0.51100000000E-03 0.  1.
    9000002   -1    0    0    0    0 -0.00000000000E+00 -0.00000000000E+00  0.00000000000E+00  0.93800000000E+00  0.93800000000E+00 0. -1.
         11    1    1    2    0    0 -0.29179380631E-01 -0.13292374092E+00  0.13482939009E+01  0.13551445906E+01  0.51100000000E-03 0.  1.
    9000002    1    1    2    0    0  0.17448406230E+00  0.32477610142E+00  0.92202621552E-01  0.10120620176E+01  0.93800000000E+00 0. -1.
         22    1    1    2    0    0 -0.14530468167E+00 -0.19185236049E+00  0.25595034449E+01  0.25707933918E+01  0.00000000000E+00 0. -1.
</event>
<event>
 5    1  0.8240609E+001  0.1585324E+01  0.7818608E-02  0.3369448E+00
         11   -1    0    0    0    0  0.00000000000E+00  0.00000000000E+00  0.39999999674E+01  0.40000000000E+01  0.51100000000E-03 0. -1.
    9000002   -1    0    0    0    0 -0.00000000000E+00 -0.00000000000E+00  0.00000000000E+00  0.93800000000E+00  0.93800000000E+00 0.  1.
         11    1    1    2    0    0 -0.10734348047E+00 -0.18942522204E-01  0.57375010543E+00  0.58401274519E+00  0.51100000000E-03 0. -1.
    9000002    1    1    2    0    0  0.65727770381E-01  0.33384736181E+00  0.89125015628E-01  0.10017791519E+01  0.93800000000E+00 0.  1.
         22    1    1    2    0    0  0.41615710086E-01 -0.31490483961E+00  0.33371248463E+01  0.33522081029E+01  0.00000000000E+00 0. -1.
</event>
<event>
 5    1  0.8240609E+001  0.1597416E+01  0.7818608E-02  0.3356173E+00
         11   -1    0    0    0    0  0.00000000000E+00  0.00000000000E+00  0.39999999674E+01  0.40000000000E+01  0.51100000000E-03 0. -1.
    9000002   -1    0    0    0    0 -0.00000000000E+00 -0.00000000000E+00  0.00000000000E+00  0.93800000000E+00  0.93800000000E+00 0. -1.
         11    1    1    2    0    0  0.69866770624E-01 -0.18483508374E-01  0.10311779793E+01  0.10337075466E+01  0.51100000000E-03 0. -1.
    9000002    1    1    2    0    0 -0.25472382785E+00  0.26117795008E+00  0.91233235178E-01  0.10105768913E+01  0.93800000000E+00 0. -1.
         22    1    1    2    0    0  0.18485705723E+00 -0.24269444171E+00  0.28775887529E+01  0.28937155621E+01  0.00000000000E+00 0. -1.
</event>
<event>
 5    1  0.8240609E+001  0.1587357E+01  0.7818608E-02  0.3367202E+00
         11   -1    0    0    0    0  0.00000000000E+00  0.00000000000E+00  0.39999999674E+01  0.40000000000E+01  0.51100000000E-03 0. -1.
    9000002   -1    0    0    0    0 -0.00000000000E+00 -0.00000000000E+00  0.00000000000E+00  0.93800000000E+00  0.93800000000E+00 0. -1.
         11    1    1    2    0    0  0.86697300705E-01 -0.10487620164E+00  0.82002143806E+00  0.83123453948E+00  0.51100000000E-03 0. -1.
    9000002    1    1    2    0    0  0.84172142570E-01  0.35022889940E+00  0.97146363223E-01  0.10094684975E+01  0.93800000000E+00 0. -1.
         22    1    1    2    0    0 -0.17086944328E+00 -0.24535269776E+00  0.30828321661E+01  0.30972969630E+01  0.00000000000E+00 0. -1.
</event>
<event>
 5    1  0.8240609E+001  0.1592303E+01  0.7818608E-02  0.3361760E+00
         11   -1    0    0    0    0  0.00000000000E+00  0.00000000000E+00  0.39999999674E+01  0.40000000000E+01  0.51100000000E-03 0. -1.
    9000002   -1    0    0    0    0 -0.00000000000E+00 -0.00000000000E+00  0.00000000000E+00  0.93800000000E+00  0.93800000000E+00 0.  1.
         11    1    1    2    0    0  0.20115793986E+00  0.54206573947E-01  0.12883968400E+01  0.13051320040E+01  0.51100000000E-03 0. -1.
    9000002    1    1    2    0    0 -0.43604999051E+00  0.78059606020E-01  0.13950227381E+00  0.10466794068E+01  0.93800000000E+00 0.  1.
         22    1    1    2    0    0  0.23489205066E+00 -0.13226617997E+00  0.25721008536E+01  0.25861885892E+01  0.00000000000E+00 0.  1.
</event>
<event>
 5    1  0.8240609E+001  0.1599611E+01  0.7818608E-02  0.3353786E+00
         11   -1    0    0    0    0  0.00000000000E+00  0.00000000000E+00  0.39999999674E+01  0.40000000000E+01  0.51100000000E-03 0. -1.
    9000002   -1    0    0    0    0 -0.00000000000E+00 -0.00000000000E+00  0.00000000000E+00  0.93800000000E+00  0.93800000000E+00 0. -1.
         11    1    1    2    0    0  0.11500158880E+00 -0.92585326206E-01  0.13493679777E+01  0.13574209400E+01  0.51100000000E-03 0. -1.
    9000002    1    1    2    0    0 -0.30635530286E+00  0.27703596727E+00  0.11532678767E+00  0.10313809998E+01  0.93800000000E+00 0. -1.
         22    1    1    2    0    0  0.19135371407E+00 -0.18445064106E+00  0.25353052020E+01  0.25491980602E+01  0.00000000000E+00 0. -1.
</event>
<event>
 5    1  0.8240609E+001  0.1590622E+01  0.7818608E-02  0.3363605E+00
         11   -1    0    0    0    0  0.00000000000E+00  0.00000000000E+00  0.39999999674E+01  0.40000000000E+01  0.51100000000E-03 0. -1.
    9000002   -1    0    0    0    0 -0.00000000000E+00 -0.00000000000E+00  0.00000000000E+00  0.93800000000E+00  0.93800000000E+00 0. -1.
         11    1    1    2    0    0 -0.17876819985E+00  0.49362983682E-01  0.82266422465E+00  0.84330982508E+00  0.51100000000E-03 0. -1.
    9000002    1    1    2    0    0  0.39387808376E+00 -0.28258544463E+00  0.16855643920E+00  0.10692285778E+01  0.93800000000E+00 0. -1.
         22    1    1    2    0    0 -0.21510988391E+00  0.23322246094E+00  0.30087793035E+01  0.30254615971E+01  0.00000000000E+00 0. -1.
</event>
<event>
 5    1  0.8240609E+001  0.1534778E+01  0.7818608E-02  0.3427345E+00
         11   -1    0    0    0    0  0.00000000000E+00  0.00000000000E+00  0.39999999674E+01  0.40000000000E+01  0.51100000000E-03 0. -1.
    9000002   -1    0    0    0    0 -0.00000000000E+00 -0.00000000000E+00  0.00000000000E+00  0.93800000000E+00  0.93800000000E+00 0.  1.
         11    1    1    2    0    0 -0.15897524456E+00  0.34091954005E-01  0.65782708374E+00  0.67762240439E+00  0.51100000000E-03 0. -1.
    9000002    1    1    2    0    0 -0.39631228579E+00  0.59391801787E-01  0.16449826595E+00  0.10331962512E+01  0.93800000000E+00 0.  1.
         22    1    1    2    0    0  0.55528753035E+00 -0.93483755792E-01  0.31776746177E+01  0.32271813444E+01  0.00000000000E+00 0. -1.
</event>
<event>
 5    1  0.8240609E+001  0.1599664E+01  0.7818608E-02  0.3353728E+00
         11   -1    0    0    0    0  0.00000000000E+00  0.00000000000E+00  0.39999999674E+01  0.40000000000E+01  0.51100000000E-03 0. -1.
    9000002   -1    0    0    0    0 -0.00000000000E+00 -0.00000000000E+00  0.00000000000E+00  0.93800000000E+00  0.93800000000E+00 0. -1.
         11    1    1    2    0    0 -0.23869872666E-01  0.85182987799E-01  0.96501950295E+00  0.96906594947E+00  0.51100000000E-03 0. -1.
    9000002    1    1    2    0    0  0.11014485419E+00 -0.33837033242E+00  0.84970065860E-01  0.10068218725E+01  0.93800000000E+00 0. -1.
         22    1    1    2    0    0 -0.86274981520E-01  0.25318734462E+00  0.29500103986E+01  0.29621121781E+01  0.00000000000E+00 0. -1.
</event>
<event>
 5    1  0.8240609E+001  0.1599532E+01  0.7818608E-02  0.3353872E+00
         11   -1    0    0    0    0  0.00000000000E+00  0.00000000000E+00  0.39999999674E+01  0.40000000000E+01  0.51100000000E-03 0.  1.
    9000002   -1    0    0    0    0 -0.00000000000E+00 -0.00000000000E+00  0.00000000000E+00  0.93800000000E+00  0.93800000000E+00 0.  1.
         11    1    1    2    0    0 -0.51618884472E-01 -0.93169333524E-01  0.98032697712E+00  0.98609648470E+00  0.51100000000E-03 0.  1.
    9000002    1    1    2    0    0  0.24456924242E+00  0.33938385526E+00  0.11844570723E+00  0.10338611614E+01  0.93800000000E+00 0.  1.
         22    1    1    2    0    0 -0.19295035795E+00 -0.24621452174E+00  0.29012272830E+01  0.29180423539E+01  0.00000000000E+00 0.  1.
</event>
<event>
 5    1  0.8240609E+001  0.1536262E+01  0.7818608E-02  0.3425587E+00
         11   -1    0    0    0    0  0.00000000000E+00  0.00000000000E+00  0.39999999674E+01  0.40000000000E+01  0.51100000000E-03 0. -1.
    9000002   -1    0    0    0    0 -0.00000000000E+00 -0.00000000000E+00  0.00000000000E+00  0.93800000000E+00  0.93800000000E+00 0.  1.
         11    1    1    2    0    0  0.10304708666E+00 -0.89549616278E-01  0.14895846714E+00  0.20205623449E+00  0.51100000000E-03 0. -1.
    9000002    1    1    2    0    0 -0.43223669576E+00 -0.12411078180E+00  0.19432000468E+00  0.10582231861E+01  0.93800000000E+00 0.  1.
         22    1    1    2    0    0  0.32918960910E+00  0.21366039808E+00  0.36567214955E+01  0.36777205794E+01  0.00000000000E+00 0. -1.
</event>
<event>
 5    1  0.8240609E+001  0.1505294E+01  0.7818608E-02  0.3463036E+00
         11   -1    0    0    0    0  0.00000000000E+00  0.00000000000E+00  0.39999999674E+01  0.40000000000E+01  0.51100000000E-03 0.  1.
    9000002   -1    0    0    0    0 -0.00000000000E+00 -0.00000000000E+00  0.00000000000E+00  0.93800000000E+00  0.93800000000E+00 0. -1.
         11    1    1    2    0    0  0.75704364086E-01  0.16607113052E+00  0.25758888449E+00  0.31569457655E+00  0.51100000000E-03 0.  1.
    9000002    1    1    2    0    0 -0.62370609314E-01  0.16820628319E+00  0.95145610239E-01  0.95972919814E+00  0.93800000000E+00 0. -1.
         22    1    1    2    0    0 -0.13333754772E-01 -0.33427741371E+00  0.36472654726E+01  0.36625762253E+01  0.00000000000E+00 0.  1.
</event>
<event>
 5    1  0.8240609E+001  0.1598428E+01  0.7818608E-02  0.3355071E+00
         11   -1    0    0    0    0  0.00000000000E+00  0.00000000000E+00  0.39999999674E+01  0.40000000000E+01  0.51100000000E-03 0.  1.
    9000002   -1    0    0    0    0 -0.00000000000E+00 -0.00000000000E+00  0.00000000000E+00  0.93800000000E+00  0.93800000000E+00 0.  1.
         11    1    1    2    0    0  0.95219906171E-01  0.46097181615E-01  0.10014817486E+01  0.10070539879E+01  0.51100000000E-03 0.  1.
    9000002    1    1    2    0    0 -0.43264911031E+00 -0.49507646294E-01  0.12959466882E+00  0.10422451909E+01  0.93800000000E+00 0.  1.
         22    1    1    2    0    0  0.33742920414E+00  0.34104646788E-02  0.28689235500E+01  0.28887008212E+01  0.00000000000E+00 0.  1.
</event>
<event>
 5    1  0.8240609E+001  0.1427019E+01  0.7818608E-02  0.3565551E+00
         11   -1    0    0    0    0  0.00000000000E+00  0.00000000000E+00  0.39999999674E+01  0.40000000000E+01  0.51100000000E-03 0.  1.
    9000002   -1    0    0    0    0 -0.00000000000E+00 -0.00000000000E+00  0.00000000000E+00  0.93800000000E+00  0.93800000000E+00 0. -1.
         11    1    1    2    0    0 -0.37282770403E+00  0.48648465502E+00  0.13442816429E+01  0.14774170748E+01  0.51100000000E-03 0.  1.
    9000002    1    1    2    0    0 -0.14318829074E+00 -0.64203953018E+00  0.52044377421E+00  0.12583415145E+01  0.93800000000E+00 0. -1.
         22    1    1    2    0    0  0.51601599476E+00  0.15555487517E+00  0.21352745503E+01  0.22022414107E+01  0.00000000000E+00 0. -1.
</event>
<event>
 5    1  0.8240609E+001  0.1532402E+01  0.7818608E-02  0.3430167E+00
         11   -1    0    0    0    0  0.00000000000E+00  0.00000000000E+00  0.39999999674E+01  0.40000000000E+01  0.51100000000E-03 0.  1.
    9000002   -1    0    0    0    0 -0.00000000000E+00 -0.00000000000E+00  0.00000000000E+00  0.93800000000E+00  0.93800000000E+00 0.  1.
         11    1    1    2    0    0  0.47467278928E+00  0.51563949904E-01  0.13296466063E+01  0.14127750906E+01  0.51100000000E-03 0.  1.
    9000002    1    1    2    0    0 -0.49538757455E+00 -0.33036463377E+00  0.31706588920E+00  0.11553892930E+01  0.93800000000E+00 0.  1.
         22    1    1    2    0    0  0.20714785267E-01  0.27880068387E+00  0.23532874719E+01  0.23698356164E+01  0.00000000000E+00 0.  1.
</event>
<event>
 5    1  0.8240609E+001  0.1599664E+01  0.7818608E-02  0.3353728E+00
         11   -1    0    0    0    0  0.00000000000E+00  0.00000000000E+00  0.39999999674E+01  0.40000000000E+01  0.51100000000E-03 0.  1.
    9000002   -1    0    0    0    0 -0.00000000000E+00 -0.00000000000E+00  0.00000000000E+00  0.93800000000E+00  0.93800000000E+00 0. -1.
         11    1    1    2    0    0 -0.83991294245E-01 -0.68363812654E-02  0.65681299817E+00  0.66219698679E+00  0.51100000000E-03 0.  1.
    9000002    1    1    2    0    0  0.48336793364E+00  0.57465801252E-01  0.16186116500E+00  0.10691070640E+01  0.93800000000E+00 0. -1.
         22    1    1    2    0    0 -0.39937663940E+00 -0.50629419986E-01  0.31813258042E+01  0.32066959492E+01  0.00000000000E+00 0.  1.
</event>
<event>
 5    1  0.8240609E+001  0.1599670E+01  0.7818608E-02  0.3353722E+00
         11   -1    0    0    0    0  0.00000000000E+00  0.00000000000E+00  0.39999999674E+01  0.40000000000E+01  0.51100000000E-03 0. -1.
    9000002   -1    0    0    0    0 -0.00000000000E+00 -0.00000000000E+00  0.00000000000E+00  0.93800000000E+00  0.93800000000E+00 0. -1.
         11    1    1    2    0    0  0.29164592236E-01 -0.39619113682E-01  0.40241247050E+00  0.40540881237E+00  0.51100000000E-03 0. -1.
    9000002    1    1    2    0    0 -0.26283027032E+00  0.37202726080E+00  0.14104140502E+00  0.10522455568E+01  0.93800000000E+00 0. -1.
         22    1    1    2    0    0  0.23366567809E+00 -0.33240814712E+00  0.34565460918E+01  0.34803456309E+01  0.00000000000E+00 0. -1.
</event>
<event>
 5    1  0.8240609E+001  0.1584348E+01  0.7818608E-02  0.3370529E+00
         11   -1    0    0    0    0  0.00000000000E+00  0.00000000000E+00  0.39999999674E+01  0.40000000000E+01  0.51100000000E-03 0. -1.
    9000002   -1    0    0    0    0 -0.00000000000E+00 -0.00000000000E+00  0.00000000000E+00  0.93800000000E+00  0.93800000000E+00 0. -1.
         11    1    1    2    0    0 -0.22997314362E-01  0.12351271358E+00  0.78007048973E+00  0.79012308975E+00  0.51100000000E-03 0. -1.
    9000002    1    1    2    0    0 -0.33442834463E+00 -0.22480503717E+00  0.12246398504E+00  0.10282125510E+01  0.93800000000E+00 0. -1.
         22    1    1    2    0    0  0.35742565900E+00  0.10129232359E+00  0.30974654926E+01  0.31196643592E+01  0.00000000000E+00 0. -1.
</event>
<event>
 5    1  0.8240609E+001  0.1599201E+01  0.7818608E-02  0.3354231E+00
         11   -1    0    0    0    0  0.00000000000E+00  0.00000000000E+00  0.39999999674E+01  0.40000000000E+01  0.51100000000E-03 0.  1.
    9000002   -1    0    0    0    0 -0.00000000000E+00 -0.00000000000E+00  0.00000000000E+00  0.93800000000E+00  0.93800000000E+00 0.  1.
         11    1    1    2    0    0 -0.34964904526E-01  0.10641362893E-01  0.32358597007E+00  0.32564386114E+00  0.51100000000E-03 0.  1.
    9000002    1    1    2    0    0  0.39078238970E+00  0.43647207705E-01  0.10459568401E+00  0.10224481463E+01  0.93800000000E+00 0.  1.
         22    1    1    2    0    0 -0.35581748517E+00 -0.54288570598E-01  0.35718183133E+01  0.35899079925E+01  0.00000000000E+00 0.  1.
</event>
<event>
 5    1  0.8240609E+001  0.1599664E+01  0.7818608E-02  0.3353728E+00
         11   -1    0    0    0    0  0.00000000000E+00  0.00000000000E+00  0.39999999674E+01  0.40000000000E+01  0.51100000000E-03 0.  1.
    9000002   -1    0    0    0    0 -0.00000000000E+00 -0.00000000000E+00  0.00000000000E+00  0.93800000000E+00  0.93800000000E+00 0.  1.
         11    1    1    2    0    0 -0.10034594398E+00 -0.46493585905E-01  0.10383183972E+01  0.10441917051E+01  0.51100000000E-03 0.  1.
    9000002    1    1    2    0    0  0.36391468756E+00  0.18190183619E+00  0.11175771814E+00  0.10285212518E+01  0.93800000000E+00 0.  1.
         22    1    1    2    0    0 -0.26356874357E+00 -0.13540825028E+00  0.28499238521E+01  0.28652870431E+01  0.00000000000E+00 0.  1.
</event>
<event>
 5    1  0.8240609E+001  0.1536307E+01  0.7818608E-02  0.3425533E+00
         11   -1    0    0    0    0  0.00000000000E+00  0.00000000000E+00  0.39999999674E+01  0.40000000000E+01  0.51100000000E-03 0.  1.
    9000002   -1    0    0    0    0 -0.00000000000E+00 -0.00000000000E+00  0.00000000000E+00  0.93800000000E+00  0.93800000000E+00 0. -1.
         11    1    1    2    0    0  0.55800111443E-01 -0.12443221479E+00  0.15860563833E+00  0.20917226906E+00  0.51100000000E-03 0.  1.
    9000002    1    1    2    0    0  0.24631958070E+00  0.30989974558E+00  0.16024429928E+00  0.10306470897E+01  0.93800000000E+00 0. -1.
         22    1    1    2    0    0 -0.30211969215E+00 -0.18546753079E+00  0.36811500298E+01  0.36981806412E+01  0.00000000000E+00 0.  1.
</event>
<event>
 5    1  0.8240609E+001  0.1599665E+01  0.7818608E-02  0.3353727E+00
         11   -1    0    0    0    0  0.00000000000E+00  0.00000000000E+00  0.39999999674E+01  0.40000000000E+01  0.51100000000E-03 0.  1.
    9000002   -1    0    0    0    0 -0.00000000000E+00 -0.00000000000E+00  0.00000000000E+00  0.93800000000E+00  0.93800000000E+00 0. -1.
         11    1    1    2    0    0 -0.80913132566E-02 -0.24240043424E-01  0.17574608446E+00  0.17759503478E+00  0.51100000000E-03 0.  1.
    9000002    1    1    2    0    0  0.16695751985E+00  0.55552303757E+00  0.23379883697E+00  0.11273803949E+01  0.93800000000E+00 0. -1.
         22    1    1    2    0    0 -0.15886620660E+00 -0.53128299415E+00  0.35904550459E+01  0.36330245703E+01  0.00000000000E+00 0.  1.
</event>
<event>
 5    1  0.8240609E+001  0.1590551E+01  0.7818608E-02  0.3363683E+00
         11   -1    0    0    0    0  0.00000000000E+00  0.00000000000E+00  0.39999999674E+01  0.40000000000E+01  0.51100000000E-03 0. -1.
    9000002   -1    0    0    0    0 -0.00000000000E+00 -0.00000000000E+00  0.00000000000E+00  0.93800000000E+00  0.93800000000E+00 0.  1.
         11    1    1    2    0    0  0.15148258534E+00 -0.16549556730E-01  0.59732504918E+00  0.61645627337E+00  0.51100000000E-03 0. -1.
    9000002    1    1    2    0    0 -0.46737645954E+00 -0.89427641575E-01  0.16249554700E+00  0.10642776239E+01  0.93800000000E+00 0.  1.
         22    1    1    2    0    0  0.31589387420E+00  0.10597719831E+00  0.32401793712E+01  0.32572661027E+01  0.00000000000E+00 0. -1.
</event>
<event>
 5    1  0.8240609E+001  0.1582826E+01  0.7818608E-02  0.3372217E+00
         11   -1    0    0    0    0  0.00000000000E+00  0.00000000000E+00  0.39999999674E+01  0.40000000000E+01  0.51100000000E-03 0. -1.
    9000002   -1    0    0    0    0 -0.00000000000E+00 -0.00000000000E+00  0.00000000000E+00  0.93800000000E+00  0.93800000000E+00 0.  1.
         11    1    1    2    0    0 -0.14055729434E-01 -0.42858387953E-01  0.55765002827E+00  0.55947137559E+00  0.51100000000E-03 0. -1.
    9000002    1    1    2    0    0 -0.11582496673E+00 -0.43310912065E+00  0.15116367830E+00  0.10505681277E+01  0.93800000000E+00 0.  1.
         22    1    1    2    0    0  0.12988069616E+00  0.47596750860E+00  0.32911862608E+01  0.33279604967E+01  0.00000000000E+00 0. -1.
</event>
<event>
 5    1  0.8240609E+001  0.1518287E+01  0.7818608E-02  0.3447125E+00
         11   -1    0    0    0    0  0.00000000000E+00  0.00000000000E+00  0.39999999674E+01  0.40000000000E+01  0.51100000000E-03 0.  1.
    9000002   -1    0    0    0    0 -0.00000000000E+00 -0.00000000000E+00  0.00000000000E+00  0.93800000000E+00  0.93800000000E+00 0. -1.
         11    1    1    2    0    0  0.11386102724E+00 -0.29403079357E+00  0.92007425409E+00  0.97260235207E+00  0.51100000000E-03 0.  1.
    9000002    1    1    2    0    0  0.15777640875E+00  0.17802842481E+00  0.10221940073E+00  0.97307775696E+00  0.93800000000E+00 0. -1.
         22    1    1    2    0    0 -0.27163743600E+00  0.11600236875E+00  0.29777063125E+01  0.29923198910E+01  0.00000000000E+00 0.  1.
</event>
<event>
 5    1  0.8240609E+001  0.1524960E+01  0.7818608E-02  0.3439065E+00
         11   -1    0    0    0    0  0.00000000000E+00  0.00000000000E+00  0.39999999674E+01  0.40000000000E+01  0.51100000000E-03 0.  1.
    9000002   -1    0    0    0    0 -0.00000000000E+00 -0.00000000000E+00  0.00000000000E+00  0.93800000000E+00  0.93800000000E+00 0.  1.
         11    1    1    2    0    0  0.72023865749E-01  0.26577441417E+00  0.38955362274E+00  0.47704901486E+00  0.51100000000E-03 0.  1.
    9000002    1    1    2    0    0  0.39056104216E-01 -0.59589823388E+00  0.32695310345E+00  0.11590351230E+01  0.93800000000E+00 0.  1.
         22    1    1    2    0    0 -0.11107996996E+00  0.33012381971E+00  0.32834932412E+01  0.33019158622E+01  0.00000000000E+00 0.  1.
</event>
<event>
 5    1  0.8240609E+001  0.1599677E+01  0.7818608E-02  0.3353714E+00
         11   -1    0    0    0    0  0.00000000000E+00  0.00000000000E+00  0.39999999674E+01  0.40000000000E+01  0.51100000000E-03 0.  1.
    9000002   -1    0    0    0    0 -0.00000000000E+00 -0.00000000000E+00  0.00000000000E+00  0.93800000000E+00  0.93800000000E+00 0.  1.
         11    1    1    2    0    0  0.10635198034E+00  0.16802206543E-01  0.11913894749E+01  0.11962450418E+01  0.51100000000E-03 0.  1.
    9000002    1    1    2    0    0 -0.35035857176E+00 -0.54093385499E-01  0.84310244380E-01  0.10062949073E+01  0.93800000000E+00 0.  1.
         22    1    1    2    0    0  0.24400659141E+00  0.37291178956E-01  0.27243002481E+01  0.27354600509E+01  0.00000000000E+00 0.  1.
</event>
<event>
 5    1  0.8240609E+001  0.1598315E+01  0.7818608E-02  0.3355194E+00
         11   -1    0    0    0    0  0.00000000000E+00  0.00000000000E+00  0.39999999674E+01  0.40000000000E+01  0.51100000000E-03 0. -1.
    9000002   -1    0    0    0    0 -0.00000000000E+00 -0.00000000000E+00  0.00000000000E+00  0.93800000000E+00  0.93800000000E+00 0. -1.
         11    1    1    2    0    0 -0.92906796338E-02 -0.35697491018E-01  0.18262136885E+00  0.18631009923E+00  0.51100000000E-03 0. -1.
    9000002    1    1    2    0    0 -0.75441479568E-03  0.40811057940E+00  0.11360337102E+00  0.10292252135E+01  0.93800000000E+00 0. -1.
         22    1    1    2    0    0  0.10045094429E-01 -0.37241308838E+00  0.37037752275E+01  0.37224646873E+01  0.00000000000E+00 0. -1.
</event>
<event>
 5    1  0.8240609E+001  0.1599677E+01  0.7818608E-02  0.3353714E+00
         11   -1    0    0    0    0  0.00000000000E+00  0.00000000000E+00  0.39999999674E+01  0.40000000000E+01  0.51100000000E-03 0.  1.
    9000002   -1    0    0    0    0 -0.00000000000E+00 -0.00000000000E+00  0.00000000000E+00  0.93800000000E+00  0.93800000000E+00 0.  1.
         11    1    1    2    0    0 -0.30154240275E-01 -0.28096144178E-01  0.36068261059E+00  0.36303013405E+00  0.51100000000E-03 0. -1.
    9000002    1    1    2    0    0  0.32407276419E+00  0.30037627319E+00  0.13245322737E+00  0.10452927434E+01  0.93800000000E+00 0.  1.
         22    1    1    2    0    0 -0.29391852391E+00 -0.27228012901E+00  0.35068641294E+01  0.35296771225E+01  0.00000000000E+00 0.  1.
</event>
<event>
 5    1  0.8240609E+001  0.1599665E+01  0.7818608E-02  0.3353727E+00
         11   -1    0    0    0    0  0.00000000000E+00  0.00000000000E+00  0.39999999674E+01  0.40000000000E+01  0.51100000000E-03 0.  1.
    9000002   -1    0    0    0    0 -0.00000000000E+00 -0.00000000000E+00  0.00000000000E+00  0.93800000000E+00  0.93800000000E+00 0.  1.
         11    1    1    2    0    0 -0.12501939431E+00  0.52222285014E-01  0.13973484144E+01  0.14039016590E+01  0.51100000000E-03 0.  1.
    9000002    1    1    2    0    0  0.34757115956E+00 -0.15669504682E+00  0.97827876321E-01  0.10172380951E+01  0.93800000000E+00 0.  1.
         22    1    1    2    0    0 -0.22255176524E+00  0.10447276181E+00  0.25048236767E+01  0.25168602459E+01  0.00000000000E+00 0.  1.
</event>
<event>
 5    1  0.8240609E+001  0.1599076E+01  0.7818608E-02  0.3354367E+00
         11   -1    0    0    0    0  0.00000000000E+00  0.00000000000E+00  0.39999999674E+01  0.40000000000E+01  0.51100000000E-03 0.  1.
    9000002   -1    0    0    0    0 -0.00000000000E+00 -0.00000000000E+00  0.00000000000E+00  0.93800000000E+00  0.93800000000E+00 0. -1.
         11    1    1    2    0    0 -0.11218475643E+00 -0.66903980147E-01  0.89882124923E+00  0.90826288117E+00  0.51100000000E-03 0.  1.
    9000002    1    1    2    0    0  0.37347931067E+00  0.30178737018E+00  0.15785369466E+00  0.10655159319E+01  0.93800000000E+00 0. -1.
         22    1    1    2    0    0 -0.26129455424E+00 -0.23488339004E+00  0.29433250235E+01  0.29642211869E+01  0.00000000000E+00 0.  1.
</event>
<event>
 5    1  0.8240609E+001  0.1558196E+01  0.7818608E-02  0.3400024E+00
         11   -1    0    0    0    0  0.00000000000E+00  0.00000000000E+00  0.39999999674E+01  0.40000000000E+01  0.51100000000E-03 0.  1.
    9000002   -1    0    0    0    0 -0.00000000000E+00 -0.00000000000E+00  0.00000000000E+00  0.93800000000E+00  0.93800000000E+00 0. -1.
         11    1    1    2    0    0  0.19521151446E+00 -0.79087154636E-01  0.13066085997E+01  0.13234759564E+01  0.51100000000E-03 0.  1.
    9000002    1    1    2    0    0  0.16577054707E-01 -0.10411414438E+00  0.38275381473E-01  0.94468172345E+00  0.93800000000E+00 0. -1.
         22    1    1    2    0    0 -0.21178856917E+00  0.18320129902E+00  0.26551159862E+01  0.26698423201E+01  0.00000000000E+00 0.  1.
</event>
<event>
 5    1  0.9540901E+001  0.1598484E+01  0.7818608E-02  0.3355010E+00
         11   -1    0    0    0    0  0.00000000000E+00  0.00000000000E+00  0.39999999674E+01  0.40000000000E+01  0.51100000000E-03 0. -1.
    9000002   -1    0    0    0    0 -0.00000000000E+00 -0.00000000000E+00  0.00000000000E+00  0.93800000000E+00  0.93800000000E+00 0.  1.
         11    1    1    2    0    0  0.27750816301E-01  0.53990523653E-01  0.13169695176E+01  0.13183679516E+01  0.51100000000E-03 0. -1.
    9000002    1    1    2    0    0 -0.12377329874E+00 -0.27176617346E+00  0.60416662654E-01  0.98624076961E+00  0.93800000000E+00 0.  1.
         22    1    1    2    0    0  0.96022482435E-01  0.21777564981E+00  0.26226137871E+01  0.26333912788E+01  0.00000000000E+00 0. -1.
</event>
<event>
 5    1  0.8240609E+001  0.1599677E+01  0.7818608E-02  0.3353714E+00
         11   -1    0    0    0    0  0.00000000000E+00  0.00000000000E+00  0.39999999674E+01  0.40000000000E+01  0.51100000000E-03 0.  1.
    9000002   -1    0    0    0    0 -0.00000000000E+00 -0.00000000000E+00  0.00000000000E+00  0.93800000000E+00  0.93800000000E+00 0.  1.
         11    1    1    2    0    0  0.93901161233E-01  0.12825662280E+00  0.10842812489E+01  0.10958710130E+01  0.51100000000E-03 0.  1.
    9000002    1    1    2    0    0 -0.32781628313E+00 -0.44896980300E+00  0.21369391458E+00  0.11111014754E+01  0.93800000000E+00 0.  1.
         22    1    1    2    0    0  0.23391512190E+00  0.32071318020E+00  0.27020248039E+01  0.27310275116E+01  0.00000000000E+00 0.  1.
</event>
<event>
 5    1  0.8240609E+001  0.1597988E+01  0.7818608E-02  0.3355550E+00
         11   -1    0    0    0    0  0.00000000000E+00  0.00000000000E+00  0.39999999674E+01  0.40000000000E+01  0.51100000000E-03 0.  1.
    9000002   -1    0    0    0    0 -0.00000000000E+00 -0.00000000000E+00  0.00000000000E+00  0.93800000000E+00  0.93800000000E+00 0. -1.
         11    1    1    2    0    0 -0.92953840456E-01 -0.81388208307E-02  0.56019574614E+00  0.56791389486E+00  0.51100000000E-03 0.  1.
    9000002    1    1    2    0    0  0.40354911011E+00  0.87079306670E-01  0.11657423478E+00  0.10314398878E+01  0.93800000000E+00 0. -1.
         22    1    1    2    0    0 -0.31059526966E+00 -0.78940485839E-01  0.33232299864E+01  0.33386462173E+01  0.00000000000E+00 0.  1.
</event>
<event>
 5    1  0.8240609E+001  0.1597747E+01  0.7818608E-02  0.3355812E+00
         11   -1    0    0    0    0  0.00000000000E+00  0.00000000000E+00  0.39999999674E+01  0.40000000000E+01  0.51100000000E-03 0. -1.
    9000002   -1    0    0    0    0 -0.00000000000E+00 -0.00000000000E+00  0.00000000000E+00  0.93800000000E+00  0.93800000000E+00 0.  1.
         11    1    1    2    0    0  0.45589091740E-01 -0.10078877004E+00  0.10213133780E+01  0.10272867266E+01  0.51100000000E-03 0. -1.
    9000002    1    1    2    0    0 -0.37963144847E-01  0.49277853716E+00  0.16878834108E+00  0.10735946121E+01  0.93800000000E+00 0.  1.
         22    1    1    2    0    0 -0.76259468937E-02 -0.39198976712E+00  0.28098982483E+01  0.28371186613E+01  0.00000000000E+00 0. -1.
</event>
<event>
 5    1  0.8240609E+001  0.1588657E+01  0.7818608E-02  0.3365767E+00
         11   -1    0    0    0    0  0.00000000000E+00  0.00000000000E+00  0.39999999674E+01  0.40000000000E+01  0.51100000000E-03 0.  1.
    9000002   -1    0    0    0    0 -0.00000000000E+00 -0.00000000000E+00  0.00000000000E+00  0.93800000000E+00  0.93800000000E+00 0.  1.
         11    1    1    2    0    0  0.17169771006E-01  0.85873408891E-01  0.14395250475E+01  0.14421864190E+01  0.51100000000E-03 0.  1.
    9000002    1    1    2    0    0  0.26649435392E+00 -0.12292379046E+00  0.66069797632E-01  0.98505772272E+00  0.93800000000E+00 0.  1.
         22    1    1    2    0    0 -0.28366412492E+00  0.37050381565E-01  0.24944051222E+01  0.25107558583E+01  0.00000000000E+00 0.  1.
</event>
<event>
 5    1  0.8240609E+001  0.1598832E+01  0.7818608E-02  0.3354632E+00
         11   -1    0    0    0    0  0.00000000000E+00  0.00000000000E+00  0.39999999674E+01  0.40000000000E+01  0.51100000000E-03 0. -1.
    9000002   -1    0    0    0    0 -0.00000000000E+00 -0.00000000000E+00  0.00000000000E+00  0.93800000000E+00  0.93800000000E+00 0.  1.
         11    1    1    2    0    0  0.49007488648E-01 -0.10948873733E-01  0.83243981537E+00  0.83395318761E+00  0.51100000000E-03 0. -1.
    9000002    1    1    2    0    0 -0.34494726462E+00 -0.20361818844E-01  0.80700733411E-01  0.10028757787E+01  0.93800000000E+00 0.  1.
         22    1    1    2    0    0  0.29593977597E+00  0.31310692577E-01  0.30868594186E+01  0.31011710337E+01  0.00000000000E+00 0. -1.
</event>
<event>
 5    1  0.8240609E+001  0.1556162E+01  0.7818608E-02  0.3402363E+00
         11   -1    0    0    0    0  0.00000000000E+00  0.00000000000E+00  0.39999999674E+01  0.40000000000E+01  0.51100000000E-03 0.  1.
    9000002   -1    0    0    0    0 -0.00000000000E+00 -0.00000000000E+00  0.00000000000E+00  0.93800000000E+00  0.93800000000E+00 0.  1.
         11    1    1    2    0    0  0.14612693971E-01 -0.44921738929E-01  0.26308747133E-01  0.54073142596E-01  0.51100000000E-03 0.  1.
    9000002    1    1    2    0    0  0.24972347844E+00 -0.27021609204E+00  0.12728499222E+00  0.10155904791E+01  0.93800000000E+00 0.  1.
         22    1    1    2    0    0 -0.26433617241E+00  0.31513783097E+00  0.38464062280E+01  0.38683363783E+01  0.00000000000E+00 0.  1.
</event>
<event>
 5    1  0.8240609E+001  0.1580886E+01  0.7818608E-02  0.3374374E+00
         11   -1    0    0    0    0  0.00000000000E+00  0.00000000000E+00  0.39999999674E+01  0.40000000000E+01  0.51100000000E-03 0.  1.
    9000002   -1    0    0    0    0 -0.00000000000E+00 -0.00000000000E+00  0.00000000000E+00  0.93800000000E+00  0.93800000000E+00 0.  1.
         11    1    1    2    0    0 -0.74653698490E-01  0.34892863142E-01  0.10046012040E+01  0.10079754594E+01  0.51100000000E-03 0.  1.
    9000002    1    1    2    0    0 -0.25039272334E+00  0.14992388883E-01  0.56306747362E-01  0.97259227707E+00  0.93800000000E+00 0.  1.
         22    1    1    2    0    0  0.32504642183E+00 -0.49885252025E-01  0.29390920160E+01  0.29574322635E+01  0.00000000000E+00 0.  1.
</event>
<event>
 5    1  0.8240609E+001  0.1599588E+01  0.7818608E-02  0.3353811E+00
         11   -1    0    0    0    0  0.00000000000E+00  0.00000000000E+00  0.39999999674E+01  0.40000000000E+01  0.51100000000E-03 0. -1.
    9000002   -1    0    0    0    0 -0.00000000000E+00 -0.00000000000E+00  0.00000000000E+00  0.93800000000E+00  0.93800000000E+00 0.  1.
         11    1    1    2    0    0  0.12317938855E+00  0.78678363638E-01  0.71772310809E+00  0.73245489122E+00  0.51100000000E-03 0. -1.
    9000002    1    1    2    0    0 -0.58384879914E+00 -0.42226349172E+00  0.37325718622E+00  0.12403027065E+01  0.93800000000E+00 0.  1.
         22    1    1    2    0    0  0.46066941058E+00  0.34358512808E+00  0.29090196730E+01  0.29652424023E+01  0.00000000000E+00 0. -1.
</event>
<event>
 5    1  0.8973590E+001  0.1599387E+01  0.7818608E-02  0.3354029E+00
         11   -1    0    0    0    0  0.00000000000E+00  0.00000000000E+00  0.39999999674E+01  0.40000000000E+01  0.51100000000E-03 0. -1.
    9000002   -1    0    0    0    0 -0.00000000000E+00 -0.00000000000E+00  0.00000000000E+00  0.93800000000E+00  0.93800000000E+00 0.  1.
         11    1    1    2    0    0  0.94451523199E-01  0.46562661604E-01  0.14099672988E+01  0.14138943442E+01  0.51100000000E-03 0. -1.
    9000002    1    1    2    0    0 -0.28501449780E+00 -0.17972240603E+00  0.76249637193E-01  0.99959562542E+00  0.93800000000E+00 0.  1.
         22    1    1    2    0    0  0.19056297460E+00  0.13315974443E+00  0.25137830313E+01  0.25245100304E+01  0.00000000000E+00 0.  1.
</event>
<event>
 5    1  0.8240609E+001  0.1463892E+01  0.7818608E-02  0.3515776E+00
         11   -1    0    0    0    0  0.00000000000E+00  0.00000000000E+00  0.39999999674E+01  0.40000000000E+01  0.51100000000E-03 0.  1.
    9000002   -1    0    0    0    0 -0.00000000000E+00 -0.00000000000E+00  0.00000000000E+00  0.93800000000E+00  0.93800000000E+00 0. -1.
         11    1    1    2    0    0  0.19538316964E+00  0.30156524341E+00  0.79723348677E+00  0.87446993805E+00  0.51100000000E-03 0.  1.
    9000002    1    1    2    0    0 -0.56110031104E-01  0.52305678193E-01  0.11007680195E+00  0.94754689693E+00  0.93800000000E+00 0. -1.
         22    1    1    2    0    0 -0.13927313853E+00 -0.35387092160E+00  0.30926896786E+01  0.31159831650E+01  0.00000000000E+00 0.  1.
</event>
<event>
 5    1  0.8240609E+001  0.1599624E+01  0.7818608E-02  0.3353772E+00
         11   -1    0    0    0    0  0.00000000000E+00  0.00000000000E+00  0.39999999674E+01  0.40000000000E+01  0.51100000000E-03 0.  1.
    9000002   -1    0    0    0    0 -0.00000000000E+00 -0.00000000000E+00  0.00000000000E+00  0.93800000000E+00  0.93800000000E+00 0.  1.
         11    1    1    2    0    0 -0.68746039362E-01 -0.11592577495E-01  0.56248933555E+00  0.56679354223E+00  0.51100000000E-03 0.  1.
    9000002    1    1    2    0    0  0.43243524210E+00  0.66426049329E-01  0.12981448286E+00  0.10431243735E+01  0.93800000000E+00 0.  1.
         22    1    1    2    0    0 -0.36368920274E+00 -0.54833471834E-01  0.33076961489E+01  0.33280820843E+01  0.00000000000E+00 0.  1.
</event>
<event>
 5    1  0.8240609E+001  0.1598790E+01  0.7818608E-02  0.3354678E+00
         11   -1    0    0    0    0  0.00000000000E+00  0.00000000000E+00  0.39999999674E+01  0.40000000000E+01  0.51100000000E-03 0. -1.
    9000002   -1    0    0    0    0 -0.00000000000E+00 -0.00000000000E+00  0.00000000000E+00  0.93800000000E+00  0.93800000000E+00 0.  1.
         11    1    1    2    0    0  0.56501249037E-01  0.32788763895E-02  0.36665192916E+00  0.37099466364E+00  0.51100000000E-03 0. -1.
    9000002    1    1    2    0    0 -0.41835746896E+00 -0.16911910288E+00  0.13909134858E+00  0.10501498208E+01  0.93800000000E+00 0.  1.
         22    1    1    2    0    0  0.36185621992E+00  0.16584022649E+00  0.34942566896E+01  0.35168555156E+01  0.00000000000E+00 0. -1.
</event>
<event>
 5    1  0.8240609E+001  0.1598856E+01  0.7818608E-02  0.3354606E+00
         11   -1    0    0    0    0  0.00000000000E+00  0.00000000000E+00  0.39999999674E+01  0.40000000000E+01  0.51100000000E-03 0.  1.
    9000002   -1    0    0    0    0 -0.00000000000E+00 -0.00000000000E+00  0.00000000000E+00  0.93800000000E+00  0.93800000000E+00 0. -1.
         11    1    1    2    0    0  0.16818313221E+00 -0.16423547993E-02  0.14107396560E+01  0.14207304112E+01  0.51100000000E-03 0.  1.
    9000002    1    1    2    0    0 -0.39340463085E+00  0.63022819357E-01  0.10773373470E+00  0.10247876058E+01  0.93800000000E+00 0. -1.
         22    1    1    2    0    0  0.22522149865E+00 -0.61380464558E-01  0.24815265767E+01  0.24924819830E+01  0.00000000000E+00 0.  1.
</event>
<event>
 5    1  0.8240609E+001  0.1599263E+01  0.7818608E-02  0.3354163E+00
         11   -1    0    0    0    0  0.00000000000E+00  0.00000000000E+00  0.39999999674E+01  0.40000000000E+01  0.51100000000E-03 0.  1.
    9000002   -1    0    0    0    0 -0.00000000000E+00 -0.00000000000E+00  0.00000000000E+00  0.93800000000E+00  0.93800000000E+00 0.  1.
         11    1    1    2    0    0 -0.35776275220E-01  0.75868512212E-01  0.68217779698E+00  0.68731563406E+00  0.51100000000E-03 0.  1.
    9000002    1    1    2    0    0  0.12299446406E+00 -0.36477919589E+00  0.10011027300E+00  0.10188511013E+01  0.93800000000E+00 0.  1.
         22    1    1    2    0    0 -0.87218188838E-01  0.28891068368E+00  0.32177118974E+01  0.32318332646E+01  0.00000000000E+00 0.  1.
</event>
<event>
 5    1  0.8240609E+001  0.1599675E+01  0.7818608E-02  0.3353716E+00
         11   -1    0    0    0    0  0.00000000000E+00  0.00000000000E+00  0.39999999674E+01  0.40000000000E+01  0.51100000000E-03 0. -1.
    9000002   -1    0    0    0    0 -0.00000000000E+00 -0.00000000000E+00  0.00000000000E+00  0.93800000000E+00  0.93800000000E+00 0.  1.
         11    1    1    2    0    0 -0.48968584351E-01  0.78607668430E-01  0.69679457128E+00  0.70292248753E+00  0.51100000000E-03 0. -1.
    9000002    1    1    2    0    0  0.26474468769E+00 -0.42598664977E+00  0.17224993619E+00  0.10775288469E+01  0.93800000000E+00 0.  1.
         22    1    1    2    0    0 -0.21577610333E+00  0.34737898134E+00  0.31309554599E+01  0.31575486655E+01  0.00000000000E+00 0. -1.
</event>
<event>
 5    1  0.8240609E+001  0.1599634E+01  0.7818608E-02  0.3353760E+00
         11   -1    0    0    0    0  0.00000000000E+00  0.00000000000E+00  0.39999999674E+01  0.40000000000E+01  0.51100000000E-03 0.  1.
    9000002   -1    0    0    0    0 -0.00000000000E+00 -0.00000000000E+00  0.00000000000E+00  0.93800000000E+00  0.93800000000E+00 0.  1.
         11    1    1    2    0    0  0.49474838794E-02 -0.10351393319E+00  0.10571733514E+01  0.10622407298E+01  0.51100000000E-03 0.  1.
    9000002    1    1    2    0    0  0.17423379517E-02  0.36646348673E+00  0.90251329202E-01  0.10110825017E+01  0.93800000000E+00 0.  1.
         22    1    1    2    0    0 -0.66898218311E-02 -0.26294955354E+00  0.28525752868E+01  0.28646767685E+01  0.00000000000E+00 0.  1.
</event>
<event>
 5    1  0.8240609E+001  0.1526543E+01  0.7818608E-02  0.3437164E+00
         11   -1    0    0    0    0  0.00000000000E+00  0.00000000000E+00  0.39999999674E+01  0.40000000000E+01  0.51100000000E-03 0.  1.
    9000002   -1    0    0    0    0 -0.00000000000E+00 -0.00000000000E+00  0.00000000000E+00  0.93800000000E+00  0.93800000000E+00 0. -1.
         11    1    1    2    0    0 -0.39786231658E-01  0.22252763845E+00  0.91547423559E-01  0.24389072550E+00  0.51100000000E-03 0.  1.
    9000002    1    1    2    0    0  0.25046595664E+00  0.32215544880E+00  0.33964204579E+00  0.10778302500E+01  0.93800000000E+00 0. -1.
         22    1    1    2    0    0 -0.21067972498E+00 -0.54468308725E+00  0.35688104980E+01  0.36162790245E+01  0.00000000000E+00 0.  1.
</event>
<event>
 5    1  0.8240609E+001  0.1599646E+01  0.7818608E-02  0.3353748E+00
         11   -1    0    0    0    0  0.00000000000E+00  0.00000000000E+00  0.39999999674E+01  0.40000000000E+01  0.51100000000E-03 0.  1.
    9000002   -1    0    0    0    0 -0.00000000000E+00 -0.00000000000E+00  0.00000000000E+00  0.93800000000E+00  0.93800000000E+00 0.  1.
         11    1    1    2    0    0  0.41496978219E-01  0.29975896045E-01  0.39515368109E+00  0.39845607832E+00  0.51100000000E-03 0.  1.
    9000002    1    1    2    0    0 -0.36519558062E+00 -0.29835736320E+00  0.15156292272E+00  0.10607545653E+01  0.93800000000E+00 0.  1.
         22    1    1    2    0    0  0.32369860240E+00  0.26838146716E+00  0.34532833635E+01  0.34787893564E+01  0.00000000000E+00 0.  1.
</event>
<event>
 5    1  0.8240609E+001  0.1599188E+01  0.7818608E-02  0.3354246E+00
         11   -1    0    0    0    0  0.00000000000E+00  0.00000000000E+00  0.39999999674E+01  0.40000000000E+01  0.51100000000E-03 0.  1.
    9000002   -1    0    0    0    0 -0.00000000000E+00 -0.00000000000E+00  0.00000000000E+00  0.93800000000E+00  0.93800000000E+00 0.  1.
         11    1    1    2    0    0 -0.44544869595E-01  0.11094332462E+00  0.77923358329E+00  0.78835138430E+00  0.51100000000E-03 0.  1.
    9000002    1    1    2    0    0  0.21020372983E+00 -0.44035062900E+00  0.16310069419E+00  0.10698318190E+01  0.93800000000E+00 0.  1.
         22    1    1    2    0    0 -0.16565886023E+00  0.32940730437E+00  0.30576656899E+01  0.30798167967E+01  0.00000000000E+00 0.  1.
</event>
<event>
 5    1  0.8240609E+001  0.1599663E+01  0.7818608E-02  0.3353729E+00
         11   -1    0    0    0    0  0.00000000000E+00  0.00000000000E+00  0.39999999674E+01  0.40000000000E+01  0.51100000000E-03 0. -1.
    9000002   -1    0    0    0    0 -0.00000000000E+00 -0.00000000000E+00  0.00000000000E+00  0.93800000000E+00  0.93800000000E+00 0. -1.
         11    1    1    2    0    0 -0.12648921766E+00 -0.56265587021E-01  0.14577129731E+01  0.14642720757E+01  0.51100000000E-03 0. -1.
    9000002    1    1    2    0    0  0.34378377953E+00  0.16121129584E+00  0.97015770368E-01  0.10165787863E+01  0.93800000000E+00 0. -1.
         22    1    1    2    0    0 -0.21729456187E+00 -0.10494570881E+00  0.24452712239E+01  0.24571491381E+01  0.00000000000E+00 0. -1.
</event>
<event>
 5    1  0.8240609E+001  0.1572714E+01  0.7818608E-02  0.3383521E+00
         11   -1    0    0    0    0  0.00000000000E+00  0.00000000000E+00  0.39999999674E+01  0.40000000000E+01  0.51100000000E-03 0.  1.
    9000002   -1    0    0    0    0 -0.00000000000E+00 -0.00000000000E+00  0.00000000000E+00  0.93800000000E+00  0.93800000000E+00 0.  1.
         11    1    1    2    0    0 -0.25577201086E-01 -0.13475435289E+00  0.40779477712E+00  0.43024384970E+00  0.51100000000E-03 0.  1.
    9000002    1    1    2    0    0  0.37995508767E+00  0.12269517759E+00  0.13029653220E+00  0.10277359396E+01  0.93800000000E+00 0.  1.
         22    1    1    2    0    0 -0.35437788658E+00  0.12059175307E-01  0.34619086580E+01  0.34800202107E+01  0.00000000000E+00 0.  1.
</event>
<event>
 5    1  0.8240609E+001  0.1599671E+01  0.7818608E-02  0.3353721E+00
         11   -1    0    0    0    0  0.00000000000E+00  0.00000000000E+00  0.39999999674E+01  0.40000000000E+01  0.51100000000E-03 0.  1.
    9000002   -1    0    0    0    0 -0.00000000000E+00 -0.00000000000E+00  0.00000000000E+00  0.93800000000E+00  0.93800000000E+00 0.  1.
         11    1    1    2    0    0 -0.20918770891E-01 -0.16993808740E-02  0.19755267509E+00  0.19866505336E+00  0.51100000000E-03 0.  1.
    9000002    1    1    2    0    0  0.39861828906E+00  0.13288929366E-01  0.10728722621E+00  0.10249037442E+01  0.93800000000E+00 0.  1.
         22    1    1    2    0    0 -0.37769951817E+00 -0.11589548492E-01  0.36951600661E+01  0.37144312024E+01  0.00000000000E+00 0.  1.
</event>
<event>
 5    1  0.8240609E+001  0.1599676E+01  0.7818608E-02  0.3353715E+00
         11   -1    0    0    0    0  0.00000000000E+00  0.00000000000E+00  0.39999999674E+01  0.40000000000E+01  0.51100000000E-03 0. -1.
    9000002   -1    0    0    0    0 -0.00000000000E+00 -0.00000000000E+00  0.00000000000E+00  0.93800000000E+00  0.93800000000E+00 0.  1.
         11    1    1    2    0    0 -0.78284281840E-01 -0.11005650033E+00  0.10248905138E+01  0.10337512701E+01  0.51100000000E-03 0. -1.
    9000002    1    1    2    0    0  0.29270642720E+00  0.41453741714E+00  0.17650977750E+00  0.10809801221E+01  0.93800000000E+00 0.  1.
         22    1    1    2    0    0 -0.21442214536E+00 -0.30448091681E+00  0.27985996761E+01  0.28232686078E+01  0.00000000000E+00 0. -1.
</event>
<event>
 5    1  0.8240609E+001  0.1578497E+01  0.7818608E-02  0.3377038E+00
         11   -1    0    0    0    0  0.00000000000E+00  0.00000000000E+00  0.39999999674E+01  0.40000000000E+01  0.51100000000E-03 0.  1.
    9000002   -1    0    0    0    0 -0.00000000000E+00 -0.00000000000E+00  0.00000000000E+00  0.93800000000E+00  0.93800000000E+00 0.  1.
         11    1    1    2    0    0 -0.33642066383E-01  0.56833642324E-01  0.15212600220E+00  0.16584460557E+00  0.51100000000E-03 0.  1.
    9000002    1    1    2    0    0  0.31034486818E+00  0.22456310208E+00  0.11640049863E+00  0.10198703840E+01  0.93800000000E+00 0.  1.
         22    1    1    2    0    0 -0.27670280180E+00 -0.28139674441E+00  0.37314734665E+01  0.37522850105E+01  0.00000000000E+00 0.  1.
</event>
<event>
 5    1  0.8240609E+001  0.1599677E+01  0.7818608E-02  0.3353715E+00
         11   -1    0    0    0    0  0.00000000000E+00  0.00000000000E+00  0.39999999674E+01  0.40000000000E+01  0.51100000000E-03 0.  1.
    9000002   -1    0    0    0    0 -0.00000000000E+00 -0.00000000000E+00  0.00000000000E+00  0.93800000000E+00  0.93800000000E+00 0. -1.
         11    1    1    2    0    0  0.20672552654E-01 -0.38717137830E-01  0.48019464002E+00  0.48219656222E+00  0.51100000000E-03 0. -1.
    9000002    1    1    2    0    0 -0.16867325974E+00  0.31280595813E+00  0.84735372378E-01  0.10066391207E+01  0.93800000000E+00 0. -1.
         22    1    1    2    0    0  0.14800070709E+00 -0.27408882030E+00  0.34350699550E+01  0.34491643171E+01  0.00000000000E+00 0.  1.
</event>
<event>
 5    1  0.8240609E+001  0.1599397E+01  0.7818608E-02  0.3354018E+00
         11   -1    0    0    0    0  0.00000000000E+00  0.00000000000E+00  0.39999999674E+01  0.40000000000E+01  0.51100000000E-03 0. -1.
    9000002   -1    0    0    0    0 -0.00000000000E+00 -0.00000000000E+00  0.00000000000E+00  0.93800000000E+00  0.93800000000E+00 0.  1.
         11    1    1    2    0    0 -0.14947414278E-01  0.17323947020E-02  0.98485264394E-01  0.99629487647E-01  0.51100000000E-03 0. -1.
    9000002    1    1    2    0    0  0.35529962541E+00 -0.15127943732E+00  0.10064211774E+00  0.10193606466E+01  0.93800000000E+00 0.  1.
         22    1    1    2    0    0 -0.34035221114E+00  0.14954704262E+00  0.38008725852E+01  0.38190098658E+01  0.00000000000E+00 0. -1.
</event>
<event>
 5    1  0.8240609E+001  0.1599648E+01  0.7818608E-02  0.3353745E+00
         11   -1    0    0    0    0  0.00000000000E+00  0.00000000000E+00  0.39999999674E+01  0.40000000000E+01  0.51100000000E-03 0.  1.
    9000002   -1    0    0    0    0 -0.00000000000E+00 -0.00000000000E+00  0.00000000000E+00  0.93800000000E+00  0.93800000000E+00 0. -1.
         11    1    1    2    0    0 -0.36925968861E-01 -0.21238934094E-01  0.36596124342E+00  0.36843250712E+00  0.51100000000E-03 0.  1.
    9000002    1    1    2    0    0  0.35181396960E+00  0.22286778917E+00  0.11726861507E+00  0.10329758220E+01  0.93800000000E+00 0. -1.
         22    1    1    2    0    0 -0.31488800074E+00 -0.20162885508E+00  0.35167701089E+01  0.35365916709E+01  0.00000000000E+00 0.  1.
</event>
<event>
 5    1  0.8240609E+001  0.1599675E+01  0.7818608E-02  0.3353716E+00
         11   -1    0    0    0    0  0.00000000000E+00  0.00000000000E+00  0.39999999674E+01  0.40000000000E+01  0.51100000000E-03 0. -1.
    9000002   -1    0    0    0    0 -0.00000000000E+00 -0.00000000000E+00  0.00000000000E+00  0.93800000000E+00  0.93800000000E+00 0.  1.
         11    1    1    2    0    0 -0.30789115531E-01 -0.16347093332E-01  0.39601102936E+00  0.39754269404E+00  0.51100000000E-03 0. -1.
    9000002    1    1    2    0    0  0.30959836645E+00  0.16963684457E+00  0.83593924817E-01  0.10057135536E+01  0.93800000000E+00 0.  1.
         22    1    1    2    0    0 -0.27880925092E+00 -0.15328975124E+00  0.35203950132E+01  0.35347437524E+01  0.00000000000E+00 0. -1.
</event>
<event>
 5    1  0.8240609E+001  0.1599582E+01  0.7818608E-02  0.3353817E+00
         11   -1    0    0    0    0  0.00000000000E+00  0.00000000000E+00  0.39999999674E+01  0.40000000000E+01  0.51100000000E-03 0.  1.
    9000002   -1    0    0    0    0 -0.00000000000E+00 -0.00000000000E+00  0.00000000000E+00  0.93800000000E+00  0.93800000000E+00 0. -1.
         11    1    1    2    0    0 -0.51641145922E-01  0.26052244224E-01  0.70830992437E+00  0.71066781091E+00  0.51100000000E-03 0.  1.
    9000002    1    1    2    0    0  0.33246334766E+00 -0.15931875023E+00  0.91402685793E-01  0.10119845812E+01  0.93800000000E+00 0. -1.
         22    1    1    2    0    0 -0.28082220174E+00  0.13326650601E+00  0.32002873572E+01  0.32153476078E+01  0.00000000000E+00 0.  1.
</event>
<event>
 5    1  0.8240609E+001  0.1599602E+01  0.7818608E-02  0.3353796E+00
         11   -1    0    0    0    0  0.00000000000E+00  0.00000000000E+00  0.39999999674E+01  0.40000000000E+01  0.51100000000E-03 0.  1.
    9000002   -1    0    0    0    0 -0.00000000000E+00 -0.00000000000E+00  0.00000000000E+00  0.93800000000E+00  0.93800000000E+00 0.  1.
         11    1    1    2    0    0 -0.41579660636E-01  0.25408935572E-02  0.44018596207E+00  0.44215299009E+00  0.51100000000E-03 0.  1.
    9000002    1    1    2    0    0  0.35027951839E+00 -0.77827451773E-01  0.86476267392E-01  0.10080054554E+01  0.93800000000E+00 0.  1.
         22    1    1    2    0    0 -0.30869985775E+00  0.75286558216E-01  0.34733377379E+01  0.34878415545E+01  0.00000000000E+00 0.  1.
</event>
<event>
 5    1  0.8240609E+001  0.1599673E+01  0.7818608E-02  0.3353718E+00
         11   -1    0    0    0    0  0.00000000000E+00  0.00000000000E+00  0.39999999674E+01  0.40000000000E+01  0.51100000000E-03 0. -1.
    9000002   -1    0    0    0    0 -0.00000000000E+00 -0.00000000000E+00  0.00000000000E+00  0.93800000000E+00  0.93800000000E+00 0. -1.
         11    1    1    2    0    0  0.70060869828E-01 -0.71370506437E-01  0.10964519385E+01  0.11010038098E+01  0.51100000000E-03 0. -1.
    9000002    1    1    2    0    0 -0.25364124010E+00  0.26088349767E+00  0.88913359806E-01  0.10100216154E+01  0.93800000000E+00 0. -1.
         22    1    1    2    0    0  0.18358037027E+00 -0.18951299123E+00  0.28146346691E+01  0.28269745748E+01  0.00000000000E+00 0.  1.
</event>
<event>
 5    1  0.8240609E+001  0.1575153E+01  0.7818608E-02  0.3380781E+00
         11   -1    0    0    0    0  0.00000000000E+00  0.00000000000E+00  0.39999999674E+01  0.40000000000E+01  0.51100000000E-03 0.  1.
    9000002   -1    0    0    0    0 -0.00000000000E+00 -0.00000000000E+00  0.00000000000E+00  0.93800000000E+00  0.93800000000E+00 0. -1.
         11    1    1    2    0    0  0.11854634111E+00 -0.44857992751E-01  0.11718345973E+01  0.11786696140E+01  0.51100000000E-03 0.  1.
    9000002    1    1    2    0    0  0.15214447923E+00 -0.28291314961E-01  0.34163522005E-01  0.95129358628E+00  0.93800000000E+00 0. -1.
         22    1    1    2    0    0 -0.27069082034E+00  0.73149307712E-01  0.27940018481E+01  0.28080367997E+01  0.00000000000E+00 0.  1.
</event>
<event>
 5    1  0.8240609E+001  0.1599632E+01  0.7818608E-02  0.3353763E+00
         11   -1    0    0    0    0  0.00000000000E+00  0.00000000000E+00  0.39999999674E+01  0.40000000000E+01  0.51100000000E-03 0.  1.
    9000002   -1    0    0    0    0 -0.00000000000E+00 -0.00000000000E+00  0.00000000000E+00  0.93800000000E+00  0.93800000000E+00 0. -1.
         11    1    1    2    0    0 -0.12959149493E+00  0.26235274444E-01  0.11075948407E+01  0.11154590255E+01  0.51100000000E-03 0.  1.
    9000002    1    1    2    0    0  0.44314175771E+00 -0.67645652450E-01  0.13648654671E+00  0.10485337997E+01  0.93800000000E+00 0. -1.
         22    1    1    2    0    0 -0.31355026278E+00  0.41410378006E-01  0.27559185799E+01  0.27740071748E+01  0.00000000000E+00 0.  1.
</event>
<event>
 5    1  0.1692853E+002  0.1547045E+01  0.7818608E-02  0.3412924E+00
         11   -1    0    0    0    0  0.00000000000E+00  0.00000000000E+00  0.39999999674E+01  0.40000000000E+01  0.51100000000E-03 0. -1.
    9000002   -1    0    0    0    0 -0.00000000000E+00 -0.00000000000E+00  0.00000000000E+00  0.93800000000E+00  0.93800000000E+00 0.  1.
         11    1    1    2    0    0  0.59745847601E-01  0.22575129688E+00  0.11792189242E+01  0.12021192730E+01  0.51100000000E-03 0. -1.
    9000002    1    1    2    0    0  0.34824177017E-02  0.65715555623E-01  0.42108449662E-01  0.94124799230E+00  0.93800000000E+00 0.  1.
         22    1    1    2    0    0 -0.63228265303E-01 -0.29146685250E+00  0.27786725935E+01  0.27946327347E+01  0.00000000000E+00 0. -1.
</event>
<event>
 5    1  0.8240609E+001  0.1688823E+01  0.7818608E-02  0.3262264E+00
         11   -1    0    0    0    0  0.00000000000E+00  0.00000000000E+00  0.39999999674E+01  0.40000000000E+01  0.51100000000E-03 0. -1.
    9000002   -1    0    0    0    0 -0.00000000000E+00 -0.00000000000E+00  0.00000000000E+00  0.93800000000E+00  0.93800000000E+00 0. -1.
         11    1    1    2    0    0 -0.46690268835E+00 -0.85584387045E-01  0.27396967328E+00  0.54807157442E+00  0.51100000000E-03 0. -1.
    9000002    1    1    2    0    0  0.17419157118E-01  0.12156286653E+00  0.38947732495E+00  0.10230432758E+01  0.93800000000E+00 0. -1.
         22    1    1    2    0    0  0.44948353123E+00 -0.35978479485E-01  0.33365529691E+01  0.33668851498E+01  0.00000000000E+00 0. -1.
</event>
<event>
 5    1  0.8240609E+001  0.1591604E+01  0.7818608E-02  0.3362527E+00
         11   -1    0    0    0    0  0.00000000000E+00  0.00000000000E+00  0.39999999674E+01  0.40000000000E+01  0.51100000000E-03 0.  1.
    9000002   -1    0    0    0    0 -0.00000000000E+00 -0.00000000000E+00  0.00000000000E+00  0.93800000000E+00  0.93800000000E+00 0. -1.
         11    1    1    2    0    0  0.13214939983E+00 -0.24968736028E-01  0.47534779062E+00  0.49400676597E+00  0.51100000000E-03 0.  1.
    9000002    1    1    2    0    0 -0.50298663262E+00  0.30317598834E-01  0.18126644874E+00  0.10801001041E+01  0.93800000000E+00 0. -1.
         22    1    1    2    0    0  0.37083723279E+00 -0.53488628060E-02  0.33433857280E+01  0.33638931299E+01  0.00000000000E+00 0.  1.
</event>
<event>
 5    1  0.8240609E+001  0.1585996E+01  0.7818608E-02  0.3368705E+00
         11   -1    0    0    0    0  0.00000000000E+00  0.00000000000E+00  0.39999999674E+01  0.40000000000E+01  0.51100000000E-03 0.  1.
    9000002   -1    0    0    0    0 -0.00000000000E+00 -0.00000000000E+00  0.00000000000E+00  0.93800000000E+00  0.93800000000E+00 0. -1.
         11    1    1    2    0    0  0.15711149068E+00 -0.27236787069E-01  0.81236237674E+00  0.82786397152E+00  0.51100000000E-03 0.  1.
    9000002    1    1    2    0    0 -0.24723069642E+00  0.35132582767E+00  0.13670343873E+00  0.10407135459E+01  0.93800000000E+00 0. -1.
         22    1    1    2    0    0  0.90119205741E-01 -0.32408904060E+00  0.30509341519E+01  0.30694224826E+01  0.00000000000E+00 0.  1.
</event>
<event>
 5    1  0.8240609E+001  0.1599577E+01  0.7818608E-02  0.3353822E+00
         11   -1    0    0    0    0  0.00000000000E+00  0.00000000000E+00  0.39999999674E+01  0.40000000000E+01  0.51100000000E-03 0.  1.
    9000002   -1    0    0    0    0 -0.00000000000E+00 -0.00000000000E+00  0.00000000000E+00  0.93800000000E+00  0.93800000000E+00 0.  1.
         11    1    1    2    0    0  0.27202820693E-01  0.80253256809E-01  0.84422107692E+00  0.84846335603E+00  0.51100000000E-03 0.  1.
    9000002    1    1    2    0    0 -0.82251073818E-01 -0.38501832723E+00  0.10455260106E+00  0.10226336577E+01  0.93800000000E+00 0.  1.
         22    1    1    2    0    0  0.55048253126E-01  0.30476507042E+00  0.30512262894E+01  0.30669029863E+01  0.00000000000E+00 0.  1.
</event>
<event>
 5    1  0.8240609E+001  0.1599669E+01  0.7818608E-02  0.3353723E+00
         11   -1    0    0    0    0  0.00000000000E+00  0.00000000000E+00  0.39999999674E+01  0.40000000000E+01  0.51100000000E-03 0.  1.
    9000002   -1    0    0    0    0 -0.00000000000E+00 -0.00000000000E+00  0.00000000000E+00  0.93800000000E+00  0.93800000000E+00 0.  1.
         11    1    1    2    0    0 -0.45272334378E-01 -0.81526529954E-01  0.96539227949E+00  0.96988590760E+00  0.51100000000E-03 0.  1.
    9000002    1    1    2    0    0  0.19305989218E+00  0.33517627826E+00  0.10075740706E+00  0.10196133162E+01  0.93800000000E+00 0.  1.
         22    1    1    2    0    0 -0.14778755781E+00 -0.25364974831E+00  0.29338502808E+01  0.29485007762E+01  0.00000000000E+00 0.  1.
</event>
<event>
 5    1  0.8240609E+001  0.1599677E+01  0.7818608E-02  0.3353714E+00
         11   -1    0    0    0    0  0.00000000000E+00  0.00000000000E+00  0.39999999674E+01  0.40000000000E+01  0.51100000000E-03 0. -1.
    9000002   -1    0    0    0    0 -0.00000000000E+00 -0.00000000000E+00  0.00000000000E+00  0.93800000000E+00  0.93800000000E+00 0.  1.
         11    1    1    2    0    0  0.13636397180E+00 -0.38825291673E-01  0.12710387365E+01  0.12789223068E+01  0.51100000000E-03 0.  1.
    9000002    1    1    2    0    0 -0.41534761137E+00  0.11897662586E+00  0.12645556932E+00  0.10404345663E+01  0.93800000000E+00 0.  1.
         22    1    1    2    0    0  0.27898363958E+00 -0.80151334186E-01  0.26025056615E+01  0.26186431269E+01  0.00000000000E+00 0. -1.
</event>
<event>
 5    1  0.8240609E+001  0.1599485E+01  0.7818608E-02  0.3353922E+00
         11   -1    0    0    0    0  0.00000000000E+00  0.00000000000E+00  0.39999999674E+01  0.40000000000E+01  0.51100000000E-03 0. -1.
    9000002   -1    0    0    0    0 -0.00000000000E+00 -0.00000000000E+00  0.00000000000E+00  0.93800000000E+00  0.93800000000E+00 0.  1.
         11    1    1    2    0    0  0.54710357117E-01 -0.39268052568E-01  0.69429484134E+00  0.69755343233E+00  0.51100000000E-03 0. -1.
    9000002    1    1    2    0    0 -0.34149418215E+00  0.15771976539E+00  0.95315573936E-01  0.10150974630E+01  0.93800000000E+00 0.  1.
         22    1    1    2    0    0  0.28678382504E+00 -0.11845171282E+00  0.32103895521E+01  0.32253491046E+01  0.00000000000E+00 0. -1.
</event>
<event>
 5    1  0.8240609E+001  0.1599676E+01  0.7818608E-02  0.3353715E+00
         11   -1    0    0    0    0  0.00000000000E+00  0.00000000000E+00  0.39999999674E+01  0.40000000000E+01  0.51100000000E-03 0. -1.
    9000002   -1    0    0    0    0 -0.00000000000E+00 -0.00000000000E+00  0.00000000000E+00  0.93800000000E+00  0.93800000000E+00 0. -1.
         11    1    1    2    0    0 -0.94939930387E-01 -0.56805760482E-01  0.86639905238E+00  0.87343463631E+00  0.51100000000E-03 0. -1.
    9000002    1    1    2    0    0  0.42468685450E+00  0.25037659751E+00  0.16618686529E+00  0.10726180304E+01  0.93800000000E+00 0. -1.
         22    1    1    2    0    0 -0.32974692411E+00 -0.19357083702E+00  0.29674140497E+01  0.29919473333E+01  0.00000000000E+00 0. -1.
</event>
<event>
 5    1  0.8240609E+001  0.1551839E+01  0.7818608E-02  0.3407354E+00
         11   -1    0    0    0    0  0.00000000000E+00  0.00000000000E+00  0.39999999674E+01  0.40000000000E+01  0.51100000000E-03 0. -1.
    9000002   -1    0    0    0    0 -0.00000000000E+00 -0.00000000000E+00  0.00000000000E+00  0.93800000000E+00  0.93800000000E+00 0.  1.
         11    1    1    2    0    0  0.23740186384E+00 -0.14792036153E+00  0.10283177550E+01  0.10656818215E+01  0.51100000000E-03 0. -1.
    9000002    1    1    2    0    0 -0.35937362980E+00 -0.14302938792E+00  0.14130269944E+00  0.10244106913E+01  0.93800000000E+00 0.  1.
         22    1    1    2    0    0  0.12197176596E+00  0.29094974945E+00  0.28303795129E+01  0.28479074872E+01  0.00000000000E+00 0. -1.
</event>
<event>
 5    1  0.8240609E+001  0.1599677E+01  0.7818608E-02  0.3353714E+00
         11   -1    0    0    0    0  0.00000000000E+00  0.00000000000E+00  0.39999999674E+01  0.40000000000E+01  0.51100000000E-03 0. -1.
    9000002   -1    0    0    0    0 -0.00000000000E+00 -0.00000000000E+00  0.00000000000E+00  0.93800000000E+00  0.93800000000E+00 0. -1.
         11    1    1    2    0    0  0.10253020763E+00  0.30520961493E-01  0.11676381870E+01  0.11725285367E+01  0.51100000000E-03 0. -1.
    9000002    1    1    2    0    0 -0.34369535030E+00 -0.10052835321E+00  0.86059190620E-01  0.10077115797E+01  0.93800000000E+00 0. -1.
         22    1    1    2    0    0  0.24116514267E+00  0.70007391714E-01  0.27463025897E+01  0.27577598836E+01  0.00000000000E+00 0. -1.
</event>
<event>
 5    1  0.8240609E+001  0.1598996E+01  0.7818608E-02  0.3354453E+00
         11   -1    0    0    0    0  0.00000000000E+00  0.00000000000E+00  0.39999999674E+01  0.40000000000E+01  0.51100000000E-03 0.  1.
    9000002   -1    0    0    0    0 -0.00000000000E+00 -0.00000000000E+00  0.00000000000E+00  0.93800000000E+00  0.93800000000E+00 0.  1.
         11    1    1    2    0    0 -0.39420917818E-01 -0.39762404163E-01  0.70610233056E+00  0.70831900998E+00  0.51100000000E-03 0.  1.
    9000002    1    1    2    0    0  0.23557137518E+00  0.35060375953E+00  0.12127924764E+00  0.10358424228E+01  0.93800000000E+00 0.  1.
         22    1    1    2    0    0 -0.19615045737E+00 -0.31084135536E+00  0.31726183892E+01  0.31938385672E+01  0.00000000000E+00 0. -1.
</event>
<event>
 5    1  0.8240609E+001  0.1599676E+01  0.7818608E-02  0.3353715E+00
         11   -1    0    0    0    0  0.00000000000E+00  0.00000000000E+00  0.39999999674E+01  0.40000000000E+01  0.51100000000E-03 0. -1.
    9000002   -1    0    0    0    0 -0.00000000000E+00 -0.00000000000E+00  0.00000000000E+00  0.93800000000E+00  0.93800000000E+00 0.  1.
         11    1    1    2    0    0  0.14108959886E+00 -0.25473633881E-01  0.11342092047E+01  0.11432348674E+01  0.51100000000E-03 0. -1.
    9000002    1    1    2    0    0 -0.47494216796E+00  0.83588489256E-01  0.15873596783E+00  0.10665824890E+01  0.93800000000E+00 0.  1.
         22    1    1    2    0    0  0.33385256910E+00 -0.58114855375E-01  0.27070547949E+01  0.27281826436E+01  0.00000000000E+00 0. -1.
</event>
<event>
 5    1  0.8240609E+001  0.1597547E+01  0.7818608E-02  0.3356030E+00
         11   -1    0    0    0    0  0.00000000000E+00  0.00000000000E+00  0.39999999674E+01  0.40000000000E+01  0.51100000000E-03 0.  1.
    9000002   -1    0    0    0    0 -0.00000000000E+00 -0.00000000000E+00  0.00000000000E+00  0.93800000000E+00  0.93800000000E+00 0. -1.
         11    1    1    2    0    0  0.54016412161E-01 -0.88475210095E-01  0.54372286703E+00  0.55351644315E+00  0.51100000000E-03 0.  1.
    9000002    1    1    2    0    0 -0.11521935755E+00  0.69008795518E+00  0.35218616978E+00  0.12220376363E+01  0.93800000000E+00 0. -1.
         22    1    1    2    0    0  0.61202945391E-01 -0.60161274509E+00  0.31040909305E+01  0.31624459206E+01  0.00000000000E+00 0.  1.
</event>
<event>
 5    1  0.8240609E+001  0.1595771E+01  0.7818608E-02  0.3357966E+00
         11   -1    0    0    0    0  0.00000000000E+00  0.00000000000E+00  0.39999999674E+01  0.40000000000E+01  0.51100000000E-03 0. -1.
    9000002   -1    0    0    0    0 -0.00000000000E+00 -0.00000000000E+00  0.00000000000E+00  0.93800000000E+00  0.93800000000E+00 0.  1.
         11    1    1    2    0    0 -0.15638028672E-01  0.18131408205E-01  0.10491933682E+01  0.10494666650E+01  0.51100000000E-03 0. -1.
    9000002    1    1    2    0    0  0.30821633347E+00 -0.69419610576E-01  0.69780158388E-01  0.99223468043E+00  0.93800000000E+00 0.  1.
         22    1    1    2    0    0 -0.29257830480E+00  0.51288202371E-01  0.28810264407E+01  0.28962986546E+01  0.00000000000E+00 0. -1.
</event>
<event>
 5    1  0.8240609E+001  0.1599667E+01  0.7818608E-02  0.3353725E+00
         11   -1    0    0    0    0  0.00000000000E+00  0.00000000000E+00  0.39999999674E+01  0.40000000000E+01  0.51100000000E-03 0.  1.
    9000002   -1    0    0    0    0 -0.00000000000E+00 -0.00000000000E+00  0.00000000000E+00  0.93800000000E+00  0.93800000000E+00 0. -1.
         11    1    1    2    0    0  0.57677201245E-01  0.26192435302E-01  0.45157017911E+00  0.45599187602E+00  0.51100000000E-03 0.  1.
    9000002    1    1    2    0    0 -0.49763504668E+00 -0.23605564455E+00  0.20957413168E+00  0.11077581973E+01  0.93800000000E+00 0. -1.
         22    1    1    2    0    0  0.43995784543E+00  0.20986320925E+00  0.33388556566E+01  0.33742499267E+01  0.00000000000E+00 0.  1.
</event>
<event>
 5    1  0.8240609E+001  0.1599627E+01  0.7818608E-02  0.3353769E+00
         11   -1    0    0    0    0  0.00000000000E+00  0.00000000000E+00  0.39999999674E+01  0.40000000000E+01  0.51100000000E-03 0. -1.
    9000002   -1    0    0    0    0 -0.00000000000E+00 -0.00000000000E+00  0.00000000000E+00  0.93800000000E+00  0.93800000000E+00 0. -1.
         11    1    1    2    0    0  0.43682419636E-01 -0.29604979474E-01  0.48907224322E+00  0.49191109847E+00  0.51100000000E-03 0. -1.
    9000002    1    1    2    0    0 -0.30528776153E+00  0.22371934557E+00  0.96408548074E-01  0.10160657317E+01  0.93800000000E+00 0. -1.
         22    1    1    2    0    0  0.26160534190E+00 -0.19411436610E+00  0.34145191761E+01  0.34300231699E+01  0.00000000000E+00 0.  1.
</event>
<event>
 5    1  0.8240609E+001  0.1598340E+01  0.7818608E-02  0.3355168E+00
         11   -1    0    0    0    0  0.00000000000E+00  0.00000000000E+00  0.39999999674E+01  0.40000000000E+01  0.51100000000E-03 0.  1.
    9000002   -1    0    0    0    0 -0.00000000000E+00 -0.00000000000E+00  0.00000000000E+00  0.93800000000E+00  0.93800000000E+00 0. -1.
         11    1    1    2    0    0  0.49943714991E-02  0.27531711814E-01  0.30195885208E+00  0.30325294454E+00  0.51100000000E-03 0.  1.
    9000002    1    1    2    0    0  0.23364152281E+00 -0.40350853606E+00  0.14919346616E+00  0.10580690857E+01  0.93800000000E+00 0. -1.
         22    1    1    2    0    0 -0.23863589431E+00  0.37597682424E+00  0.35488476491E+01  0.35766779697E+01  0.00000000000E+00 0.  1.
</event>
<event>
 5    1  0.8240609E+001  0.1599677E+01  0.7818608E-02  0.3353714E+00
         11   -1    0    0    0    0  0.00000000000E+00  0.00000000000E+00  0.39999999674E+01  0.40000000000E+01  0.51100000000E-03 0. -1.
    9000002   -1    0    0    0    0 -0.00000000000E+00 -0.00000000000E+00  0.00000000000E+00  0.93800000000E+00  0.93800000000E+00 0. -1.
         11    1    1    2    0    0  0.25843295411E-01  0.10759919138E+00  0.11987566310E+01  0.12038534726E+01  0.51100000000E-03 0. -1.
    9000002    1    1    2    0    0 -0.85057384992E-01 -0.35032456451E+00  0.87243699805E-01  0.10086711666E+01  0.93800000000E+00 0. -1.
         22    1    1    2    0    0  0.59214089581E-01  0.24272537313E+00  0.27139996365E+01  0.27254753608E+01  0.00000000000E+00 0. -1.
</event>
<event>
 5    1  0.8240609E+001  0.1599666E+01  0.7818608E-02  0.3353726E+00
         11   -1    0    0    0    0  0.00000000000E+00  0.00000000000E+00  0.39999999674E+01  0.40000000000E+01  0.51100000000E-03 0.  1.
    9000002   -1    0    0    0    0 -0.00000000000E+00 -0.00000000000E+00  0.00000000000E+00  0.93800000000E+00  0.93800000000E+00 0.  1.
         11    1    1    2    0    0 -0.25680413352E+00 -0.98760629325E-01  0.11152764470E+01  0.11487139937E+01  0.51100000000E-03 0.  1.
    9000002    1    1    2    0    0  0.80019399887E+00  0.31411069763E+00  0.55631784173E+00  0.13886358440E+01  0.93800000000E+00 0.  1.
         22    1    1    2    0    0 -0.54338986535E+00 -0.21535006830E+00  0.23284056786E+01  0.24006501624E+01  0.00000000000E+00 0. -1.
</event>
<event>
 5    1  0.8240609E+001  0.1599015E+01  0.7818608E-02  0.3354433E+00
         11   -1    0    0    0    0  0.00000000000E+00  0.00000000000E+00  0.39999999674E+01  0.40000000000E+01  0.51100000000E-03 0.  1.
    9000002   -1    0    0    0    0 -0.00000000000E+00 -0.00000000000E+00  0.00000000000E+00  0.93800000000E+00  0.93800000000E+00 0.  1.
         11    1    1    2    0    0 -0.64812257100E-01 -0.98289134805E-01  0.96016935629E+00  0.96736075824E+00  0.51100000000E-03 0.  1.
    9000002    1    1    2    0    0  0.36198837555E+00  0.40436292583E+00  0.20378413023E+00  0.11026862344E+01  0.93800000000E+00 0.  1.
         22    1    1    2    0    0 -0.29717611845E+00 -0.30607379102E+00  0.28360464808E+01  0.28679530074E+01  0.00000000000E+00 0.  1.
</event>
<event>
 5    1  0.8240609E+001  0.1599676E+01  0.7818608E-02  0.3353715E+00
         11   -1    0    0    0    0  0.00000000000E+00  0.00000000000E+00  0.39999999674E+01  0.40000000000E+01  0.51100000000E-03 0.  1.
    9000002   -1    0    0    0    0 -0.00000000000E+00 -0.00000000000E+00  0.00000000000E+00  0.93800000000E+00  0.93800000000E+00 0.  1.
         11    1    1    2    0    0  0.54900377231E-01 -0.95979617790E-01  0.11343418076E+01  0.11397182705E+01  0.51100000000E-03 0.  1.
    9000002    1    1    2    0    0 -0.18808993638E+00  0.32759559320E+00  0.95986549582E-01  0.10157529791E+01  0.93800000000E+00 0.  1.
         22    1    1    2    0    0  0.13318955915E+00 -0.23161597541E+00  0.27696716102E+01  0.27825287504E+01  0.00000000000E+00 0. -1.
</event>
<event>
 5    1  0.8240609E+001  0.1599677E+01  0.7818608E-02  0.3353715E+00
         11   -1    0    0    0    0  0.00000000000E+00  0.00000000000E+00  0.39999999674E+01  0.40000000000E+01  0.51100000000E-03 0. -1.
    9000002   -1    0    0    0    0 -0.00000000000E+00 -0.00000000000E+00  0.00000000000E+00  0.93800000000E+00  0.93800000000E+00 0.  1.
         11    1    1    2    0    0 -0.43536904132E-01 -0.11542840823E+00  0.12395493777E+01  0.12456733522E+01  0.51100000000E-03 0. -1.
    9000002    1    1    2    0    0  0.13555047822E+00  0.36490219199E+00  0.10207018411E+00  0.10206810787E+01  0.93800000000E+00 0.  1.
         22    1    1    2    0    0 -0.92013574092E-01 -0.24947378376E+00  0.26583804055E+01  0.26716455692E+01  0.00000000000E+00 0. -1.
</event>
<event>
 5    1  0.1082877E+002  0.1599677E+01  0.7818608E-02  0.3353714E+00
         11   -1    0    0    0    0  0.00000000000E+00  0.00000000000E+00  0.39999999674E+01  0.40000000000E+01  0.51100000000E-03 0.  1.
    9000002   -1    0    0    0    0 -0.00000000000E+00 -0.00000000000E+00  0.00000000000E+00  0.93800000000E+00  0.93800000000E+00 0. -1.
         11    1    1    2    0    0  0.13884682617E+00 -0.56225083048E-02  0.14853110498E+01  0.14917973152E+01  0.51100000000E-03 0. -1.
    9000002    1    1    2    0    0 -0.36573914056E+00  0.15034416228E-01  0.90005719618E-01  0.10109085924E+01  0.93800000000E+00 0. -1.
         22    1    1    2    0    0  0.22689231439E+00 -0.94119079234E-02  0.24246831979E+01  0.24352940924E+01  0.00000000000E+00 0.  1.
</event>
<event>
 5    1  0.8240609E+001  0.1599580E+01  0.7818608E-02  0.3353819E+00
         11   -1    0    0    0    0  0.00000000000E+00  0.00000000000E+00  0.39999999674E+01  0.40000000000E+01  0.51100000000E-03 0. -1.
    9000002   -1    0    0    0    0 -0.00000000000E+00 -0.00000000000E+00  0.00000000000E+00  0.93800000000E+00  0.93800000000E+00 0.  1.
         11    1    1    2    0    0 -0.78723226015E-01 -0.77106460695E-01  0.10954784518E+01  0.11010068356E+01  0.51100000000E-03 0. -1.
    9000002    1    1    2    0    0  0.24318826868E+00  0.28015235184E+00  0.92579420064E-01  0.10129367321E+01  0.93800000000E+00 0.  1.
         22    1    1    2    0    0 -0.16446504267E+00 -0.20304589115E+00  0.28119420955E+01  0.28240564322E+01  0.00000000000E+00 0. -1.
</event>
<event>
 5    1  0.8240609E+001  0.1598292E+01  0.7818608E-02  0.3355219E+00
         11   -1    0    0    0    0  0.00000000000E+00  0.00000000000E+00  0.39999999674E+01  0.40000000000E+01  0.51100000000E-03 0.  1.
    9000002   -1    0    0    0    0 -0.00000000000E+00 -0.00000000000E+00  0.00000000000E+00  0.93800000000E+00  0.93800000000E+00 0.  1.
         11    1    1    2    0    0  0.14208536217E+00  0.89989151650E-01  0.94987686740E+00  0.96465155465E+00  0.51100000000E-03 0.  1.
    9000002    1    1    2    0    0 -0.44141492991E+00 -0.45331450961E+00  0.28278366436E+00  0.11662554548E+01  0.93800000000E+00 0.  1.
         22    1    1    2    0    0  0.29932956774E+00  0.36332535796E+00  0.27673394356E+01  0.28070929906E+01  0.00000000000E+00 0.  1.
</event>
<event>
 5    1  0.8240609E+001  0.1598488E+01  0.7818608E-02  0.3355006E+00
         11   -1    0    0    0    0  0.00000000000E+00  0.00000000000E+00  0.39999999674E+01  0.40000000000E+01  0.51100000000E-03 0. -1.
    9000002   -1    0    0    0    0 -0.00000000000E+00 -0.00000000000E+00  0.00000000000E+00  0.93800000000E+00  0.93800000000E+00 0.  1.
         11    1    1    2    0    0  0.42529124514E-01  0.12432571612E+00  0.13680840540E+01  0.13743798056E+01  0.51100000000E-03 0. -1.
    9000002    1    1    2    0    0 -0.23268987474E+00 -0.36002588984E+00  0.12543911306E+00  0.10389139475E+01  0.93800000000E+00 0.  1.
         22    1    1    2    0    0  0.19016075023E+00  0.23570017372E+00  0.25064768003E+01  0.25247062469E+01  0.00000000000E+00 0. -1.
</event>
<event>
 5    1  0.8240609E+001  0.1565930E+01  0.7818608E-02  0.3391192E+00
         11   -1    0    0    0    0  0.00000000000E+00  0.00000000000E+00  0.39999999674E+01  0.40000000000E+01  0.51100000000E-03 0. -1.
    9000002   -1    0    0    0    0 -0.00000000000E+00 -0.00000000000E+00  0.00000000000E+00  0.93800000000E+00  0.93800000000E+00 0. -1.
         11    1    1    2    0    0  0.15930803731E+00 -0.70647600818E-01  0.10472866886E+01  0.10616872437E+01  0.51100000000E-03 0. -1.
    9000002    1    1    2    0    0 -0.11721862565E-01 -0.17516445555E+00  0.45896605379E-01  0.95539022757E+00  0.93800000000E+00 0. -1.
         22    1    1    2    0    0 -0.14758617475E+00  0.24581205637E+00  0.29068166734E+01  0.29209225287E+01  0.00000000000E+00 0. -1.
</event>
<event>
 5    1  0.8240609E+001  0.1593673E+01  0.7818608E-02  0.3360259E+00
         11   -1    0    0    0    0  0.00000000000E+00  0.00000000000E+00  0.39999999674E+01  0.40000000000E+01  0.51100000000E-03 0. -1.
    9000002   -1    0    0    0    0 -0.00000000000E+00 -0.00000000000E+00  0.00000000000E+00  0.93800000000E+00  0.93800000000E+00 0. -1.
         11    1    1    2    0    0  0.14444288879E-01  0.86204296823E-02  0.81832930325E+00  0.81850232679E+00  0.51100000000E-03 0. -1.
    9000002    1    1    2    0    0  0.20049982839E+00  0.20329525553E+00  0.58997130586E-01  0.98226972035E+00  0.93800000000E+00 0. -1.
         22    1    1    2    0    0 -0.21494411727E+00 -0.21191568521E+00  0.31226735335E+01  0.31372279529E+01  0.00000000000E+00 0. -1.
</event>
<event>
 5    1  0.8240609E+001  0.1592513E+01  0.7818608E-02  0.3361530E+00
         11   -1    0    0    0    0  0.00000000000E+00  0.00000000000E+00  0.39999999674E+01  0.40000000000E+01  0.51100000000E-03 0.  1.
    9000002   -1    0    0    0    0 -0.00000000000E+00 -0.00000000000E+00  0.00000000000E+00  0.93800000000E+00  0.93800000000E+00 0.  1.
         11    1    1    2    0    0  0.92969821191E-01 -0.53573511144E-01  0.45141491674E+00  0.46399266904E+00  0.51100000000E-03 0.  1.
    9000002    1    1    2    0    0 -0.26888092775E+00  0.68503629795E+00  0.39944466302E+00  0.12573669797E+01  0.93800000000E+00 0.  1.
         22    1    1    2    0    0  0.17591110656E+00 -0.63146278681E+00  0.31491403876E+01  0.32166403513E+01  0.00000000000E+00 0.  1.
</event>
<event>
 5    1  0.8240609E+001  0.1599661E+01  0.7818608E-02  0.3353731E+00
         11   -1    0    0    0    0  0.00000000000E+00  0.00000000000E+00  0.39999999674E+01  0.40000000000E+01  0.51100000000E-03 0. -1.
    9000002   -1    0    0    0    0 -0.00000000000E+00 -0.00000000000E+00  0.00000000000E+00  0.93800000000E+00  0.93800000000E+00 0. -1.
         11    1    1    2    0    0  0.89750387659E-02 -0.46316128737E-02  0.90324226735E-01  0.90888559318E-01  0.51100000000E-03 0. -1.
    9000002    1    1    2    0    0 -0.39501610145E+00  0.25480500525E+00  0.15054574109E+00  0.10599393055E+01  0.93800000000E+00 0. -1.
         22    1    1    2    0    0  0.38604106269E+00 -0.25017339238E+00  0.37591299995E+01  0.37871721352E+01  0.00000000000E+00 0. -1.
</event>
<event>
 5    1  0.8240609E+001  0.1599417E+01  0.7818608E-02  0.3353996E+00
         11   -1    0    0    0    0  0.00000000000E+00  0.00000000000E+00  0.39999999674E+01  0.40000000000E+01  0.51100000000E-03 0.  1.
    9000002   -1    0    0    0    0 -0.00000000000E+00 -0.00000000000E+00  0.00000000000E+00  0.93800000000E+00  0.93800000000E+00 0. -1.
         11    1    1    2    0    0  0.10286417576E+00 -0.37305051370E-02  0.92312678150E+00  0.92884781916E+00  0.51100000000E-03 0.  1.
    9000002    1    1    2    0    0 -0.40599196846E+00 -0.48336971660E-01  0.11310436622E+00  0.10294671141E+01  0.93800000000E+00 0. -1.
         22    1    1    2    0    0  0.30312779270E+00  0.52067476797E-01  0.29637688196E+01  0.29796850668E+01  0.00000000000E+00 0.  1.
</event>
<event>
 5    1  0.8240609E+001  0.1583073E+01  0.7818608E-02  0.3371943E+00
         11   -1    0    0    0    0  0.00000000000E+00  0.00000000000E+00  0.39999999674E+01  0.40000000000E+01  0.51100000000E-03 0. -1.
    9000002   -1    0    0    0    0 -0.00000000000E+00 -0.00000000000E+00  0.00000000000E+00  0.93800000000E+00  0.93800000000E+00 0.  1.
         11    1    1    2    0    0  0.48996535701E-01  0.10004502657E-01  0.10945286084E+01  0.10956705190E+01  0.51100000000E-03 0. -1.
    9000002    1    1    2    0    0  0.32295680962E+00 -0.43597802271E-01  0.84327187925E-01  0.99657259839E+00  0.93800000000E+00 0.  1.
         22    1    1    2    0    0 -0.37195334532E+00  0.33593299613E-01  0.28211441710E+01  0.28457568826E+01  0.00000000000E+00 0. -1.
</event>
<event>
 5    1  0.8240609E+001  0.1587684E+01  0.7818608E-02  0.3366840E+00
         11   -1    0    0    0    0  0.00000000000E+00  0.00000000000E+00  0.39999999674E+01  0.40000000000E+01  0.51100000000E-03 0. -1.
    9000002   -1    0    0    0    0 -0.00000000000E+00 -0.00000000000E+00  0.00000000000E+00  0.93800000000E+00  0.93800000000E+00 0. -1.
         11    1    1    2    0    0  0.86769333718E-01  0.85276051116E-01  0.44685985115E+00  0.46312515572E+00  0.51100000000E-03 0. -1.
    9000002    1    1    2    0    0 -0.70472638703E+00  0.12707623956E-01  0.36917160966E+00  0.12300131876E+01  0.93800000000E+00 0. -1.
         22    1    1    2    0    0  0.61795705331E+00 -0.97983675071E-01  0.31839685065E+01  0.32448616567E+01  0.00000000000E+00 0. -1.
</event>
<event>
 5    1  0.8240609E+001  0.1599342E+01  0.7818608E-02  0.3354078E+00
         11   -1    0    0    0    0  0.00000000000E+00  0.00000000000E+00  0.39999999674E+01  0.40000000000E+01  0.51100000000E-03 0.  1.
    9000002   -1    0    0    0    0 -0.00000000000E+00 -0.00000000000E+00  0.00000000000E+00  0.93800000000E+00  0.93800000000E+00 0.  1.
         11    1    1    2    0    0 -0.13131342132E-01  0.13218492134E+00  0.11039433580E+01  0.11119066887E+01  0.51100000000E-03 0.  1.
    9000002    1    1    2    0    0  0.72872319096E-01 -0.40049296962E+00  0.11215421126E+00  0.10286532753E+01  0.93800000000E+00 0.  1.
         22    1    1    2    0    0 -0.59740976964E-01  0.26830804828E+00  0.27839023981E+01  0.27974400361E+01  0.00000000000E+00 0.  1.
</event>
<event>
 5    1  0.8240609E+001  0.1587389E+01  0.7818608E-02  0.3367166E+00
         11   -1    0    0    0    0  0.00000000000E+00  0.00000000000E+00  0.39999999674E+01  0.40000000000E+01  0.51100000000E-03 0. -1.
    9000002   -1    0    0    0    0 -0.00000000000E+00 -0.00000000000E+00  0.00000000000E+00  0.93800000000E+00  0.93800000000E+00 0. -1.
         11    1    1    2    0    0  0.72664524009E-02 -0.99848719121E-01  0.11541741475E+01  0.11585080026E+01  0.51100000000E-03 0. -1.
    9000002    1    1    2    0    0 -0.41161345509E+00  0.20487030847E+00  0.15456312220E+00  0.10559977455E+01  0.93800000000E+00 0. -1.
         22    1    1    2    0    0  0.40434700269E+00 -0.10502158935E+00  0.26912626976E+01  0.27234942520E+01  0.00000000000E+00 0. -1.
</event>
<event>
 5    1  0.8240609E+001  0.1599292E+01  0.7818608E-02  0.3354133E+00
         11   -1    0    0    0    0  0.00000000000E+00  0.00000000000E+00  0.39999999674E+01  0.40000000000E+01  0.51100000000E-03 0. -1.
    9000002   -1    0    0    0    0 -0.00000000000E+00 -0.00000000000E+00  0.00000000000E+00  0.93800000000E+00  0.93800000000E+00 0. -1.
         11    1    1    2    0    0  0.56201406871E-01  0.13601650911E+00  0.12554207588E+01  0.12640176548E+01  0.51100000000E-03 0. -1.
    9000002    1    1    2    0    0 -0.16258513376E+00 -0.35438564961E+00  0.10273029529E+00  0.10209900234E+01  0.93800000000E+00 0. -1.
         22    1    1    2    0    0  0.10638372689E+00  0.21836914050E+00  0.26418489132E+01  0.26529923217E+01  0.00000000000E+00 0. -1.
</event>
<event>
 5    1  0.1299648E+002  0.1529345E+01  0.7818608E-02  0.3433810E+00
         11   -1    0    0    0    0  0.00000000000E+00  0.00000000000E+00  0.39999999674E+01  0.40000000000E+01  0.51100000000E-03 0.  1.
    9000002   -1    0    0    0    0 -0.00000000000E+00 -0.00000000000E+00  0.00000000000E+00  0.93800000000E+00  0.93800000000E+00 0. -1.
         11    1    1    2    0    0  0.14663464095E+00  0.25386792006E+00  0.11935589421E+01  0.12290377733E+01  0.51100000000E-03 0.  1.
    9000002    1    1    2    0    0 -0.37020081071E-01  0.22714103154E-01  0.54072100565E-01  0.94056058228E+00  0.93800000000E+00 0. -1.
         22    1    1    2    0    0 -0.10961455988E+00 -0.27658202321E+00  0.27523689247E+01  0.27684016444E+01  0.00000000000E+00 0.  1.
</event>
<event>
 5    1  0.8240609E+001  0.1539543E+01  0.7818608E-02  0.3421714E+00
         11   -1    0    0    0    0  0.00000000000E+00  0.00000000000E+00  0.39999999674E+01  0.40000000000E+01  0.51100000000E-03 0. -1.
    9000002   -1    0    0    0    0 -0.00000000000E+00 -0.00000000000E+00  0.00000000000E+00  0.93800000000E+00  0.93800000000E+00 0.  1.
         11    1    1    2    0    0 -0.72658403563E-01 -0.28236509022E+00  0.11009465214E+01  0.11388998164E+01  0.51100000000E-03 0. -1.
    9000002    1    1    2    0    0  0.25913715169E+00  0.56291269853E-01  0.94563620076E-01  0.97934010879E+00  0.93800000000E+00 0.  1.
         22    1    1    2    0    0 -0.18647874813E+00  0.22607382037E+00  0.28044898259E+01  0.28197600748E+01  0.00000000000E+00 0. -1.
</event>
<event>
 5    1  0.8240609E+001  0.1599677E+01  0.7818608E-02  0.3353714E+00
         11   -1    0    0    0    0  0.00000000000E+00  0.00000000000E+00  0.39999999674E+01  0.40000000000E+01  0.51100000000E-03 0.  1.
    9000002   -1    0    0    0    0 -0.00000000000E+00 -0.00000000000E+00  0.00000000000E+00  0.93800000000E+00  0.93800000000E+00 0.  1.
         11    1    1    2    0    0  0.57138602288E-01  0.35135303720E-01  0.54346784426E+00  0.54759188115E+00  0.51100000000E-03 0. -1.
    9000002    1    1    2    0    0 -0.40679807832E+00 -0.24880971287E+00  0.15507588832E+00  0.10636181086E+01  0.93800000000E+00 0.  1.
         22    1    1    2    0    0  0.34965947603E+00  0.21367440915E+00  0.33014562348E+01  0.33267900103E+01  0.00000000000E+00 0.  1.
</event>
<event>
 5    1  0.8240609E+001  0.1599677E+01  0.7818608E-02  0.3353714E+00
         11   -1    0    0    0    0  0.00000000000E+00  0.00000000000E+00  0.39999999674E+01  0.40000000000E+01  0.51100000000E-03 0.  1.
    9000002   -1    0    0    0    0 -0.00000000000E+00 -0.00000000000E+00  0.00000000000E+00  0.93800000000E+00  0.93800000000E+00 0. -1.
         11    1    1    2    0    0  0.59072875244E-01  0.22566568825E-01  0.66898172316E+00  0.67196403301E+00  0.51100000000E-03 0. -1.
    9000002    1    1    2    0    0 -0.34630756719E+00 -0.13130927401E+00  0.92188380964E-01  0.10126765299E+01  0.93800000000E+00 0. -1.
         22    1    1    2    0    0  0.28723469195E+00  0.10874270519E+00  0.32388298632E+01  0.32533594371E+01  0.00000000000E+00 0.  1.
</event>
<event>
 5    1  0.8240609E+001  0.1599155E+01  0.7818608E-02  0.3354281E+00
         11   -1    0    0    0    0  0.00000000000E+00  0.00000000000E+00  0.39999999674E+01  0.40000000000E+01  0.51100000000E-03 0.  1.
    9000002   -1    0    0    0    0 -0.00000000000E+00 -0.00000000000E+00  0.00000000000E+00  0.93800000000E+00  0.93800000000E+00 0.  1.
         11    1    1    2    0    0 -0.19593786409E-01  0.87829765224E-02  0.20161302577E+00  0.20275386661E+00  0.51100000000E-03 0.  1.
    9000002    1    1    2    0    0  0.37278833320E+00  0.65299079248E-01  0.96784521569E-01  0.10160936742E+01  0.93800000000E+00 0.  1.
         22    1    1    2    0    0 -0.35319454679E+00 -0.74082055771E-01  0.37016024200E+01  0.37191524592E+01  0.00000000000E+00 0.  1.
</event>
<event>
 5    1  0.8240609E+001  0.1597881E+01  0.7818608E-02  0.3355667E+00
         11   -1    0    0    0    0  0.00000000000E+00  0.00000000000E+00  0.39999999674E+01  0.40000000000E+01  0.51100000000E-03 0.  1.
    9000002   -1    0    0    0    0 -0.00000000000E+00 -0.00000000000E+00  0.00000000000E+00  0.93800000000E+00  0.93800000000E+00 0.  1.
         11    1    1    2    0    0  0.17073264251E-01  0.37075892668E-01  0.78379592825E+00  0.78485822696E+00  0.51100000000E-03 0.  1.
    9000002    1    1    2    0    0 -0.28718547075E+00 -0.15162563072E+00  0.71953642352E-01  0.99523221067E+00  0.93800000000E+00 0.  1.
         22    1    1    2    0    0  0.27011220650E+00  0.11454973805E+00  0.31442503968E+01  0.31579095624E+01  0.00000000000E+00 0.  1.
</event>
<event>
 5    1  0.8240609E+001  0.1599655E+01  0.7818608E-02  0.3353738E+00
         11   -1    0    0    0    0  0.00000000000E+00  0.00000000000E+00  0.39999999674E+01  0.40000000000E+01  0.51100000000E-03 0.  1.
    9000002   -1    0    0    0    0 -0.00000000000E+00 -0.00000000000E+00  0.00000000000E+00  0.93800000000E+00  0.93800000000E+00 0.  1.
         11    1    1    2    0    0 -0.16860894224E+00  0.28239022897E-01  0.50520539842E+00  0.53334714168E+00  0.51100000000E-03 0.  1.
    9000002    1    1    2    0    0  0.10246515727E+01 -0.19687855273E+00  0.89948588135E+00  0.16666105906E+01  0.93800000000E+00 0.  1.
         22    1    1    2    0    0 -0.85604263041E+00  0.16863952984E+00  0.25953086876E+01  0.27380422677E+01  0.00000000000E+00 0.  1.
</event>
<event>
 5    1  0.8240609E+001  0.1552014E+01  0.7818608E-02  0.3407151E+00
         11   -1    0    0    0    0  0.00000000000E+00  0.00000000000E+00  0.39999999674E+01  0.40000000000E+01  0.51100000000E-03 0.  1.
    9000002   -1    0    0    0    0 -0.00000000000E+00 -0.00000000000E+00  0.00000000000E+00  0.93800000000E+00  0.93800000000E+00 0.  1.
         11    1    1    2    0    0  0.98436289638E-01  0.79864082729E-01  0.33226272372E+00  0.35562164378E+00  0.51100000000E-03 0.  1.
    9000002    1    1    2    0    0 -0.41811845200E-01  0.40165985553E+00  0.15095550461E+00  0.10323325212E+01  0.93800000000E+00 0.  1.
         22    1    1    2    0    0 -0.56624444438E-01 -0.48152393826E+00  0.35167817390E+01  0.35500458350E+01  0.00000000000E+00 0.  1.
</event>
<event>
 5    1  0.8240609E+001  0.1598660E+01  0.7818608E-02  0.3354819E+00
         11   -1    0    0    0    0  0.00000000000E+00  0.00000000000E+00  0.39999999674E+01  0.40000000000E+01  0.51100000000E-03 0.  1.
    9000002   -1    0    0    0    0 -0.00000000000E+00 -0.00000000000E+00  0.00000000000E+00  0.93800000000E+00  0.93800000000E+00 0. -1.
         11    1    1    2    0    0  0.10374298749E-01 -0.74015476480E-01  0.67246188130E+00  0.67660266017E+00  0.51100000000E-03 0.  1.
    9000002    1    1    2    0    0  0.98086242901E-01  0.37230835648E+00  0.10063699061E+00  0.10189240537E+01  0.93800000000E+00 0. -1.
         22    1    1    2    0    0 -0.10846054165E+00 -0.29829288000E+00  0.32269010955E+01  0.32424732861E+01  0.00000000000E+00 0.  1.
</event>
<event>
 5    1  0.8240609E+001  0.1599478E+01  0.7818608E-02  0.3353930E+00
         11   -1    0    0    0    0  0.00000000000E+00  0.00000000000E+00  0.39999999674E+01  0.40000000000E+01  0.51100000000E-03 0.  1.
    9000002   -1    0    0    0    0 -0.00000000000E+00 -0.00000000000E+00  0.00000000000E+00  0.93800000000E+00  0.93800000000E+00 0. -1.
         11    1    1    2    0    0  0.91818224501E-01  0.25041976910E-01  0.10482170953E+01  0.10525288723E+01  0.51100000000E-03 0.  1.
    9000002    1    1    2    0    0 -0.39645984771E+00 -0.87796781732E-01  0.11147410894E+00  0.10281824559E+01  0.93800000000E+00 0. -1.
         22    1    1    2    0    0  0.30464162321E+00  0.62754804822E-01  0.28403087631E+01  0.28572886718E+01  0.00000000000E+00 0.  1.
</event>
<event>
 5    1  0.8240609E+001  0.1599582E+01  0.7818608E-02  0.3353817E+00
         11   -1    0    0    0    0  0.00000000000E+00  0.00000000000E+00  0.39999999674E+01  0.40000000000E+01  0.51100000000E-03 0. -1.
    9000002   -1    0    0    0    0 -0.00000000000E+00 -0.00000000000E+00  0.00000000000E+00  0.93800000000E+00  0.93800000000E+00 0.  1.
         11    1    1    2    0    0  0.10550934705E-02  0.20803754315E-02  0.11441787782E-01  0.11688319504E-01  0.51100000000E-03 0. -1.
    9000002    1    1    2    0    0 -0.20688690840E+00 -0.33649829355E+00  0.10525963495E+00  0.10232091112E+01  0.93800000000E+00 0.  1.
         22    1    1    2    0    0  0.20583181493E+00  0.33441791812E+00  0.38832985446E+01  0.39031025693E+01  0.00000000000E+00 0. -1.
</event>
<event>
 5    1  0.8240609E+001  0.1599673E+01  0.7818608E-02  0.3353719E+00
         11   -1    0    0    0    0  0.00000000000E+00  0.00000000000E+00  0.39999999674E+01  0.40000000000E+01  0.51100000000E-03 0. -1.
    9000002   -1    0    0    0    0 -0.00000000000E+00 -0.00000000000E+00  0.00000000000E+00  0.93800000000E+00  0.93800000000E+00 0.  1.
         11    1    1    2    0    0 -0.14985188150E+00 -0.29634390694E+00  0.12255586289E+01  0.12697517519E+01  0.51100000000E-03 0. -1.
    9000002    1    1    2    0    0  0.41576469529E+00  0.81505509982E+00  0.64504963565E+00  0.14605163916E+01  0.93800000000E+00 0.  1.
         22    1    1    2    0    0 -0.26591281380E+00 -0.51871119288E+00  0.21293917028E+01  0.22077318565E+01  0.00000000000E+00 0. -1.
</event>
<event>
 5    1  0.8240609E+001  0.1542079E+01  0.7818608E-02  0.3418733E+00
         11   -1    0    0    0    0  0.00000000000E+00  0.00000000000E+00  0.39999999674E+01  0.40000000000E+01  0.51100000000E-03 0. -1.
    9000002   -1    0    0    0    0 -0.00000000000E+00 -0.00000000000E+00  0.00000000000E+00  0.93800000000E+00  0.93800000000E+00 0. -1.
         11    1    1    2    0    0  0.73335589563E-02 -0.27155564426E+00  0.12464841098E+01  0.12757425862E+01  0.51100000000E-03 0. -1.
    9000002    1    1    2    0    0 -0.30713073086E+00  0.54971915353E-01  0.11186430611E+00  0.99484110304E+00  0.93800000000E+00 0. -1.
         22    1    1    2    0    0  0.29979717190E+00  0.21658372890E+00  0.26416515514E+01  0.26674163108E+01  0.00000000000E+00 0. -1.
</event>
<event>
 5    1  0.8240609E+001  0.1599560E+01  0.7818608E-02  0.3353842E+00
         11   -1    0    0    0    0  0.00000000000E+00  0.00000000000E+00  0.39999999674E+01  0.40000000000E+01  0.51100000000E-03 0.  1.
    9000002   -1    0    0    0    0 -0.00000000000E+00 -0.00000000000E+00  0.00000000000E+00  0.93800000000E+00  0.93800000000E+00 0.  1.
         11    1    1    2    0    0 -0.19400121536E+00 -0.91054497563E-01  0.11714533464E+01  0.11908948723E+01  0.51100000000E-03 0.  1.
    9000002    1    1    2    0    0  0.58577358740E+00  0.26197101285E+00  0.29010645059E+00  0.11729302025E+01  0.93800000000E+00 0.  1.
         22    1    1    2    0    0 -0.39177237204E+00 -0.17091651529E+00  0.25384401704E+01  0.25741749252E+01  0.00000000000E+00 0.  1.
</event>
<event>
 5    1  0.8240609E+001  0.1599675E+01  0.7818608E-02  0.3353716E+00
         11   -1    0    0    0    0  0.00000000000E+00  0.00000000000E+00  0.39999999674E+01  0.40000000000E+01  0.51100000000E-03 0. -1.
    9000002   -1    0    0    0    0 -0.00000000000E+00 -0.00000000000E+00  0.00000000000E+00  0.93800000000E+00  0.93800000000E+00 0. -1.
         11    1    1    2    0    0 -0.59060379482E-01  0.64851293176E-01  0.72911029929E+00  0.73436769285E+00  0.51100000000E-03 0. -1.
    9000002    1    1    2    0    0  0.31667796680E+00 -0.33724269189E+00  0.14563464803E+00  0.10559692318E+01  0.93800000000E+00 0. -1.
         22    1    1    2    0    0 -0.25761758731E+00  0.27239139871E+00  0.31252550200E+01  0.31476630753E+01  0.00000000000E+00 0. -1.
</event>
<event>
 5    1  0.8240609E+001  0.1599104E+01  0.7818608E-02  0.3354336E+00
         11   -1    0    0    0    0  0.00000000000E+00  0.00000000000E+00  0.39999999674E+01  0.40000000000E+01  0.51100000000E-03 0.  1.
    9000002   -1    0    0    0    0 -0.00000000000E+00 -0.00000000000E+00  0.00000000000E+00  0.93800000000E+00  0.93800000000E+00 0.  1.
         11    1    1    2    0    0 -0.40435482808E-01  0.11288289658E+00  0.13546969553E+01  0.13599932641E+01  0.51100000000E-03 0.  1.
    9000002    1    1    2    0    0  0.19543589426E+00 -0.32829096882E+00  0.98709997066E-01  0.10176236104E+01  0.93800000000E+00 0.  1.
         22    1    1    2    0    0 -0.15500041145E+00  0.21540807224E+00  0.25465930150E+01  0.25603831255E+01  0.00000000000E+00 0.  1.
</event>
<event>
 5    1  0.8240609E+001  0.1599677E+01  0.7818608E-02  0.3353714E+00
         11   -1    0    0    0    0  0.00000000000E+00  0.00000000000E+00  0.39999999674E+01  0.40000000000E+01  0.51100000000E-03 0.  1.
    9000002   -1    0    0    0    0 -0.00000000000E+00 -0.00000000000E+00  0.00000000000E+00  0.93800000000E+00  0.93800000000E+00 0.  1.
         11    1    1    2    0    0  0.33928670363E-01 -0.96494300066E-01  0.10581529392E+01  0.10630852311E+01  0.51100000000E-03 0.  1.
    9000002    1    1    2    0    0 -0.12403389833E+00  0.35507854727E+00  0.95139187504E-01  0.10150668193E+01  0.93800000000E+00 0.  1.
         22    1    1    2    0    0  0.90105227970E-01 -0.25858424720E+00  0.28467078406E+01  0.28598479496E+01  0.00000000000E+00 0.  1.
</event>
<event>
 5    1  0.8240609E+001  0.1599660E+01  0.7818608E-02  0.3353733E+00
         11   -1    0    0    0    0  0.00000000000E+00  0.00000000000E+00  0.39999999674E+01  0.40000000000E+01  0.51100000000E-03 0.  1.
    9000002   -1    0    0    0    0 -0.00000000000E+00 -0.00000000000E+00  0.00000000000E+00  0.93800000000E+00  0.93800000000E+00 0.  1.
         11    1    1    2    0    0 -0.60472967338E-01  0.39570763216E-01  0.80990951789E+00  0.81312761198E+00  0.51100000000E-03 0.  1.
    9000002    1    1    2    0    0  0.29195881831E+00 -0.21068903216E+00  0.87029937144E-01  0.10084879919E+01  0.93800000000E+00 0.  1.
         22    1    1    2    0    0 -0.23148585097E+00  0.17111826895E+00  0.31030605123E+01  0.31163843961E+01  0.00000000000E+00 0. -1.
</event>
<event>
 5    1  0.8240609E+001  0.1560007E+01  0.7818608E-02  0.3397948E+00
         11   -1    0    0    0    0  0.00000000000E+00  0.00000000000E+00  0.39999999674E+01  0.40000000000E+01  0.51100000000E-03 0.  1.
    9000002   -1    0    0    0    0 -0.00000000000E+00 -0.00000000000E+00  0.00000000000E+00  0.93800000000E+00  0.93800000000E+00 0.  1.
         11    1    1    2    0    0  0.14859301686E+00 -0.15692559672E+00  0.13188072234E+01  0.13363975012E+01  0.51100000000E-03 0.  1.
    9000002    1    1    2    0    0  0.22190206367E+00  0.53419800066E+00  0.27203890021E+00  0.11351022831E+01  0.93800000000E+00 0.  1.
         22    1    1    2    0    0 -0.37049508053E+00 -0.37727240393E+00  0.24091538438E+01  0.24665002158E+01  0.00000000000E+00 0.  1.
</event>
<event>
 5    1  0.8240609E+001  0.1599560E+01  0.7818608E-02  0.3353841E+00
         11   -1    0    0    0    0  0.00000000000E+00  0.00000000000E+00  0.39999999674E+01  0.40000000000E+01  0.51100000000E-03 0. -1.
    9000002   -1    0    0    0    0 -0.00000000000E+00 -0.00000000000E+00  0.00000000000E+00  0.93800000000E+00  0.93800000000E+00 0. -1.
         11    1    1    2    0    0 -0.78516900591E-02 -0.11108392141E+00  0.11989055333E+01  0.12040664539E+01  0.51100000000E-03 0. -1.
    9000002    1    1    2    0    0 -0.12918682827E-01  0.36928227751E+00  0.91847957285E-01  0.10123321293E+01  0.93800000000E+00 0. -1.
         22    1    1    2    0    0  0.20770372886E-01 -0.25819835610E+00  0.27092464768E+01  0.27216014168E+01  0.00000000000E+00 0. -1.
</event>
<event>
 5    1  0.8240609E+001  0.1599419E+01  0.7818608E-02  0.3353995E+00
         11   -1    0    0    0    0  0.00000000000E+00  0.00000000000E+00  0.39999999674E+01  0.40000000000E+01  0.51100000000E-03 0. -1.
    9000002   -1    0    0    0    0 -0.00000000000E+00 -0.00000000000E+00  0.00000000000E+00  0.93800000000E+00  0.93800000000E+00 0. -1.
         11    1    1    2    0    0  0.97223248181E-02  0.10323587147E+00  0.11817732142E+01  0.11863137694E+01  0.51100000000E-03 0. -1.
    9000002    1    1    2    0    0  0.21603179530E-01 -0.36540186184E+00  0.90211884182E-01  0.10109240338E+01  0.93800000000E+00 0. -1.
         22    1    1    2    0    0 -0.31325504348E-01  0.26216599037E+00  0.27280148690E+01  0.27407621968E+01  0.00000000000E+00 0. -1.
</event>
<event>
 5    1  0.8240609E+001  0.1599639E+01  0.7818608E-02  0.3353755E+00
         11   -1    0    0    0    0  0.00000000000E+00  0.00000000000E+00  0.39999999674E+01  0.40000000000E+01  0.51100000000E-03 0. -1.
    9000002   -1    0    0    0    0 -0.00000000000E+00 -0.00000000000E+00  0.00000000000E+00  0.93800000000E+00  0.93800000000E+00 0.  1.
         11    1    1    2    0    0 -0.52997264484E-01  0.70080959645E-02  0.45502750257E+00  0.45815730122E+00  0.51100000000E-03 0. -1.
    9000002    1    1    2    0    0  0.42148311297E+00 -0.32441633806E-01  0.12093318224E+00  0.10359388537E+01  0.93800000000E+00 0.  1.
         22    1    1    2    0    0 -0.36848584849E+00  0.25433537841E-01  0.34240392826E+01  0.34439038450E+01  0.00000000000E+00 0. -1.
</event>
<event>
 5    1  0.8240609E+001  0.1599668E+01  0.7818608E-02  0.3353724E+00
         11   -1    0    0    0    0  0.00000000000E+00  0.00000000000E+00  0.39999999674E+01  0.40000000000E+01  0.51100000000E-03 0.  1.
    9000002   -1    0    0    0    0 -0.00000000000E+00 -0.00000000000E+00  0.00000000000E+00  0.93800000000E+00  0.93800000000E+00 0.  1.
         11    1    1    2    0    0  0.58234712597E-02  0.53427440616E-02  0.70002657958E-01  0.70449208468E-01  0.51100000000E-03 0.  1.
    9000002    1    1    2    0    0 -0.36605901776E+00 -0.29141362570E+00  0.14909795803E+00  0.10587706583E+01  0.93800000000E+00 0.  1.
         22    1    1    2    0    0  0.36023554650E+00  0.28607088163E+00  0.37808993514E+01  0.38087801333E+01  0.00000000000E+00 0.  1.
</event>
<event>
 5    1  0.8240609E+001  0.1595427E+01  0.7818608E-02  0.3358342E+00
         11   -1    0    0    0    0  0.00000000000E+00  0.00000000000E+00  0.39999999674E+01  0.40000000000E+01  0.51100000000E-03 0.  1.
    9000002   -1    0    0    0    0 -0.00000000000E+00 -0.00000000000E+00  0.00000000000E+00  0.93800000000E+00  0.93800000000E+00 0.  1.
         11    1    1    2    0    0 -0.42594478673E-01  0.14487525741E-01  0.25723679468E+00  0.26114212160E+00  0.51100000000E-03 0.  1.
    9000002    1    1    2    0    0  0.75204444688E+00  0.33372118087E+00  0.50835242900E+00  0.13472961325E+01  0.93800000000E+00 0.  1.
         22    1    1    2    0    0 -0.70944996821E+00 -0.34820870661E+00  0.32344107437E+01  0.33295617459E+01  0.00000000000E+00 0.  1.
</event>
<event>
 5    1  0.8240609E+001  0.1588710E+01  0.7818608E-02  0.3365709E+00
         11   -1    0    0    0    0  0.00000000000E+00  0.00000000000E+00  0.39999999674E+01  0.40000000000E+01  0.51100000000E-03 0. -1.
    9000002   -1    0    0    0    0 -0.00000000000E+00 -0.00000000000E+00  0.00000000000E+00  0.93800000000E+00  0.93800000000E+00 0. -1.
         11    1    1    2    0    0  0.51441865685E-01  0.12209428392E+00  0.51705502105E+00  0.53375971712E+00  0.51100000000E-03 0. -1.
    9000002    1    1    2    0    0  0.87467166069E-01 -0.46449963135E+00  0.16197270084E+00  0.10627744674E+01  0.93800000000E+00 0. -1.
         22    1    1    2    0    0 -0.13890903175E+00  0.34240534743E+00  0.33209722455E+01  0.33414658155E+01  0.00000000000E+00 0. -1.
</event>
<event>
 5    1  0.8240609E+001  0.1599529E+01  0.7818608E-02  0.3353875E+00
         11   -1    0    0    0    0  0.00000000000E+00  0.00000000000E+00  0.39999999674E+01  0.40000000000E+01  0.51100000000E-03 0. -1.
    9000002   -1    0    0    0    0 -0.00000000000E+00 -0.00000000000E+00  0.00000000000E+00  0.93800000000E+00  0.93800000000E+00 0.  1.
         11    1    1    2    0    0  0.95328057290E-01 -0.18144172431E+00  0.13694566471E+01  0.13847094667E+01  0.51100000000E-03 0. -1.
    9000002    1    1    2    0    0 -0.26083932631E+00  0.46481168103E+00  0.19573743620E+00  0.10964689676E+01  0.93800000000E+00 0.  1.
         22    1    1    2    0    0  0.16551126902E+00 -0.28336995672E+00  0.24348058841E+01  0.24568215657E+01  0.00000000000E+00 0. -1.
</event>
<event>
 5    1  0.8240609E+001  0.1598846E+01  0.7818608E-02  0.3354617E+00
         11   -1    0    0    0    0  0.00000000000E+00  0.00000000000E+00  0.39999999674E+01  0.40000000000E+01  0.51100000000E-03 0. -1.
    9000002   -1    0    0    0    0 -0.00000000000E+00 -0.00000000000E+00  0.00000000000E+00  0.93800000000E+00  0.93800000000E+00 0. -1.
         11    1    1    2    0    0 -0.11079834834E+00  0.19974359209E-01  0.98502398937E+00  0.99143722432E+00  0.51100000000E-03 0. -1.
    9000002    1    1    2    0    0  0.48481359537E+00  0.27796431087E-01  0.16178666114E+00  0.10685671657E+01  0.93800000000E+00 0. -1.
         22    1    1    2    0    0 -0.37401524702E+00 -0.47770790296E-01  0.28531893168E+01  0.28779956100E+01  0.00000000000E+00 0. -1.
</event>
<event>
 5    1  0.8240609E+001  0.1599662E+01  0.7818608E-02  0.3353730E+00
         11   -1    0    0    0    0  0.00000000000E+00  0.00000000000E+00  0.39999999674E+01  0.40000000000E+01  0.51100000000E-03 0.  1.
    9000002   -1    0    0    0    0 -0.00000000000E+00 -0.00000000000E+00  0.00000000000E+00  0.93800000000E+00  0.93800000000E+00 0. -1.
         11    1    1    2    0    0 -0.42127248836E-01  0.17218120797E+00  0.12698643435E+01  0.12821765812E+01  0.51100000000E-03 0.  1.
    9000002    1    1    2    0    0  0.13832226275E+00 -0.51991261850E+00  0.19948323427E+00  0.10995816204E+01  0.93800000000E+00 0. -1.
         22    1    1    2    0    0 -0.96195013912E-01  0.34773141053E+00  0.25306523896E+01  0.25562417983E+01  0.00000000000E+00 0.  1.
</event>
<event>
 5    1  0.8240609E+001  0.1592575E+01  0.7818608E-02  0.3361462E+00
         11   -1    0    0    0    0  0.00000000000E+00  0.00000000000E+00  0.39999999674E+01  0.40000000000E+01  0.51100000000E-03 0.  1.
    9000002   -1    0    0    0    0 -0.00000000000E+00 -0.00000000000E+00  0.00000000000E+00  0.93800000000E+00  0.93800000000E+00 0. -1.
         11    1    1    2    0    0  0.35116771553E-01 -0.63531358407E-01  0.75265150404E+00  0.75614414552E+00  0.51100000000E-03 0.  1.
    9000002    1    1    2    0    0 -0.36526410495E+00 -0.42853729844E-01  0.96677267141E-01  0.10121486069E+01  0.93800000000E+00 0. -1.
         22    1    1    2    0    0  0.33014733340E+00  0.10638508825E+00  0.31506711962E+01  0.31697072476E+01  0.00000000000E+00 0.  1.
</event>
<event>
 5    1  0.8240609E+001  0.1598155E+01  0.7818608E-02  0.3355369E+00
         11   -1    0    0    0    0  0.00000000000E+00  0.00000000000E+00  0.39999999674E+01  0.40000000000E+01  0.51100000000E-03 0. -1.
    9000002   -1    0    0    0    0 -0.00000000000E+00 -0.00000000000E+00  0.00000000000E+00  0.93800000000E+00  0.93800000000E+00 0.  1.
         11    1    1    2    0    0 -0.12812041182E-01  0.36751216313E-01  0.28373214893E+00  0.28638958388E+00  0.51100000000E-03 0. -1.
    9000002    1    1    2    0    0  0.37588648022E+00 -0.23458599650E+00  0.13451229494E+00  0.10460682546E+01  0.93800000000E+00 0.  1.
         22    1    1    2    0    0 -0.36307443904E+00  0.19783478018E+00  0.35817555235E+01  0.36055421615E+01  0.00000000000E+00 0. -1.
</event>
<event>
 5    1  0.8240609E+001  0.1588905E+01  0.7818608E-02  0.3365494E+00
         11   -1    0    0    0    0  0.00000000000E+00  0.00000000000E+00  0.39999999674E+01  0.40000000000E+01  0.51100000000E-03 0. -1.
    9000002   -1    0    0    0    0 -0.00000000000E+00 -0.00000000000E+00  0.00000000000E+00  0.93800000000E+00  0.93800000000E+00 0.  1.
         11    1    1    2    0    0  0.10582123987E+00  0.71658685927E-01  0.61813641674E+00  0.63120994360E+00  0.51100000000E-03 0. -1.
    9000002    1    1    2    0    0 -0.40135520723E+00  0.62938508612E-01  0.12047537431E+00  0.10292742949E+01  0.93800000000E+00 0.  1.
         22    1    1    2    0    0  0.29553396736E+00 -0.13459719454E+00  0.32613881763E+01  0.32775157615E+01  0.00000000000E+00 0. -1.
</event>
<event>
 5    1  0.8240609E+001  0.1599670E+01  0.7818608E-02  0.3353721E+00
         11   -1    0    0    0    0  0.00000000000E+00  0.00000000000E+00  0.39999999674E+01  0.40000000000E+01  0.51100000000E-03 0.  1.
    9000002   -1    0    0    0    0 -0.00000000000E+00 -0.00000000000E+00  0.00000000000E+00  0.93800000000E+00  0.93800000000E+00 0. -1.
         11    1    1    2    0    0 -0.30787984764E-01  0.39072579272E-01  0.50979448336E+00  0.51221601190E+00  0.51100000000E-03 0.  1.
    9000002    1    1    2    0    0  0.22245951885E+00 -0.29177461173E+00  0.90442964884E-01  0.10112589142E+01  0.93800000000E+00 0. -1.
         22    1    1    2    0    0 -0.19167153409E+00  0.25270203246E+00  0.33997625191E+01  0.34145250739E+01  0.00000000000E+00 0.  1.
</event>
<event>
 5    1  0.8240609E+001  0.1587364E+01  0.7818608E-02  0.3367193E+00
         11   -1    0    0    0    0  0.00000000000E+00  0.00000000000E+00  0.39999999674E+01  0.40000000000E+01  0.51100000000E-03 0.  1.
    9000002   -1    0    0    0    0 -0.00000000000E+00 -0.00000000000E+00  0.00000000000E+00  0.93800000000E+00  0.93800000000E+00 0.  1.
         11    1    1    2    0    0 -0.76007018734E-01  0.24177938971E-01  0.82400614975E+00  0.82785749714E+00  0.51100000000E-03 0.  1.
    9000002    1    1    2    0    0 -0.14422922640E+00 -0.22476778461E+00  0.56985898503E-01  0.97694115451E+00  0.93800000000E+00 0.  1.
         22    1    1    2    0    0  0.22023624513E+00  0.20058984563E+00  0.31190079191E+01  0.31332013483E+01  0.00000000000E+00 0.  1.
</event>
<event>
 5    1  0.8240609E+001  0.1599519E+01  0.7818608E-02  0.3353886E+00
         11   -1    0    0    0    0  0.00000000000E+00  0.00000000000E+00  0.39999999674E+01  0.40000000000E+01  0.51100000000E-03 0. -1.
    9000002   -1    0    0    0    0 -0.00000000000E+00 -0.00000000000E+00  0.00000000000E+00  0.93800000000E+00  0.93800000000E+00 0. -1.
         11    1    1    2    0    0  0.51666393643E-01  0.86001046065E-01  0.90937803069E+00  0.91489576454E+00  0.51100000000E-03 0. -1.
    9000002    1    1    2    0    0 -0.16772597464E+00 -0.35640239492E+00  0.10470454481E+00  0.10227226952E+01  0.93800000000E+00 0. -1.
         22    1    1    2    0    0  0.11605958099E+00  0.27040134885E+00  0.29859173919E+01  0.30003815402E+01  0.00000000000E+00 0. -1.
</event>
<event>
 5    1  0.8240609E+001  0.1599001E+01  0.7818608E-02  0.3354449E+00
         11   -1    0    0    0    0  0.00000000000E+00  0.00000000000E+00  0.39999999674E+01  0.40000000000E+01  0.51100000000E-03 0. -1.
    9000002   -1    0    0    0    0 -0.00000000000E+00 -0.00000000000E+00  0.00000000000E+00  0.93800000000E+00  0.93800000000E+00 0.  1.
         11    1    1    2    0    0 -0.10039327883E-01 -0.12433799718E-01  0.11304545305E+00  0.11417058753E+00  0.51100000000E-03 0. -1.
    9000002    1    1    2    0    0 -0.12660693283E-01  0.48438186217E+00  0.16091713329E+00  0.10679533723E+01  0.93800000000E+00 0.  1.
         22    1    1    2    0    0  0.22700021166E-01 -0.47194806246E+00  0.37260373810E+01  0.37558760402E+01  0.00000000000E+00 0. -1.
</event>
<event>
 5    1  0.8240609E+001  0.1599546E+01  0.7818608E-02  0.3353857E+00
         11   -1    0    0    0    0  0.00000000000E+00  0.00000000000E+00  0.39999999674E+01  0.40000000000E+01  0.51100000000E-03 0.  1.
    9000002   -1    0    0    0    0 -0.00000000000E+00 -0.00000000000E+00  0.00000000000E+00  0.93800000000E+00  0.93800000000E+00 0.  1.
         11    1    1    2    0    0  0.41033674213E-01  0.10051411123E+00  0.11512649876E+01  0.11563728558E+01  0.51100000000E-03 0.  1.
    9000002    1    1    2    0    0 -0.18153729961E+00 -0.34292572109E+00  0.10150659634E+00  0.10201477493E+01  0.93800000000E+00 0.  1.
         22    1    1    2    0    0  0.14050362540E+00  0.24241160986E+00  0.27472283835E+01  0.27614793949E+01  0.00000000000E+00 0.  1.
</event>
<event>
 5    1  0.8240609E+001  0.1564478E+01  0.7818608E-02  0.3392843E+00
         11   -1    0    0    0    0  0.00000000000E+00  0.00000000000E+00  0.39999999674E+01  0.40000000000E+01  0.51100000000E-03 0. -1.
    9000002   -1    0    0    0    0 -0.00000000000E+00 -0.00000000000E+00  0.00000000000E+00  0.93800000000E+00  0.93800000000E+00 0. -1.
         11    1    1    2    0    0  0.12704458078E+00  0.53932824107E-01  0.48900885605E+00  0.50811317385E+00  0.51100000000E-03 0. -1.
    9000002    1    1    2    0    0 -0.61053482843E-01  0.29496185387E+00  0.88631326608E-01  0.98915597105E+00  0.93800000000E+00 0. -1.
         22    1    1    2    0    0 -0.65991097934E-01 -0.34889467797E+00  0.34223597847E+01  0.34407308551E+01  0.00000000000E+00 0. -1.
</event>
<event>
 5    1  0.8240609E+001  0.1599677E+01  0.7818608E-02  0.3353714E+00
         11   -1    0    0    0    0  0.00000000000E+00  0.00000000000E+00  0.39999999674E+01  0.40000000000E+01  0.51100000000E-03 0. -1.
    9000002   -1    0    0    0    0 -0.00000000000E+00 -0.00000000000E+00  0.00000000000E+00  0.93800000000E+00  0.93800000000E+00 0. -1.
         11    1    1    2    0    0 -0.62880849648E-01 -0.25468457517E+00  0.14684711804E+01  0.14917191770E+01  0.51100000000E-03 0. -1.
    9000002    1    1    2    0    0  0.15687167796E+00  0.63999377356E+00  0.30705807433E+00  0.11867305568E+01  0.93800000000E+00 0. -1.
         22    1    1    2    0    0 -0.93990828312E-01 -0.38530919839E+00  0.22244707126E+01  0.22595502662E+01  0.00000000000E+00 0. -1.
</event>
<event>
 5    1  0.8240609E+001  0.1599668E+01  0.7818608E-02  0.3353724E+00
         11   -1    0    0    0    0  0.00000000000E+00  0.00000000000E+00  0.39999999674E+01  0.40000000000E+01  0.51100000000E-03 0.  1.
    9000002   -1    0    0    0    0 -0.00000000000E+00 -0.00000000000E+00  0.00000000000E+00  0.93800000000E+00  0.93800000000E+00 0.  1.
         11    1    1    2    0    0  0.18956635427E-01  0.12255579330E-01  0.13572395947E+00  0.13758927119E+00  0.51100000000E-03 0. -1.
    9000002    1    1    2    0    0 -0.50806349274E+00 -0.30771354223E+00  0.24585416146E+00  0.11371474862E+01  0.93800000000E+00 0.  1.
         22    1    1    2    0    0  0.48910685731E+00  0.29545796290E+00  0.36184218464E+01  0.36632632426E+01  0.00000000000E+00 0.  1.
</event>
<event>
 5    1  0.8240609E+001  0.1599634E+01  0.7818608E-02  0.3353760E+00
         11   -1    0    0    0    0  0.00000000000E+00  0.00000000000E+00  0.39999999674E+01  0.40000000000E+01  0.51100000000E-03 0.  1.
    9000002   -1    0    0    0    0 -0.00000000000E+00 -0.00000000000E+00  0.00000000000E+00  0.93800000000E+00  0.93800000000E+00 0.  1.
         11    1    1    2    0    0 -0.95887676654E-02  0.49712136558E-01  0.60852314511E+00  0.61062584309E+00  0.51100000000E-03 0.  1.
    9000002    1    1    2    0    0  0.53526542526E-01 -0.35542859681E+00  0.86752380197E-01  0.10082482599E+01  0.93800000000E+00 0.  1.
         22    1    1    2    0    0 -0.43937774861E-01  0.30571646025E+00  0.33047244420E+01  0.33191258970E+01  0.00000000000E+00 0.  1.
</event>
<event>
 5    1  0.8240609E+001  0.1599670E+01  0.7818608E-02  0.3353722E+00
         11   -1    0    0    0    0  0.00000000000E+00  0.00000000000E+00  0.39999999674E+01  0.40000000000E+01  0.51100000000E-03 0.  1.
    9000002   -1    0    0    0    0 -0.00000000000E+00 -0.00000000000E+00  0.00000000000E+00  0.93800000000E+00  0.93800000000E+00 0. -1.
         11    1    1    2    0    0  0.73224995355E-01 -0.11385222867E+00  0.13351425485E+01  0.13419873755E+01  0.51100000000E-03 0.  1.
    9000002    1    1    2    0    0 -0.20681381058E+00  0.33807464849E+00  0.10590074428E+00  0.10237799509E+01  0.93800000000E+00 0. -1.
         22    1    1    2    0    0  0.13358881522E+00 -0.22422241982E+00  0.25589566746E+01  0.25722326737E+01  0.00000000000E+00 0.  1.
</event>
<event>
 5    1  0.8240609E+001  0.1599677E+01  0.7818608E-02  0.3353714E+00
         11   -1    0    0    0    0  0.00000000000E+00  0.00000000000E+00  0.39999999674E+01  0.40000000000E+01  0.51100000000E-03 0. -1.
    9000002   -1    0    0    0    0 -0.00000000000E+00 -0.00000000000E+00  0.00000000000E+00  0.93800000000E+00  0.93800000000E+00 0.  1.
         11    1    1    2    0    0  0.14652577663E+00 -0.18933252318E-01  0.14680124267E+01  0.14754284182E+01  0.51100000000E-03 0. -1.
    9000002    1    1    2    0    0 -0.38993322039E+00  0.50371709838E-01  0.10418049798E+00  0.10223907285E+01  0.93800000000E+00 0.  1.
         22    1    1    2    0    0  0.24340744376E+00 -0.31438457520E-01  0.24278070427E+01  0.24401808533E+01  0.00000000000E+00 0. -1.
</event>
<event>
 5    1  0.8240609E+001  0.1599676E+01  0.7818608E-02  0.3353715E+00
         11   -1    0    0    0    0  0.00000000000E+00  0.00000000000E+00  0.39999999674E+01  0.40000000000E+01  0.51100000000E-03 0.  1.
    9000002   -1    0    0    0    0 -0.00000000000E+00 -0.00000000000E+00  0.00000000000E+00  0.93800000000E+00  0.93800000000E+00 0.  1.
         11    1    1    2    0    0  0.17743431609E+00 -0.39227140354E-01  0.13425808667E+01  0.13548229957E+01  0.51100000000E-03 0.  1.
    9000002    1    1    2    0    0 -0.50311579533E+00  0.10912312566E+00  0.18189118112E+00  0.10853394685E+01  0.93800000000E+00 0.  1.
         22    1    1    2    0    0  0.32568147924E+00 -0.69895985311E-01  0.24755279196E+01  0.24978375358E+01  0.00000000000E+00 0.  1.
</event>
<event>
 5    1  0.8240609E+001  0.1565416E+01  0.7818608E-02  0.3391777E+00
         11   -1    0    0    0    0  0.00000000000E+00  0.00000000000E+00  0.39999999674E+01  0.40000000000E+01  0.51100000000E-03 0. -1.
    9000002   -1    0    0    0    0 -0.00000000000E+00 -0.00000000000E+00  0.00000000000E+00  0.93800000000E+00  0.93800000000E+00 0. -1.
         11    1    1    2    0    0  0.13948909687E+00 -0.99189990578E-01  0.12681985151E+01  0.12796966817E+01  0.51100000000E-03 0. -1.
    9000002    1    1    2    0    0  0.51850889102E-01 -0.11872599364E+00  0.36669525129E-01  0.94761438905E+00  0.93800000000E+00 0. -1.
         22    1    1    2    0    0 -0.19133998597E+00  0.21791598422E+00  0.26951319271E+01  0.27106889292E+01  0.00000000000E+00 0. -1.
</event>
<event>
 5    1  0.8240609E+001  0.1597610E+01  0.7818608E-02  0.3355962E+00
         11   -1    0    0    0    0  0.00000000000E+00  0.00000000000E+00  0.39999999674E+01  0.40000000000E+01  0.51100000000E-03 0.  1.
    9000002   -1    0    0    0    0 -0.00000000000E+00 -0.00000000000E+00  0.00000000000E+00  0.93800000000E+00  0.93800000000E+00 0. -1.
         11    1    1    2    0    0  0.12393762860E+00 -0.12330924836E+00  0.14824322324E+01  0.14927060298E+01  0.51100000000E-03 0.  1.
    9000002    1    1    2    0    0 -0.27439230851E+00  0.44710078929E+00  0.19109331488E+00  0.10915818383E+01  0.93800000000E+00 0. -1.
         22    1    1    2    0    0  0.15045467991E+00 -0.32379154093E+00  0.23264744200E+01  0.23537121319E+01  0.00000000000E+00 0.  1.
</event>
<event>
 5    1  0.8240609E+001  0.1581014E+01  0.7818608E-02  0.3374231E+00
         11   -1    0    0    0    0  0.00000000000E+00  0.00000000000E+00  0.39999999674E+01  0.40000000000E+01  0.51100000000E-03 0. -1.
    9000002   -1    0    0    0    0 -0.00000000000E+00 -0.00000000000E+00  0.00000000000E+00  0.93800000000E+00  0.93800000000E+00 0.  1.
         11    1    1    2    0    0  0.29137239342E-02 -0.25898828398E+00  0.72224188294E+00  0.76727897118E+00  0.51100000000E-03 0. -1.
    9000002    1    1    2    0    0 -0.27983311014E-01  0.63846825873E+00  0.30711790490E+00  0.11758359540E+01  0.93800000000E+00 0.  1.
         22    1    1    2    0    0  0.25069587080E-01 -0.37947997476E+00  0.29706401795E+01  0.29948850749E+01  0.00000000000E+00 0. -1.
</event>
<event>
 5    1  0.8240609E+001  0.1599673E+01  0.7818608E-02  0.3353718E+00
         11   -1    0    0    0    0  0.00000000000E+00  0.00000000000E+00  0.39999999674E+01  0.40000000000E+01  0.51100000000E-03 0. -1.
    9000002   -1    0    0    0    0 -0.00000000000E+00 -0.00000000000E+00  0.00000000000E+00  0.93800000000E+00  0.93800000000E+00 0.  1.
         11    1    1    2    0    0 -0.25268514609E-01  0.14890567509E-01  0.29942119135E+00  0.30085467884E+00  0.51100000000E-03 0. -1.
    9000002    1    1    2    0    0  0.32790065173E+00 -0.17949874500E+00  0.93955052307E-01  0.10141056102E+01  0.93800000000E+00 0.  1.
         22    1    1    2    0    0 -0.30263213712E+00  0.16460817749E+00  0.36066237237E+01  0.36230397109E+01  0.00000000000E+00 0. -1.
</event>
<event>
 5    1  0.8240609E+001  0.1599677E+01  0.7818608E-02  0.3353714E+00
         11   -1    0    0    0    0  0.00000000000E+00  0.00000000000E+00  0.39999999674E+01  0.40000000000E+01  0.51100000000E-03 0. -1.
    9000002   -1    0    0    0    0 -0.00000000000E+00 -0.00000000000E+00  0.00000000000E+00  0.93800000000E+00  0.93800000000E+00 0. -1.
         11    1    1    2    0    0 -0.18519633606E+00 -0.32182460827E-01  0.12061711142E+01  0.12207302780E+01  0.51100000000E-03 0.  1.
    9000002    1    1    2    0    0  0.57575550844E+00  0.10104126933E+00  0.23763492688E+00  0.11304946272E+01  0.93800000000E+00 0. -1.
         22    1    1    2    0    0 -0.39055917238E+00 -0.68858808508E-01  0.25561939263E+01  0.25867750949E+01  0.00000000000E+00 0. -1.
</event>
<event>
 5    1  0.8240609E+001  0.1598016E+01  0.7818608E-02  0.3355520E+00
         11   -1    0    0    0    0  0.00000000000E+00  0.00000000000E+00  0.39999999674E+01  0.40000000000E+01  0.51100000000E-03 0. -1.
    9000002   -1    0    0    0    0 -0.00000000000E+00 -0.00000000000E+00  0.00000000000E+00  0.93800000000E+00  0.93800000000E+00 0.  1.
         11    1    1    2    0    0 -0.12278992185E+00 -0.79253761279E-01  0.67077058615E+00  0.68650707495E+00  0.51100000000E-03 0. -1.
    9000002    1    1    2    0    0  0.47647193728E+00  0.39154150957E+00  0.26800748951E+00  0.11541240294E+01  0.93800000000E+00 0.  1.
         22    1    1    2    0    0 -0.35368201543E+00 -0.31228774829E+00  0.30612218917E+01  0.30973688957E+01  0.00000000000E+00 0. -1.
</event>
<event>
 5    1  0.8240609E+001  0.1576489E+01  0.7818608E-02  0.3379284E+00
         11   -1    0    0    0    0  0.00000000000E+00  0.00000000000E+00  0.39999999674E+01  0.40000000000E+01  0.51100000000E-03 0. -1.
    9000002   -1    0    0    0    0 -0.00000000000E+00 -0.00000000000E+00  0.00000000000E+00  0.93800000000E+00  0.93800000000E+00 0. -1.
         11    1    1    2    0    0 -0.25528413408E+00  0.41079360762E-02  0.12700391070E+01  0.12954483621E+01  0.51100000000E-03 0. -1.
    9000002    1    1    2    0    0  0.37812729424E+00  0.33286548211E+00  0.19510393568E+00  0.10824459458E+01  0.93800000000E+00 0. -1.
         22    1    1    2    0    0 -0.12284316017E+00 -0.33697341819E+00  0.25348569246E+01  0.25601056921E+01  0.00000000000E+00 0. -1.
</event>
<event>
 5    1  0.8240609E+001  0.1582126E+01  0.7818608E-02  0.3372995E+00
         11   -1    0    0    0    0  0.00000000000E+00  0.00000000000E+00  0.39999999674E+01  0.40000000000E+01  0.51100000000E-03 0. -1.
    9000002   -1    0    0    0    0 -0.00000000000E+00 -0.00000000000E+00  0.00000000000E+00  0.93800000000E+00  0.93800000000E+00 0.  1.
         11    1    1    2    0    0  0.40339868255E-01  0.49986858556E-01  0.35359820241E+00  0.35938550453E+00  0.51100000000E-03 0. -1.
    9000002    1    1    2    0    0  0.25463663120E+00  0.17653358522E+00  0.78045088480E-01  0.99092833066E+00  0.93800000000E+00 0.  1.
         22    1    1    2    0    0 -0.29497649945E+00 -0.22652044378E+00  0.35683566765E+01  0.35876861648E+01  0.00000000000E+00 0. -1.
</event>
<event>
 5    1  0.8240609E+001  0.1598427E+01  0.7818608E-02  0.3355073E+00
         11   -1    0    0    0    0  0.00000000000E+00  0.00000000000E+00  0.39999999674E+01  0.40000000000E+01  0.51100000000E-03 0.  1.
    9000002   -1    0    0    0    0 -0.00000000000E+00 -0.00000000000E+00  0.00000000000E+00  0.93800000000E+00  0.93800000000E+00 0.  1.
         11    1    1    2    0    0  0.21930561155E-01  0.20388149957E-01  0.17369318885E+00  0.17625609535E+00  0.51100000000E-03 0.  1.
    9000002    1    1    2    0    0 -0.40863157603E+00 -0.69747916683E-01  0.11718544999E+00  0.10321923108E+01  0.93800000000E+00 0.  1.
         22    1    1    2    0    0  0.38670101488E+00  0.49359766726E-01  0.37091213285E+01  0.37295515938E+01  0.00000000000E+00 0.  1.
</event>
<event>
 5    1  0.8240609E+001  0.1596121E+01  0.7818608E-02  0.3357584E+00
         11   -1    0    0    0    0  0.00000000000E+00  0.00000000000E+00  0.39999999674E+01  0.40000000000E+01  0.51100000000E-03 0. -1.
    9000002   -1    0    0    0    0 -0.00000000000E+00 -0.00000000000E+00  0.00000000000E+00  0.93800000000E+00  0.93800000000E+00 0. -1.
         11    1    1    2    0    0  0.31775492451E-01 -0.46244566277E-01  0.12373929524E+01  0.12386645315E+01  0.51100000000E-03 0. -1.
    9000002    1    1    2    0    0 -0.30281134747E+00  0.20660840556E+00  0.93172324720E-01  0.10113885641E+01  0.93800000000E+00 0. -1.
         22    1    1    2    0    0  0.27103585502E+00 -0.16036383928E+00  0.26694346902E+01  0.26879469044E+01  0.00000000000E+00 0. -1.
</event>
<event>
 5    1  0.8240609E+001  0.1599673E+01  0.7818608E-02  0.3353718E+00
         11   -1    0    0    0    0  0.00000000000E+00  0.00000000000E+00  0.39999999674E+01  0.40000000000E+01  0.51100000000E-03 0. -1.
    9000002   -1    0    0    0    0 -0.00000000000E+00 -0.00000000000E+00  0.00000000000E+00  0.93800000000E+00  0.93800000000E+00 0. -1.
         11    1    1    2    0    0  0.15925055167E+00 -0.11107323293E+00  0.10798813243E+01  0.10971973099E+01  0.51100000000E-03 0. -1.
    9000002    1    1    2    0    0 -0.54425345127E+00  0.37263422839E+00  0.30772469952E+00  0.11872685366E+01  0.93800000000E+00 0. -1.
         22    1    1    2    0    0  0.38500289960E+00 -0.26156099546E+00  0.26123939436E+01  0.26535341534E+01  0.00000000000E+00 0. -1.
</event>
<event>
 5    1  0.8240609E+001  0.1589898E+01  0.7818608E-02  0.3364401E+00
         11   -1    0    0    0    0  0.00000000000E+00  0.00000000000E+00  0.39999999674E+01  0.40000000000E+01  0.51100000000E-03 0.  1.
    9000002   -1    0    0    0    0 -0.00000000000E+00 -0.00000000000E+00  0.00000000000E+00  0.93800000000E+00  0.93800000000E+00 0.  1.
         11    1    1    2    0    0 -0.27829911396E-01  0.20605991373E+00  0.63559293410E+00  0.66874048106E+00  0.51100000000E-03 0.  1.
    9000002    1    1    2    0    0  0.27416829626E-01 -0.67207783637E+00  0.33170773219E+00  0.12009639130E+01  0.93800000000E+00 0.  1.
         22    1    1    2    0    0  0.41308176957E-03  0.46601792264E+00  0.30326993011E+01  0.30682956060E+01  0.00000000000E+00 0.  1.
</event>
<event>
 5    1  0.8240609E+001  0.1598559E+01  0.7818608E-02  0.3354929E+00
         11   -1    0    0    0    0  0.00000000000E+00  0.00000000000E+00  0.39999999674E+01  0.40000000000E+01  0.51100000000E-03 0. -1.
    9000002   -1    0    0    0    0 -0.00000000000E+00 -0.00000000000E+00  0.00000000000E+00  0.93800000000E+00  0.93800000000E+00 0.  1.
         11    1    1    2    0    0 -0.33210359769E-01  0.17758023806E-01  0.69841090856E+00  0.69942571708E+00  0.51100000000E-03 0. -1.
    9000002    1    1    2    0    0  0.35352409493E+00 -0.56026740038E-01  0.86885960204E-01  0.10077258811E+01  0.93800000000E+00 0.  1.
         22    1    1    2    0    0 -0.32031373516E+00  0.38268716232E-01  0.32147030986E+01  0.32308484018E+01  0.00000000000E+00 0. -1.
</event>
<event>
 5    1  0.8240609E+001  0.1599486E+01  0.7818608E-02  0.3353921E+00
         11   -1    0    0    0    0  0.00000000000E+00  0.00000000000E+00  0.39999999674E+01  0.40000000000E+01  0.51100000000E-03 0. -1.
    9000002   -1    0    0    0    0 -0.00000000000E+00 -0.00000000000E+00  0.00000000000E+00  0.93800000000E+00  0.93800000000E+00 0.  1.
         11    1    1    2    0    0  0.13510409392E+00 -0.15015142573E+00  0.14458290387E+01  0.14598700069E+01  0.51100000000E-03 0. -1.
    9000002    1    1    2    0    0 -0.33169802024E+00  0.36420139779E+00  0.16608559307E+00  0.10724246636E+01  0.93800000000E+00 0.  1.
         22    1    1    2    0    0  0.19659392632E+00 -0.21404997205E+00  0.23880853356E+01  0.24057053295E+01  0.00000000000E+00 0. -1.
</event>
<event>
 5    1  0.8240609E+001  0.1598430E+01  0.7818608E-02  0.3355070E+00
         11   -1    0    0    0    0  0.00000000000E+00  0.00000000000E+00  0.39999999674E+01  0.40000000000E+01  0.51100000000E-03 0. -1.
    9000002   -1    0    0    0    0 -0.00000000000E+00 -0.00000000000E+00  0.00000000000E+00  0.93800000000E+00  0.93800000000E+00 0.  1.
         11    1    1    2    0    0 -0.24784918623E-01  0.99378891412E-01  0.59690206154E+00  0.60562594763E+00  0.51100000000E-03 0. -1.
    9000002    1    1    2    0    0  0.14437605258E+00 -0.44158138727E+00  0.14800674187E+00  0.10571606130E+01  0.93800000000E+00 0.  1.
         22    1    1    2    0    0 -0.11959113396E+00  0.34220249586E+00  0.32550911639E+01  0.32752134393E+01  0.00000000000E+00 0. -1.
</event>
<event>
 5    1  0.8240609E+001  0.1599670E+01  0.7818608E-02  0.3353722E+00
         11   -1    0    0    0    0  0.00000000000E+00  0.00000000000E+00  0.39999999674E+01  0.40000000000E+01  0.51100000000E-03 0.  1.
    9000002   -1    0    0    0    0 -0.00000000000E+00 -0.00000000000E+00  0.00000000000E+00  0.93800000000E+00  0.93800000000E+00 0. -1.
         11    1    1    2    0    0  0.56716453128E-01 -0.14791966949E-01  0.27555350726E+00  0.28171892877E+00  0.51100000000E-03 0.  1.
    9000002    1    1    2    0    0 -0.73148013906E+00  0.17202403490E+00  0.40952346777E+00  0.12697278973E+01  0.93800000000E+00 0. -1.
         22    1    1    2    0    0  0.67476368594E+00 -0.15723206795E+00  0.33149229923E+01  0.33865531740E+01  0.00000000000E+00 0.  1.
</event>
<event>
 5    1  0.8240609E+001  0.1599676E+01  0.7818608E-02  0.3353715E+00
         11   -1    0    0    0    0  0.00000000000E+00  0.00000000000E+00  0.39999999674E+01  0.40000000000E+01  0.51100000000E-03 0. -1.
    9000002   -1    0    0    0    0 -0.00000000000E+00 -0.00000000000E+00  0.00000000000E+00  0.93800000000E+00  0.93800000000E+00 0.  1.
         11    1    1    2    0    0  0.71641851089E-01  0.61965326014E-01  0.10146815618E+01  0.10190933174E+01  0.51100000000E-03 0. -1.
    9000002    1    1    2    0    0 -0.27338590094E+00 -0.23893377394E+00  0.88523577650E-01  0.10097076918E+01  0.93800000000E+00 0.  1.
         22    1    1    2    0    0  0.20174404985E+00  0.17696844793E+00  0.28967948279E+01  0.29091989908E+01  0.00000000000E+00 0. -1.
</event>
<event>
 5    1  0.8240609E+001  0.1598058E+01  0.7818608E-02  0.3355473E+00
         11   -1    0    0    0    0  0.00000000000E+00  0.00000000000E+00  0.39999999674E+01  0.40000000000E+01  0.51100000000E-03 0.  1.
    9000002   -1    0    0    0    0 -0.00000000000E+00 -0.00000000000E+00  0.00000000000E+00  0.93800000000E+00  0.93800000000E+00 0. -1.
         11    1    1    2    0    0  0.50183830577E-02 -0.99494616562E-02  0.22822522413E+00  0.22849768052E+00  0.51100000000E-03 0.  1.
    9000002    1    1    2    0    0  0.24179601933E+00  0.37568180824E+00  0.13689785842E+00  0.10479442541E+01  0.93800000000E+00 0. -1.
         22    1    1    2    0    0 -0.24681440238E+00 -0.36573234659E+00  0.36348768848E+01  0.36615580654E+01  0.00000000000E+00 0.  1.
</event>
<event>
 5    1  0.8240609E+001  0.1599675E+01  0.7818608E-02  0.3353716E+00
         11   -1    0    0    0    0  0.00000000000E+00  0.00000000000E+00  0.39999999674E+01  0.40000000000E+01  0.51100000000E-03 0. -1.
    9000002   -1    0    0    0    0 -0.00000000000E+00 -0.00000000000E+00  0.00000000000E+00  0.93800000000E+00  0.93800000000E+00 0.  1.
         11    1    1    2    0    0  0.21001527321E+00  0.49571996096E-01  0.13727080644E+01  0.13895652158E+01  0.51100000000E-03 0. -1.
    9000002    1    1    2    0    0 -0.57101113883E+00 -0.13741414825E+00  0.24002154016E+00  0.11324269109E+01  0.93800000000E+00 0.  1.
         22    1    1    2    0    0  0.36099586562E+00  0.87842152153E-01  0.23872703628E+01  0.24160078733E+01  0.00000000000E+00 0.  1.
</event>
<event>
 5    1  0.8240609E+001  0.1599607E+01  0.7818608E-02  0.3353790E+00
         11   -1    0    0    0    0  0.00000000000E+00  0.00000000000E+00  0.39999999674E+01  0.40000000000E+01  0.51100000000E-03 0. -1.
    9000002   -1    0    0    0    0 -0.00000000000E+00 -0.00000000000E+00  0.00000000000E+00  0.93800000000E+00  0.93800000000E+00 0. -1.
         11    1    1    2    0    0  0.14623343425E+00  0.45371047802E-01  0.14441093581E+01  0.14522034460E+01  0.51100000000E-03 0. -1.
    9000002    1    1    2    0    0 -0.36875756946E+00 -0.12705346588E+00  0.10253954492E+00  0.10210206102E+01  0.93800000000E+00 0. -1.
         22    1    1    2    0    0  0.22252413522E+00  0.81682418078E-01  0.24533510643E+01  0.24647759437E+01  0.00000000000E+00 0. -1.
</event>
<event>
 5    1  0.8240609E+001  0.1599637E+01  0.7818608E-02  0.3353758E+00
         11   -1    0    0    0    0  0.00000000000E+00  0.00000000000E+00  0.39999999674E+01  0.40000000000E+01  0.51100000000E-03 0.  1.
    9000002   -1    0    0    0    0 -0.00000000000E+00 -0.00000000000E+00  0.00000000000E+00  0.93800000000E+00  0.93800000000E+00 0.  1.
         11    1    1    2    0    0  0.37947595436E-01 -0.35214892736E-02  0.37356340259E+00  0.37550272670E+00  0.51100000000E-03 0.  1.
    9000002    1    1    2    0    0 -0.43879481234E+00  0.46144886961E-01  0.13208246639E+00  0.10449689066E+01  0.93800000000E+00 0.  1.
         22    1    1    2    0    0  0.40084721691E+00 -0.42623397687E-01  0.34943540984E+01  0.35175283666E+01  0.00000000000E+00 0.  1.
</event>
<event>
 5    1  0.8240609E+001  0.1589726E+01  0.7818608E-02  0.3364590E+00
         11   -1    0    0    0    0  0.00000000000E+00  0.00000000000E+00  0.39999999674E+01  0.40000000000E+01  0.51100000000E-03 0. -1.
    9000002   -1    0    0    0    0 -0.00000000000E+00 -0.00000000000E+00  0.00000000000E+00  0.93800000000E+00  0.93800000000E+00 0.  1.
         11    1    1    2    0    0 -0.60787686241E-01  0.16321636611E-01  0.52247721923E+00  0.52625492336E+00  0.51100000000E-03 0. -1.
    9000002    1    1    2    0    0  0.74186471545E-01  0.35610066113E+00  0.96979043019E-01  0.10107226366E+01  0.93800000000E+00 0.  1.
         22    1    1    2    0    0 -0.13398785305E-01 -0.37242229774E+00  0.33805437051E+01  0.34010224400E+01  0.00000000000E+00 0. -1.
</event>
<event>
 5    1  0.8240609E+001  0.1599595E+01  0.7818608E-02  0.3353803E+00
         11   -1    0    0    0    0  0.00000000000E+00  0.00000000000E+00  0.39999999674E+01  0.40000000000E+01  0.51100000000E-03 0. -1.
    9000002   -1    0    0    0    0 -0.00000000000E+00 -0.00000000000E+00  0.00000000000E+00  0.93800000000E+00  0.93800000000E+00 0.  1.
         11    1    1    2    0    0  0.34022287352E-01 -0.18043527116E+00  0.92610106423E+00  0.94412808739E+00  0.51100000000E-03 0. -1.
    9000002    1    1    2    0    0 -0.16254936535E+00  0.72373411425E+00  0.39798364710E+00  0.12603366009E+01  0.93800000000E+00 0.  1.
         22    1    1    2    0    0  0.12852707800E+00 -0.54329884309E+00  0.26759152560E+01  0.27335353117E+01  0.00000000000E+00 0. -1.
</event>
<event>
 5    1  0.8240609E+001  0.1597601E+01  0.7818608E-02  0.3355972E+00
         11   -1    0    0    0    0  0.00000000000E+00  0.00000000000E+00  0.39999999674E+01  0.40000000000E+01  0.51100000000E-03 0.  1.
    9000002   -1    0    0    0    0 -0.00000000000E+00 -0.00000000000E+00  0.00000000000E+00  0.93800000000E+00  0.93800000000E+00 0.  1.
         11    1    1    2    0    0 -0.11712313147E+00  0.50406944435E-01  0.98732516665E+00  0.99552495387E+00  0.51100000000E-03 0.  1.
    9000002    1    1    2    0    0  0.43408096706E+00 -0.11798155808E-01  0.12955306342E+00  0.10417262014E+01  0.93800000000E+00 0.  1.
         22    1    1    2    0    0 -0.31695783559E+00 -0.38608788627E-01  0.28831217373E+01  0.29007488447E+01  0.00000000000E+00 0.  1.
</event>
<event>
 5    1  0.8240609E+001  0.1580944E+01  0.7818608E-02  0.3374310E+00
         11   -1    0    0    0    0  0.00000000000E+00  0.00000000000E+00  0.39999999674E+01  0.40000000000E+01  0.51100000000E-03 0.  1.
    9000002   -1    0    0    0    0 -0.00000000000E+00 -0.00000000000E+00  0.00000000000E+00  0.93800000000E+00  0.93800000000E+00 0. -1.
         11    1    1    2    0    0  0.13758741957E+00  0.21678655849E-01  0.13942405568E+01  0.14011806641E+01  0.51100000000E-03 0.  1.
    9000002    1    1    2    0    0 -0.19225857415E+00  0.33635287565E+00  0.11670008503E+00  0.10215476133E+01  0.93800000000E+00 0. -1.
         22    1    1    2    0    0  0.54671154578E-01 -0.35803153150E+00  0.24890593255E+01  0.25152717226E+01  0.00000000000E+00 0. -1.
</event>
<event>
 5    1  0.8842063E+001  0.1593625E+01  0.7818608E-02  0.3360312E+00
         11   -1    0    0    0    0  0.00000000000E+00  0.00000000000E+00  0.39999999674E+01  0.40000000000E+01  0.51100000000E-03 0. -1.
    9000002   -1    0    0    0    0 -0.00000000000E+00 -0.00000000000E+00  0.00000000000E+00  0.93800000000E+00  0.93800000000E+00 0.  1.
         11    1    1    2    0    0 -0.13992500273E-01 -0.51233339670E-02  0.11950501230E+01  0.11951431279E+01  0.51100000000E-03 0. -1.
    9000002    1    1    2    0    0 -0.23834048485E+00  0.67233659053E-02  0.42349777406E-01  0.96875636463E+00  0.93800000000E+00 0.  1.
         22    1    1    2    0    0  0.25233298512E+00 -0.16000319382E-02  0.27626000669E+01  0.27741005074E+01  0.00000000000E+00 0. -1.
</event>
<event>
 5    1  0.8240609E+001  0.1599536E+01  0.7818608E-02  0.3353867E+00
         11   -1    0    0    0    0  0.00000000000E+00  0.00000000000E+00  0.39999999674E+01  0.40000000000E+01  0.51100000000E-03 0. -1.
    9000002   -1    0    0    0    0 -0.00000000000E+00 -0.00000000000E+00  0.00000000000E+00  0.93800000000E+00  0.93800000000E+00 0.  1.
         11    1    1    2    0    0  0.18609307623E+00  0.99677703643E-01  0.11859583433E+01  0.12046010671E+01  0.51100000000E-03 0. -1.
    9000002    1    1    2    0    0 -0.60868933952E+00 -0.28179056177E+00  0.31925301570E+00  0.11965262725E+01  0.93800000000E+00 0.  1.
         22    1    1    2    0    0  0.42259626329E+00  0.18211285812E+00  0.24947886083E+01  0.25368726604E+01  0.00000000000E+00 0. -1.
</event>
<event>
 5    1  0.8240609E+001  0.1599676E+01  0.7818608E-02  0.3353715E+00
         11   -1    0    0    0    0  0.00000000000E+00  0.00000000000E+00  0.39999999674E+01  0.40000000000E+01  0.51100000000E-03 0.  1.
    9000002   -1    0    0    0    0 -0.00000000000E+00 -0.00000000000E+00  0.00000000000E+00  0.93800000000E+00  0.93800000000E+00 0.  1.
         11    1    1    2    0    0  0.99678218916E-02  0.30235631858E-01  0.35015935902E+00  0.35160402264E+00  0.51100000000E-03 0. -1.
    9000002    1    1    2    0    0 -0.11426781078E+00 -0.33706068631E+00  0.84987826996E-01  0.10068435676E+01  0.93800000000E+00 0.  1.
         22    1    1    2    0    0  0.10429998889E+00  0.30682505445E+00  0.35648527813E+01  0.35795524098E+01  0.00000000000E+00 0.  1.
</event>
<event>
 5    1  0.8240609E+001  0.1599292E+01  0.7818608E-02  0.3354133E+00
         11   -1    0    0    0    0  0.00000000000E+00  0.00000000000E+00  0.39999999674E+01  0.40000000000E+01  0.51100000000E-03 0. -1.
    9000002   -1    0    0    0    0 -0.00000000000E+00 -0.00000000000E+00  0.00000000000E+00  0.93800000000E+00  0.93800000000E+00 0.  1.
         11    1    1    2    0    0 -0.92643878542E-01 -0.36829478468E-01  0.82986971427E+00  0.83583688749E+00  0.51100000000E-03 0. -1.
    9000002    1    1    2    0    0  0.47002767119E+00  0.90370749280E-01  0.15662126364E+00  0.10646441209E+01  0.93800000000E+00 0.  1.
         22    1    1    2    0    0 -0.37738379265E+00 -0.53541270812E-01  0.30135089895E+01  0.30375189916E+01  0.00000000000E+00 0. -1.
</event>
<event>
 5    1  0.8240609E+001  0.1599677E+01  0.7818608E-02  0.3353714E+00
         11   -1    0    0    0    0  0.00000000000E+00  0.00000000000E+00  0.39999999674E+01  0.40000000000E+01  0.51100000000E-03 0. -1.
    9000002   -1    0    0    0    0 -0.00000000000E+00 -0.00000000000E+00  0.00000000000E+00  0.93800000000E+00  0.93800000000E+00 0.  1.
         11    1    1    2    0    0 -0.13560850919E+00 -0.44474584168E-01  0.14081751273E+01  0.14153886769E+01  0.51100000000E-03 0. -1.
    9000002    1    1    2    0    0  0.37667898513E+00  0.12189979436E+00  0.10567391827E+00  0.10236003100E+01  0.93800000000E+00 0.  1.
         22    1    1    2    0    0 -0.24107047594E+00 -0.77425210195E-01  0.24861509218E+01  0.24990110130E+01  0.00000000000E+00 0. -1.
</event>
<event>
 5    1  0.8240609E+001  0.1599671E+01  0.7818608E-02  0.3353721E+00
         11   -1    0    0    0    0  0.00000000000E+00  0.00000000000E+00  0.39999999674E+01  0.40000000000E+01  0.51100000000E-03 0. -1.
    9000002   -1    0    0    0    0 -0.00000000000E+00 -0.00000000000E+00  0.00000000000E+00  0.93800000000E+00  0.93800000000E+00 0. -1.
         11    1    1    2    0    0 -0.55774553477E-01 -0.65392414080E-01  0.68501365859E+00  0.69038463353E+00  0.51100000000E-03 0. -1.
    9000002    1    1    2    0    0  0.30754705417E+00  0.35614554224E+00  0.15086294919E+00  0.10602020879E+01  0.93800000000E+00 0. -1.
         22    1    1    2    0    0 -0.25177250070E+00 -0.29075312816E+00  0.31641233596E+01  0.31874132786E+01  0.00000000000E+00 0. -1.
</event>
<event>
 5    1  0.8240609E+001  0.1599365E+01  0.7818608E-02  0.3354053E+00
         11   -1    0    0    0    0  0.00000000000E+00  0.00000000000E+00  0.39999999674E+01  0.40000000000E+01  0.51100000000E-03 0.  1.
    9000002   -1    0    0    0    0 -0.00000000000E+00 -0.00000000000E+00  0.00000000000E+00  0.93800000000E+00  0.93800000000E+00 0.  1.
         11    1    1    2    0    0  0.33031040813E-01  0.59338611261E-01  0.58361123215E+00  0.58754953141E+00  0.51100000000E-03 0.  1.
    9000002    1    1    2    0    0 -0.11981007880E+00 -0.41082598710E+00  0.12425336358E+00  0.10384677872E+01  0.93800000000E+00 0.  1.
         22    1    1    2    0    0  0.86779037986E-01  0.35148737584E+00  0.32921353716E+01  0.33119826814E+01  0.00000000000E+00 0.  1.
</event>
<event>
 5    1  0.8240609E+001  0.1599666E+01  0.7818608E-02  0.3353726E+00
         11   -1    0    0    0    0  0.00000000000E+00  0.00000000000E+00  0.39999999674E+01  0.40000000000E+01  0.51100000000E-03 0. -1.
    9000002   -1    0    0    0    0 -0.00000000000E+00 -0.00000000000E+00  0.00000000000E+00  0.93800000000E+00  0.93800000000E+00 0. -1.
         11    1    1    2    0    0  0.67379004484E-01  0.11148364795E+00  0.13619387149E+01  0.13681541793E+01  0.51100000000E-03 0. -1.
    9000002    1    1    2    0    0 -0.18868377501E+00 -0.31029795568E+00  0.88571339638E-01  0.10097401995E+01  0.93800000000E+00 0. -1.
         22    1    1    2    0    0  0.12130477053E+00  0.19881430773E+00  0.25494899128E+01  0.25601056212E+01  0.00000000000E+00 0. -1.
</event>
<event>
 5    1  0.8240609E+001  0.1599668E+01  0.7818608E-02  0.3353723E+00
         11   -1    0    0    0    0  0.00000000000E+00  0.00000000000E+00  0.39999999674E+01  0.40000000000E+01  0.51100000000E-03 0.  1.
    9000002   -1    0    0    0    0 -0.00000000000E+00 -0.00000000000E+00  0.00000000000E+00  0.93800000000E+00  0.93800000000E+00 0.  1.
         11    1    1    2    0    0  0.60523249402E-01  0.93796037737E-02  0.48985283348E+00  0.49366699330E+00  0.51100000000E-03 0.  1.
    9000002    1    1    2    0    0 -0.48504077996E+00 -0.58809900406E-01  0.16311893844E+00  0.10701284739E+01  0.93800000000E+00 0.  1.
         22    1    1    2    0    0  0.42451753056E+00  0.49430296632E-01  0.33470281954E+01  0.33742045328E+01  0.00000000000E+00 0.  1.
</event>
<event>
 5    1  0.8240609E+001  0.1595397E+01  0.7818608E-02  0.3358375E+00
         11   -1    0    0    0    0  0.00000000000E+00  0.00000000000E+00  0.39999999674E+01  0.40000000000E+01  0.51100000000E-03 0. -1.
    9000002   -1    0    0    0    0 -0.00000000000E+00 -0.00000000000E+00  0.00000000000E+00  0.93800000000E+00  0.93800000000E+00 0. -1.
         11    1    1    2    0    0  0.50040712563E-01 -0.12946100561E+00  0.13494481722E+01  0.13565673059E+01  0.51100000000E-03 0. -1.
    9000002    1    1    2    0    0 -0.34510587713E+00  0.29735569282E+00  0.14478163678E+00  0.10527697739E+01  0.93800000000E+00 0. -1.
         22    1    1    2    0    0  0.29506516456E+00 -0.16789468721E+00  0.25057701584E+01  0.25286629202E+01  0.00000000000E+00 0. -1.
</event>
<event>
 5    1  0.8240609E+001  0.1598594E+01  0.7818608E-02  0.3354891E+00
         11   -1    0    0    0    0  0.00000000000E+00  0.00000000000E+00  0.39999999674E+01  0.40000000000E+01  0.51100000000E-03 0.  1.
    9000002   -1    0    0    0    0 -0.00000000000E+00 -0.00000000000E+00  0.00000000000E+00  0.93800000000E+00  0.93800000000E+00 0. -1.
         11    1    1    2    0    0  0.16564196513E+00  0.71871594122E-01  0.13063334062E+01  0.13187532051E+01  0.51100000000E-03 0.  1.
    9000002    1    1    2    0    0 -0.41435568720E+00 -0.13174868827E+00  0.12904159272E+00  0.10418944692E+01  0.93800000000E+00 0. -1.
         22    1    1    2    0    0  0.24871372207E+00  0.59877094146E-01  0.25646249684E+01  0.25773523256E+01  0.00000000000E+00 0.  1.
</event>
<event>
 5    1  0.8240609E+001  0.1599674E+01  0.7818608E-02  0.3353717E+00
         11   -1    0    0    0    0  0.00000000000E+00  0.00000000000E+00  0.39999999674E+01  0.40000000000E+01  0.51100000000E-03 0.  1.
    9000002   -1    0    0    0    0 -0.00000000000E+00 -0.00000000000E+00  0.00000000000E+00  0.93800000000E+00  0.93800000000E+00 0.  1.
         11    1    1    2    0    0 -0.27957184863E+00 -0.23027827634E+00  0.13857607932E+01  0.14323134224E+01  0.51100000000E-03 0.  1.
    9000002    1    1    2    0    0  0.68864224756E+00  0.56658133506E+00  0.60655225777E+00  0.14293327799E+01  0.93800000000E+00 0.  1.
         22    1    1    2    0    0 -0.40907039893E+00 -0.33630305873E+00  0.20076869164E+01  0.20763537976E+01  0.00000000000E+00 0.  1.
</event>
<event>
 5    1  0.8240609E+001  0.1592796E+01  0.7818608E-02  0.3361220E+00
         11   -1    0    0    0    0  0.00000000000E+00  0.00000000000E+00  0.39999999674E+01  0.40000000000E+01  0.51100000000E-03 0.  1.
    9000002   -1    0    0    0    0 -0.00000000000E+00 -0.00000000000E+00  0.00000000000E+00  0.93800000000E+00  0.93800000000E+00 0. -1.
         11    1    1    2    0    0  0.19785367954E-01  0.50444071533E-01  0.34399445951E+00  0.34823629109E+00  0.51100000000E-03 0.  1.
    9000002    1    1    2    0    0  0.30149439787E+00 -0.83294258418E+00  0.60743180853E+00  0.14260117890E+01  0.93800000000E+00 0. -1.
         22    1    1    2    0    0 -0.32127976583E+00  0.78249851265E+00  0.30485736993E+01  0.31637519199E+01  0.00000000000E+00 0.  1.
</event>
<event>
 5    1  0.8240609E+001  0.1546851E+01  0.7818608E-02  0.3413150E+00
         11   -1    0    0    0    0  0.00000000000E+00  0.00000000000E+00  0.39999999674E+01  0.40000000000E+01  0.51100000000E-03 0.  1.
    9000002   -1    0    0    0    0 -0.00000000000E+00 -0.00000000000E+00  0.00000000000E+00  0.93800000000E+00  0.93800000000E+00 0. -1.
         11    1    1    2    0    0  0.10594538365E+00  0.16536932806E+00  0.67183445156E+00  0.69995230581E+00  0.51100000000E-03 0.  1.
    9000002    1    1    2    0    0 -0.92235994170E-01  0.13600327600E+00  0.58058358752E-01  0.95405405650E+00  0.93800000000E+00 0. -1.
         22    1    1    2    0    0 -0.13709389484E-01 -0.30137260406E+00  0.32701071570E+01  0.32839936377E+01  0.00000000000E+00 0.  1.
</event>
<event>
 5    1  0.8240609E+001  0.1599540E+01  0.7818608E-02  0.3353863E+00
         11   -1    0    0    0    0  0.00000000000E+00  0.00000000000E+00  0.39999999674E+01  0.40000000000E+01  0.51100000000E-03 0. -1.
    9000002   -1    0    0    0    0 -0.00000000000E+00 -0.00000000000E+00  0.00000000000E+00  0.93800000000E+00  0.93800000000E+00 0. -1.
         11    1    1    2    0    0 -0.13669586260E+00  0.38051372199E-01  0.12750002602E+01  0.12828716189E+01  0.51100000000E-03 0. -1.
    9000002    1    1    2    0    0  0.42079062070E+00 -0.75742789445E-01  0.12387445281E+00  0.10382632598E+01  0.93800000000E+00 0. -1.
         22    1    1    2    0    0 -0.28409475810E+00  0.37691417246E-01  0.26011252543E+01  0.26168651213E+01  0.00000000000E+00 0. -1.
</event>
<event>
 5    1  0.8240609E+001  0.1599675E+01  0.7818608E-02  0.3353716E+00
         11   -1    0    0    0    0  0.00000000000E+00  0.00000000000E+00  0.39999999674E+01  0.40000000000E+01  0.51100000000E-03 0.  1.
    9000002   -1    0    0    0    0 -0.00000000000E+00 -0.00000000000E+00  0.00000000000E+00  0.93800000000E+00  0.93800000000E+00 0.  1.
         11    1    1    2    0    0 -0.13209038266E+00 -0.52008933888E-01  0.10964098402E+01  0.11055621182E+01  0.51100000000E-03 0. -1.
    9000002    1    1    2    0    0  0.45971083956E+00  0.17740860475E+00  0.16601695191E+00  0.10724800685E+01  0.93800000000E+00 0.  1.
         22    1    1    2    0    0 -0.32762045690E+00 -0.12539967086E+00  0.27375731753E+01  0.27599578133E+01  0.00000000000E+00 0.  1.
</event>
<event>
 5    1  0.8240609E+001  0.1597665E+01  0.7818608E-02  0.3355901E+00
         11   -1    0    0    0    0  0.00000000000E+00  0.00000000000E+00  0.39999999674E+01  0.40000000000E+01  0.51100000000E-03 0.  1.
    9000002   -1    0    0    0    0 -0.00000000000E+00 -0.00000000000E+00  0.00000000000E+00  0.93800000000E+00  0.93800000000E+00 0.  1.
         11    1    1    2    0    0 -0.14431400096E+00  0.46153583916E-01  0.10954119299E+01  0.11058409657E+01  0.51100000000E-03 0.  1.
    9000002    1    1    2    0    0  0.40003055180E+00 -0.32349281128E-01  0.11034136129E+00  0.10262018000E+01  0.93800000000E+00 0.  1.
         22    1    1    2    0    0 -0.25571655084E+00 -0.13804302788E-01  0.27942466762E+01  0.28059572343E+01  0.00000000000E+00 0.  1.
</event>
<event>
 5    1  0.8240609E+001  0.1564913E+01  0.7818608E-02  0.3392348E+00
         11   -1    0    0    0    0  0.00000000000E+00  0.00000000000E+00  0.39999999674E+01  0.40000000000E+01  0.51100000000E-03 0. -1.
    9000002   -1    0    0    0    0 -0.00000000000E+00 -0.00000000000E+00  0.00000000000E+00  0.93800000000E+00  0.93800000000E+00 0. -1.
         11    1    1    2    0    0  0.19145688133E+00 -0.26119121475E+00  0.10378859111E+01  0.10872368710E+01  0.51100000000E-03 0. -1.
    9000002    1    1    2    0    0 -0.58407468554E+00  0.21178156192E+00  0.30686956580E+00  0.11661936369E+01  0.93800000000E+00 0. -1.
         22    1    1    2    0    0  0.39261780421E+00  0.49409652834E-01  0.26552444905E+01  0.26845694922E+01  0.00000000000E+00 0. -1.
</event>
<event>
 5    1  0.8240609E+001  0.1599677E+01  0.7818608E-02  0.3353714E+00
         11   -1    0    0    0    0  0.00000000000E+00  0.00000000000E+00  0.39999999674E+01  0.40000000000E+01  0.51100000000E-03 0. -1.
    9000002   -1    0    0    0    0 -0.00000000000E+00 -0.00000000000E+00  0.00000000000E+00  0.93800000000E+00  0.93800000000E+00 0. -1.
         11    1    1    2    0    0  0.15280304697E-02 -0.18757107468E+00  0.68648796994E+00  0.71165387438E+00  0.51100000000E-03 0.  1.
    9000002    1    1    2    0    0 -0.97105945687E-02  0.91536648981E+00  0.64580101023E+00  0.14611273220E+01  0.93800000000E+00 0. -1.
         22    1    1    2    0    0  0.81825640990E-02 -0.72779541513E+00  0.26677109872E+01  0.27652188036E+01  0.00000000000E+00 0. -1.
</event>
<event>
 5    1  0.8240609E+001  0.1596820E+01  0.7818608E-02  0.3356822E+00
         11   -1    0    0    0    0  0.00000000000E+00  0.00000000000E+00  0.39999999674E+01  0.40000000000E+01  0.51100000000E-03 0.  1.
    9000002   -1    0    0    0    0 -0.00000000000E+00 -0.00000000000E+00  0.00000000000E+00  0.93800000000E+00  0.93800000000E+00 0.  1.
         11    1    1    2    0    0 -0.17300042195E+00  0.58078875894E-01  0.94920274695E+00  0.96658595984E+00  0.51100000000E-03 0.  1.
    9000002    1    1    2    0    0  0.63781281104E+00 -0.10770274779E-01  0.28929223389E+00  0.11706644170E+01  0.93800000000E+00 0.  1.
         22    1    1    2    0    0 -0.46481238909E+00 -0.47308601115E-01  0.27615049865E+01  0.28007496231E+01  0.00000000000E+00 0.  1.
</event>
<event>
 5    1  0.8240609E+001  0.1583512E+01  0.7818608E-02  0.3371456E+00
         11   -1    0    0    0    0  0.00000000000E+00  0.00000000000E+00  0.39999999674E+01  0.40000000000E+01  0.51100000000E-03 0.  1.
    9000002   -1    0    0    0    0 -0.00000000000E+00 -0.00000000000E+00  0.00000000000E+00  0.93800000000E+00  0.93800000000E+00 0.  1.
         11    1    1    2    0    0  0.25269630400E-01  0.15046106670E+00  0.97660169814E+00  0.98844738086E+00  0.51100000000E-03 0.  1.
    9000002    1    1    2    0    0  0.35525692249E+00 -0.33099141139E+00  0.17553089588E+00  0.10707090598E+01  0.93800000000E+00 0.  1.
         22    1    1    2    0    0 -0.38052655289E+00  0.18053034469E+00  0.28478673733E+01  0.28788435593E+01  0.00000000000E+00 0.  1.
</event>
<event>
 5    1  0.8240609E+001  0.1599651E+01  0.7818608E-02  0.3353742E+00
         11   -1    0    0    0    0  0.00000000000E+00  0.00000000000E+00  0.39999999674E+01  0.40000000000E+01  0.51100000000E-03 0. -1.
    9000002   -1    0    0    0    0 -0.00000000000E+00 -0.00000000000E+00  0.00000000000E+00  0.93800000000E+00  0.93800000000E+00 0. -1.
         11    1    1    2    0    0 -0.11914458814E+00  0.12463809833E+00  0.12738844667E+01  0.12855006745E+01  0.51100000000E-03 0. -1.
    9000002    1    1    2    0    0  0.36620585427E+00 -0.38642170744E+00  0.19514855613E+00  0.10960636034E+01  0.93800000000E+00 0. -1.
         22    1    1    2    0    0 -0.24706126613E+00  0.26178360911E+00  0.25309669445E+01  0.25564357221E+01  0.00000000000E+00 0. -1.
</event>
<event>
 5    1  0.8240609E+001  0.1599677E+01  0.7818608E-02  0.3353714E+00
         11   -1    0    0    0    0  0.00000000000E+00  0.00000000000E+00  0.39999999674E+01  0.40000000000E+01  0.51100000000E-03 0. -1.
    9000002   -1    0    0    0    0 -0.00000000000E+00 -0.00000000000E+00  0.00000000000E+00  0.93800000000E+00  0.93800000000E+00 0. -1.
         11    1    1    2    0    0 -0.12375490514E+00  0.34119358932E-01  0.77662652177E+00  0.78716480018E+00  0.51100000000E-03 0.  1.
    9000002    1    1    2    0    0  0.59443564432E+00 -0.16653606820E+00  0.26689143128E+00  0.11541936724E+01  0.93800000000E+00 0. -1.
         22    1    1    2    0    0 -0.47068073918E+00  0.13241670927E+00  0.29564820143E+01  0.29966415274E+01  0.00000000000E+00 0. -1.
</event>
<event>
 5    1  0.8240609E+001  0.1599663E+01  0.7818608E-02  0.3353729E+00
         11   -1    0    0    0    0  0.00000000000E+00  0.00000000000E+00  0.39999999674E+01  0.40000000000E+01  0.51100000000E-03 0.  1.
    9000002   -1    0    0    0    0 -0.00000000000E+00 -0.00000000000E+00  0.00000000000E+00  0.93800000000E+00  0.93800000000E+00 0. -1.
         11    1    1    2    0    0  0.56706316969E-01  0.70818207950E-01  0.64400598618E+00  0.65036512538E+00  0.51100000000E-03 0.  1.
    9000002    1    1    2    0    0 -0.35305835960E+00 -0.42238827221E+00  0.20935892747E+00  0.11075816982E+01  0.93800000000E+00 0. -1.
         22    1    1    2    0    0  0.29635204263E+00  0.35157006426E+00  0.31466350537E+01  0.31800531764E+01  0.00000000000E+00 0.  1.
</event>
<event>
 5    1  0.8240609E+001  0.1518618E+01  0.7818608E-02  0.3446723E+00
         11   -1    0    0    0    0  0.00000000000E+00  0.00000000000E+00  0.39999999674E+01  0.40000000000E+01  0.51100000000E-03 0. -1.
    9000002   -1    0    0    0    0 -0.00000000000E+00 -0.00000000000E+00  0.00000000000E+00  0.93800000000E+00  0.93800000000E+00 0.  1.
         11    1    1    2    0    0  0.71162018667E-01  0.27995729289E+00  0.12684662548E+01  0.13009408209E+01  0.51100000000E-03 0. -1.
    9000002    1    1    2    0    0  0.99311524973E-01  0.73041192983E-01  0.72012961246E-01  0.94880327858E+00  0.93800000000E+00 0.  1.
         22    1    1    2    0    0 -0.17047354364E+00 -0.35299848587E+00  0.26595207513E+01  0.26882559005E+01  0.00000000000E+00 0. -1.
</event>
<event>
 5    1  0.8240609E+001  0.1599670E+01  0.7818608E-02  0.3353721E+00
         11   -1    0    0    0    0  0.00000000000E+00  0.00000000000E+00  0.39999999674E+01  0.40000000000E+01  0.51100000000E-03 0.  1.
    9000002   -1    0    0    0    0 -0.00000000000E+00 -0.00000000000E+00  0.00000000000E+00  0.93800000000E+00  0.93800000000E+00 0.  1.
         11    1    1    2    0    0 -0.77762827923E-02  0.10533593996E-01  0.82618229179E-01  0.83650822412E-01  0.51100000000E-03 0. -1.
    9000002    1    1    2    0    0  0.38582750877E+00 -0.48115574960E+00  0.26636317995E+00  0.11537621356E+01  0.93800000000E+00 0.  1.
         22    1    1    2    0    0 -0.37805122598E+00  0.47062215561E+00  0.36510185582E+01  0.37005870420E+01  0.00000000000E+00 0.  1.
</event>
<event>
 5    1  0.8240609E+001  0.1598933E+01  0.7818608E-02  0.3354522E+00
         11   -1    0    0    0    0  0.00000000000E+00  0.00000000000E+00  0.39999999674E+01  0.40000000000E+01  0.51100000000E-03 0. -1.
    9000002   -1    0    0    0    0 -0.00000000000E+00 -0.00000000000E+00  0.00000000000E+00  0.93800000000E+00  0.93800000000E+00 0. -1.
         11    1    1    2    0    0  0.10073910390E-01  0.20611538372E+00  0.90259574649E+00  0.92588572609E+00  0.51100000000E-03 0. -1.
    9000002    1    1    2    0    0 -0.14210860323E+00 -0.76491435059E+00  0.44357180382E+00  0.12968765415E+01  0.93800000000E+00 0. -1.
         22    1    1    2    0    0  0.13203469284E+00  0.55879896687E+00  0.26538324170E+01  0.27152377324E+01  0.00000000000E+00 0. -1.
</event>
<event>
 5    1  0.8240609E+001  0.1562352E+01  0.7818608E-02  0.3395267E+00
         11   -1    0    0    0    0  0.00000000000E+00  0.00000000000E+00  0.39999999674E+01  0.40000000000E+01  0.51100000000E-03 0. -1.
    9000002   -1    0    0    0    0 -0.00000000000E+00 -0.00000000000E+00  0.00000000000E+00  0.93800000000E+00  0.93800000000E+00 0.  1.
         11    1    1    2    0    0 -0.11390100035E+00  0.13237218082E+00  0.10541074006E+01  0.10684748501E+01  0.51100000000E-03 0. -1.
    9000002    1    1    2    0    0 -0.33823018641E-01  0.12175343048E+00  0.38442165200E-01  0.94725376457E+00  0.93800000000E+00 0.  1.
         22    1    1    2    0    0  0.14772401899E+00 -0.25412561130E+00  0.29074504016E+01  0.29222713853E+01  0.00000000000E+00 0. -1.
</event>
<event>
 5    1  0.8240609E+001  0.1599675E+01  0.7818608E-02  0.3353716E+00
         11   -1    0    0    0    0  0.00000000000E+00  0.00000000000E+00  0.39999999674E+01  0.40000000000E+01  0.51100000000E-03 0. -1.
    9000002   -1    0    0    0    0 -0.00000000000E+00 -0.00000000000E+00  0.00000000000E+00  0.93800000000E+00  0.93800000000E+00 0. -1.
         11    1    1    2    0    0  0.26896035704E-01  0.44732089193E-01  0.40599022269E+00  0.40933199067E+00  0.51100000000E-03 0. -1.
    9000002    1    1    2    0    0 -0.25957438744E+00 -0.42769064156E+00  0.17135323748E+00  0.10768027115E+01  0.93800000000E+00 0. -1.
         22    1    1    2    0    0  0.23267835174E+00  0.38295855237E+00  0.34226565072E+01  0.34518652978E+01  0.00000000000E+00 0. -1.
</event>
<event>
 5    1  0.8240609E+001  0.1599507E+01  0.7818608E-02  0.3353898E+00
         11   -1    0    0    0    0  0.00000000000E+00  0.00000000000E+00  0.39999999674E+01  0.40000000000E+01  0.51100000000E-03 0. -1.
    9000002   -1    0    0    0    0 -0.00000000000E+00 -0.00000000000E+00  0.00000000000E+00  0.93800000000E+00  0.93800000000E+00 0. -1.
         11    1    1    2    0    0 -0.14907194163E+00 -0.52673790750E-01  0.14133372112E+01  0.14221530529E+01  0.51100000000E-03 0. -1.
    9000002    1    1    2    0    0  0.41449536802E+00  0.10346433728E+00  0.12369946264E+00  0.10381025172E+01  0.93800000000E+00 0. -1.
         22    1    1    2    0    0 -0.26542342639E+00 -0.50790546528E-01  0.24629632935E+01  0.24777444299E+01  0.00000000000E+00 0. -1.
</event>
<event>
 5    1  0.8240609E+001  0.1599670E+01  0.7818608E-02  0.3353721E+00
         11   -1    0    0    0    0  0.00000000000E+00  0.00000000000E+00  0.39999999674E+01  0.40000000000E+01  0.51100000000E-03 0.  1.
    9000002   -1    0    0    0    0 -0.00000000000E+00 -0.00000000000E+00  0.00000000000E+00  0.93800000000E+00  0.93800000000E+00 0.  1.
         11    1    1    2    0    0 -0.84302142036E-01 -0.12726980932E+00  0.13017007196E+01  0.13106217914E+01  0.51100000000E-03 0.  1.
    9000002    1    1    2    0    0  0.24144859651E+00  0.37853509032E+00  0.13689952576E+00  0.10488907090E+01  0.93800000000E+00 0.  1.
         22    1    1    2    0    0 -0.15714645447E+00 -0.25126528100E+00  0.25613997220E+01  0.25784874996E+01  0.00000000000E+00 0.  1.
</event>
<event>
 5    1  0.8240609E+001  0.1599645E+01  0.7818608E-02  0.3353749E+00
         11   -1    0    0    0    0  0.00000000000E+00  0.00000000000E+00  0.39999999674E+01  0.40000000000E+01  0.51100000000E-03 0. -1.
    9000002   -1    0    0    0    0 -0.00000000000E+00 -0.00000000000E+00  0.00000000000E+00  0.93800000000E+00  0.93800000000E+00 0.  1.
         11    1    1    2    0    0 -0.15516447041E-01 -0.13891228661E+00  0.10697791804E+01  0.10788721608E+01  0.51100000000E-03 0. -1.
    9000002    1    1    2    0    0  0.73317645527E-01  0.50864903364E+00  0.18125032539E+00  0.10848018238E+01  0.93800000000E+00 0.  1.
         22    1    1    2    0    0 -0.57801198487E-01 -0.36973674703E+00  0.27489704616E+01  0.27743260154E+01  0.00000000000E+00 0. -1.
</event>
<event>
 5    1  0.8240609E+001  0.1565093E+01  0.7818608E-02  0.3392145E+00
         11   -1    0    0    0    0  0.00000000000E+00  0.00000000000E+00  0.39999999674E+01  0.40000000000E+01  0.51100000000E-03 0. -1.
    9000002   -1    0    0    0    0 -0.00000000000E+00 -0.00000000000E+00  0.00000000000E+00  0.93800000000E+00  0.93800000000E+00 0. -1.
         11    1    1    2    0    0  0.80064543113E-01 -0.72822890466E-01  0.21700433397E+00  0.24249669384E+00  0.51100000000E-03 0. -1.
    9000002    1    1    2    0    0  0.23363963985E+00  0.39939735412E+00  0.17652278779E+00  0.10607120356E+01  0.93800000000E+00 0. -1.
         22    1    1    2    0    0 -0.31370418296E+00 -0.32657446366E+00  0.36064728456E+01  0.36347912706E+01  0.00000000000E+00 0. -1.
</event>
<event>
 5    1  0.8240609E+001  0.1538409E+01  0.7818608E-02  0.3423050E+00
         11   -1    0    0    0    0  0.00000000000E+00  0.00000000000E+00  0.39999999674E+01  0.40000000000E+01  0.51100000000E-03 0. -1.
    9000002   -1    0    0    0    0 -0.00000000000E+00 -0.00000000000E+00  0.00000000000E+00  0.93800000000E+00  0.93800000000E+00 0.  1.
         11    1    1    2    0    0 -0.54553323855E-01  0.29640629734E-01  0.22156730975E-01  0.65922787586E-01  0.51100000000E-03 0. -1.
    9000002    1    1    2    0    0  0.11555875486E+00  0.37841111525E+00  0.15824405577E+00  0.10302591806E+01  0.93800000000E+00 0.  1.
         22    1    1    2    0    0 -0.61005431008E-01 -0.40805174498E+00  0.38195991806E+01  0.38418180318E+01  0.00000000000E+00 0. -1.
</event>
<event>
 5    1  0.8240609E+001  0.1599672E+01  0.7818608E-02  0.3353720E+00
         11   -1    0    0    0    0  0.00000000000E+00  0.00000000000E+00  0.39999999674E+01  0.40000000000E+01  0.51100000000E-03 0.  1.
    9000002   -1    0    0    0    0 -0.00000000000E+00 -0.00000000000E+00  0.00000000000E+00  0.93800000000E+00  0.93800000000E+00 0.  1.
         11    1    1    2    0    0  0.23397539226E+00 -0.16627616565E+00  0.68342829212E+00  0.74126023705E+00  0.51100000000E-03 0.  1.
    9000002    1    1    2    0    0 -0.94538967079E+00  0.68087297292E+00  0.12425129385E+01  0.19444876028E+01  0.93800000000E+00 0.  1.
         22    1    1    2    0    0  0.71141427853E+00 -0.51459680727E+00  0.20740587367E+01  0.22522521602E+01  0.00000000000E+00 0.  1.
</event>
<event>
 5    1  0.8240609E+001  0.1599677E+01  0.7818608E-02  0.3353715E+00
         11   -1    0    0    0    0  0.00000000000E+00  0.00000000000E+00  0.39999999674E+01  0.40000000000E+01  0.51100000000E-03 0. -1.
    9000002   -1    0    0    0    0 -0.00000000000E+00 -0.00000000000E+00  0.00000000000E+00  0.93800000000E+00  0.93800000000E+00 0.  1.
         11    1    1    2    0    0 -0.49220373612E-01  0.13461251322E-01  0.45316415056E+00  0.45602835321E+00  0.51100000000E-03 0.  1.
    9000002    1    1    2    0    0  0.41986320646E+00 -0.11790445027E+00  0.12891254405E+00  0.10424245851E+01  0.93800000000E+00 0.  1.
         22    1    1    2    0    0 -0.37064283285E+00  0.10444319895E+00  0.34179232728E+01  0.34395470617E+01  0.00000000000E+00 0. -1.
</event>
<event>
 5    1  0.8240609E+001  0.1598448E+01  0.7818608E-02  0.3355050E+00
         11   -1    0    0    0    0  0.00000000000E+00  0.00000000000E+00  0.39999999674E+01  0.40000000000E+01  0.51100000000E-03 0. -1.
    9000002   -1    0    0    0    0 -0.00000000000E+00 -0.00000000000E+00  0.00000000000E+00  0.93800000000E+00  0.93800000000E+00 0. -1.
         11    1    1    2    0    0  0.12214044971E+00 -0.94876649842E-01  0.67954457988E+00  0.69692249591E+00  0.51100000000E-03 0. -1.
    9000002    1    1    2    0    0 -0.65595620581E+00  0.32811753305E+00  0.38950609044E+00  0.12527963338E+01  0.93800000000E+00 0. -1.
         22    1    1    2    0    0  0.53381575609E+00 -0.23324088321E+00  0.29309492970E+01  0.29882811703E+01  0.00000000000E+00 0. -1.
</event>
<event>
 5    1  0.8240609E+001  0.1588949E+01  0.7818608E-02  0.3365446E+00
         11   -1    0    0    0    0  0.00000000000E+00  0.00000000000E+00  0.39999999674E+01  0.40000000000E+01  0.51100000000E-03 0.  1.
    9000002   -1    0    0    0    0 -0.00000000000E+00 -0.00000000000E+00  0.00000000000E+00  0.93800000000E+00  0.93800000000E+00 0. -1.
         11    1    1    2    0    0  0.96061981547E-01 -0.20414546104E-01  0.52209914851E+00  0.53125553172E+00  0.51100000000E-03 0.  1.
    9000002    1    1    2    0    0 -0.36225966181E+00 -0.37768116609E+00  0.19817795719E+00  0.10922424770E+01  0.93800000000E+00 0. -1.
         22    1    1    2    0    0  0.26619768026E+00  0.39809571220E+00  0.32797228617E+01  0.33145019913E+01  0.00000000000E+00 0.  1.
</event>
<event>
 5    1  0.8240609E+001  0.1542694E+01  0.7818608E-02  0.3418010E+00
         11   -1    0    0    0    0  0.00000000000E+00  0.00000000000E+00  0.39999999674E+01  0.40000000000E+01  0.51100000000E-03 0. -1.
    9000002   -1    0    0    0    0 -0.00000000000E+00 -0.00000000000E+00  0.00000000000E+00  0.93800000000E+00  0.93800000000E+00 0.  1.
         11    1    1    2    0    0  0.69201659607E-01 -0.19536520517E+00  0.98579298552E+00  0.10073452757E+01  0.51100000000E-03 0. -1.
    9000002    1    1    2    0    0  0.30581838086E+00 -0.27790029792E-01  0.10914932304E+00  0.99300289151E+00  0.93800000000E+00 0.  1.
         22    1    1    2    0    0 -0.37502004046E+00  0.22315523496E+00  0.29050576588E+01  0.29376518328E+01  0.00000000000E+00 0. -1.
</event>
<event>
 5    1  0.8240609E+001  0.1594934E+01  0.7818608E-02  0.3358880E+00
         11   -1    0    0    0    0  0.00000000000E+00  0.00000000000E+00  0.39999999674E+01  0.40000000000E+01  0.51100000000E-03 0.  1.
    9000002   -1    0    0    0    0 -0.00000000000E+00 -0.00000000000E+00  0.00000000000E+00  0.93800000000E+00  0.93800000000E+00 0.  1.
         11    1    1    2    0    0 -0.19573544375E+00 -0.21779012925E+00  0.93727254948E+00  0.98194959009E+00  0.51100000000E-03 0.  1.
    9000002    1    1    2    0    0  0.61864217769E+00  0.55054841014E+00  0.51666039039E+00  0.13537369223E+01  0.93800000000E+00 0.  1.
         22    1    1    2    0    0 -0.42290673394E+00 -0.33275828089E+00  0.25460670275E+01  0.26023134876E+01  0.00000000000E+00 0.  1.
</event>
<event>
 5    1  0.8240609E+001  0.1574007E+01  0.7818608E-02  0.3382067E+00
         11   -1    0    0    0    0  0.00000000000E+00  0.00000000000E+00  0.39999999674E+01  0.40000000000E+01  0.51100000000E-03 0.  1.
    9000002   -1    0    0    0    0 -0.00000000000E+00 -0.00000000000E+00  0.00000000000E+00  0.93800000000E+00  0.93800000000E+00 0. -1.
         11    1    1    2    0    0  0.74128499613E-01 -0.16913972165E+00  0.52384953140E+00  0.55544745257E+00  0.51100000000E-03 0.  1.
    9000002    1    1    2    0    0 -0.60866327568E+00  0.23370616207E+00  0.32772128793E+00  0.11884169285E+01  0.93800000000E+00 0. -1.
         22    1    1    2    0    0  0.53453477606E+00 -0.64566440422E-01  0.31484291480E+01  0.31941356189E+01  0.00000000000E+00 0.  1.
</event>
<event>
 5    1  0.8240609E+001  0.1599285E+01  0.7818608E-02  0.3354140E+00
         11   -1    0    0    0    0  0.00000000000E+00  0.00000000000E+00  0.39999999674E+01  0.40000000000E+01  0.51100000000E-03 0.  1.
    9000002   -1    0    0    0    0 -0.00000000000E+00 -0.00000000000E+00  0.00000000000E+00  0.93800000000E+00  0.93800000000E+00 0. -1.
         11    1    1    2    0    0  0.42172569415E-01 -0.10763846685E+00  0.96983805977E+00  0.97670399224E+00  0.51100000000E-03 0.  1.
    9000002    1    1    2    0    0 -0.18786178699E+00  0.35113718353E+00  0.10727339159E+00  0.10246662643E+01  0.93800000000E+00 0. -1.
         22    1    1    2    0    0  0.14568921757E+00 -0.24349871668E+00  0.29228885160E+01  0.29366297434E+01  0.00000000000E+00 0.  1.
</event>
<event>
 5    1  0.8240609E+001  0.1599012E+01  0.7818608E-02  0.3354436E+00
         11   -1    0    0    0    0  0.00000000000E+00  0.00000000000E+00  0.39999999674E+01  0.40000000000E+01  0.51100000000E-03 0.  1.
    9000002   -1    0    0    0    0 -0.00000000000E+00 -0.00000000000E+00  0.00000000000E+00  0.93800000000E+00  0.93800000000E+00 0.  1.
         11    1    1    2    0    0 -0.97705476422E-02 -0.32725063483E-02  0.65607655985E-01  0.66413843014E-01  0.51100000000E-03 0.  1.
    9000002    1    1    2    0    0  0.43408861817E+00 -0.25824577756E+00  0.17539889564E+00  0.10796909663E+01  0.93800000000E+00 0.  1.
         22    1    1    2    0    0 -0.42431807053E+00  0.26151828391E+00  0.37589934157E+01  0.37918951907E+01  0.00000000000E+00 0.  1.
</event>
<event>
 5    1  0.8240609E+001  0.1599408E+01  0.7818608E-02  0.3354006E+00
         11   -1    0    0    0    0  0.00000000000E+00  0.00000000000E+00  0.39999999674E+01  0.40000000000E+01  0.51100000000E-03 0.  1.
    9000002   -1    0    0    0    0 -0.00000000000E+00 -0.00000000000E+00  0.00000000000E+00  0.93800000000E+00  0.93800000000E+00 0.  1.
         11    1    1    2    0    0 -0.10191751846E-01 -0.15984172911E-01  0.26210032224E+00  0.26278547454E+00  0.51100000000E-03 0.  1.
    9000002    1    1    2    0    0  0.29461453258E+00  0.27060577939E+00  0.10816443754E+00  0.10254602655E+01  0.93800000000E+00 0.  1.
         22    1    1    2    0    0 -0.28442278073E+00 -0.25462160648E+00  0.36297352076E+01  0.36497542599E+01  0.00000000000E+00 0.  1.
</event>
<event>
 5    1  0.8240609E+001  0.1565135E+01  0.7818608E-02  0.3392097E+00
         11   -1    0    0    0    0  0.00000000000E+00  0.00000000000E+00  0.39999999674E+01  0.40000000000E+01  0.51100000000E-03 0. -1.
    9000002   -1    0    0    0    0 -0.00000000000E+00 -0.00000000000E+00  0.00000000000E+00  0.93800000000E+00  0.93800000000E+00 0. -1.
         11    1    1    2    0    0  0.26253770819E+00 -0.15630751588E+00  0.66901669266E+00  0.73548737849E+00  0.51100000000E-03 0. -1.
    9000002    1    1    2    0    0 -0.55040139054E+00  0.40633644571E+00  0.37209584251E+00  0.12191596753E+01  0.93800000000E+00 0. -1.
         22    1    1    2    0    0  0.28786368235E+00 -0.25002892982E+00  0.29588874322E+01  0.29833529462E+01  0.00000000000E+00 0. -1.
</event>
<event>
 5    1  0.8240609E+001  0.1597821E+01  0.7818608E-02  0.3355732E+00
         11   -1    0    0    0    0  0.00000000000E+00  0.00000000000E+00  0.39999999674E+01  0.40000000000E+01  0.51100000000E-03 0. -1.
    9000002   -1    0    0    0    0 -0.00000000000E+00 -0.00000000000E+00  0.00000000000E+00  0.93800000000E+00  0.93800000000E+00 0.  1.
         11    1    1    2    0    0 -0.55201095847E-01  0.74363456579E-02  0.72866230015E+00  0.73078825182E+00  0.51100000000E-03 0. -1.
    9000002    1    1    2    0    0  0.23215812030E+00 -0.24716041745E+00  0.78494362420E-01  0.10004953921E+01  0.93800000000E+00 0.  1.
         22    1    1    2    0    0 -0.17695702446E+00  0.23972407179E+00  0.31928433048E+01  0.32067163560E+01  0.00000000000E+00 0. -1.
</event>
<event>
 5    1  0.8240609E+001  0.1593595E+01  0.7818608E-02  0.3360345E+00
         11   -1    0    0    0    0  0.00000000000E+00  0.00000000000E+00  0.39999999674E+01  0.40000000000E+01  0.51100000000E-03 0.  1.
    9000002   -1    0    0    0    0 -0.00000000000E+00 -0.00000000000E+00  0.00000000000E+00  0.93800000000E+00  0.93800000000E+00 0.  1.
         11    1    1    2    0    0  0.77803332829E-01 -0.60387777523E-01  0.62697890687E+00  0.63466751379E+00  0.51100000000E-03 0.  1.
    9000002    1    1    2    0    0 -0.67008882427E-01  0.48448306706E+00  0.16890632693E+00  0.10712550489E+01  0.93800000000E+00 0.  1.
         22    1    1    2    0    0 -0.10794450402E-01 -0.42409528954E+00  0.32041147336E+01  0.32320774373E+01  0.00000000000E+00 0.  1.
</event>
<event>
 5    1  0.8240609E+001  0.1599657E+01  0.7818608E-02  0.3353736E+00
         11   -1    0    0    0    0  0.00000000000E+00  0.00000000000E+00  0.39999999674E+01  0.40000000000E+01  0.51100000000E-03 0. -1.
    9000002   -1    0    0    0    0 -0.00000000000E+00 -0.00000000000E+00  0.00000000000E+00  0.93800000000E+00  0.93800000000E+00 0. -1.
         11    1    1    2    0    0  0.60888227226E-02 -0.83238078641E-02  0.68016331899E-01  0.68795654409E-01  0.51100000000E-03 0. -1.
    9000002    1    1    2    0    0 -0.36752159218E+00  0.39500622689E+00  0.20068924129E+00  0.11005554105E+01  0.93800000000E+00 0. -1.
         22    1    1    2    0    0  0.36143276946E+00 -0.38668241902E+00  0.37312943942E+01  0.37686489351E+01  0.00000000000E+00 0. -1.
</event>
<event>
 5    1  0.8240609E+001  0.1595145E+01  0.7818608E-02  0.3358650E+00
         11   -1    0    0    0    0  0.00000000000E+00  0.00000000000E+00  0.39999999674E+01  0.40000000000E+01  0.51100000000E-03 0.  1.
    9000002   -1    0    0    0    0 -0.00000000000E+00 -0.00000000000E+00  0.00000000000E+00  0.93800000000E+00  0.93800000000E+00 0.  1.
         11    1    1    2    0    0 -0.24275459096E-01 -0.24510613675E-02  0.12031377402E+01  0.12033852204E+01  0.51100000000E-03 0.  1.
    9000002    1    1    2    0    0  0.21206326338E+00  0.21349409656E+00  0.63970144136E-01  0.98716094751E+00  0.93800000000E+00 0.  1.
         22    1    1    2    0    0 -0.18778780428E+00 -0.21104303520E+00  0.27328920830E+01  0.27474538321E+01  0.00000000000E+00 0.  1.
</event>
<event>
 5    1  0.8240609E+001  0.1585875E+01  0.7818608E-02  0.3368839E+00
         11   -1    0    0    0    0  0.00000000000E+00  0.00000000000E+00  0.39999999674E+01  0.40000000000E+01  0.51100000000E-03 0.  1.
    9000002   -1    0    0    0    0 -0.00000000000E+00 -0.00000000000E+00  0.00000000000E+00  0.93800000000E+00  0.93800000000E+00 0.  1.
         11    1    1    2    0    0  0.88449569590E-01 -0.20971473857E+00  0.10776841649E+01  0.11014567710E+01  0.51100000000E-03 0.  1.
    9000002    1    1    2    0    0  0.95031987443E-01  0.54211082771E+00  0.22239005908E+00  0.11100525062E+01  0.93800000000E+00 0.  1.
         22    1    1    2    0    0 -0.18348155703E+00 -0.33239608915E+00  0.26999257433E+01  0.27264907228E+01  0.00000000000E+00 0.  1.
</event>
<event>
 5    1  0.8240609E+001  0.1599650E+01  0.7818608E-02  0.3353743E+00
         11   -1    0    0    0    0  0.00000000000E+00  0.00000000000E+00  0.39999999674E+01  0.40000000000E+01  0.51100000000E-03 0. -1.
    9000002   -1    0    0    0    0 -0.00000000000E+00 -0.00000000000E+00  0.00000000000E+00  0.93800000000E+00  0.93800000000E+00 0.  1.
         11    1    1    2    0    0 -0.17352527757E-01  0.16039555723E+00  0.10759644248E+01  0.10879924401E+01  0.51100000000E-03 0. -1.
    9000002    1    1    2    0    0  0.71932370468E-01 -0.54821135788E+00  0.21129638876E+00  0.11091438693E+01  0.93800000000E+00 0.  1.
         22    1    1    2    0    0 -0.54579842711E-01  0.38781580065E+00  0.27127391538E+01  0.27408636907E+01  0.00000000000E+00 0. -1.
</event>
<event>
 5    1  0.8240609E+001  0.1598048E+01  0.7818608E-02  0.3355485E+00
         11   -1    0    0    0    0  0.00000000000E+00  0.00000000000E+00  0.39999999674E+01  0.40000000000E+01  0.51100000000E-03 0. -1.
    9000002   -1    0    0    0    0 -0.00000000000E+00 -0.00000000000E+00  0.00000000000E+00  0.93800000000E+00  0.93800000000E+00 0.  1.
         11    1    1    2    0    0 -0.10188656879E-02 -0.47597845144E-01  0.22256070132E+00  0.22759639681E+00  0.51100000000E-03 0. -1.
    9000002    1    1    2    0    0  0.15540974314E+00  0.45100515733E+00  0.15663357122E+00  0.10639247698E+01  0.93800000000E+00 0.  1.
         22    1    1    2    0    0 -0.15439087745E+00 -0.40340731218E+00  0.36208056948E+01  0.36464788334E+01  0.00000000000E+00 0. -1.
</event>
<event>
 5    1  0.8240609E+001  0.1598600E+01  0.7818608E-02  0.3354884E+00
         11   -1    0    0    0    0  0.00000000000E+00  0.00000000000E+00  0.39999999674E+01  0.40000000000E+01  0.51100000000E-03 0. -1.
    9000002   -1    0    0    0    0 -0.00000000000E+00 -0.00000000000E+00  0.00000000000E+00  0.93800000000E+00  0.93800000000E+00 0.  1.
         11    1    1    2    0    0 -0.47927490968E-01 -0.10591139123E+00  0.94565160497E+00  0.95277042685E+00  0.51100000000E-03 0. -1.
    9000002    1    1    2    0    0  0.13592322592E+00  0.54877467027E+00  0.22245725272E+00  0.11175687860E+01  0.93800000000E+00 0.  1.
         22    1    1    2    0    0 -0.87995734949E-01 -0.44286327904E+00  0.28318911097E+01  0.28676607872E+01  0.00000000000E+00 0. -1.
</event>
<event>
 5    1  0.8240609E+001  0.1572273E+01  0.7818608E-02  0.3384019E+00
         11   -1    0    0    0    0  0.00000000000E+00  0.00000000000E+00  0.39999999674E+01  0.40000000000E+01  0.51100000000E-03 0. -1.
    9000002   -1    0    0    0    0 -0.00000000000E+00 -0.00000000000E+00  0.00000000000E+00  0.93800000000E+00  0.93800000000E+00 0. -1.
         11    1    1    2    0    0  0.15408049453E+00  0.69281599092E-01  0.12753478312E+01  0.12864886670E+01  0.51100000000E-03 0. -1.
    9000002    1    1    2    0    0 -0.62051358194E-01  0.18601804550E+00  0.46247562137E-01  0.95939351744E+00  0.93800000000E+00 0. -1.
         22    1    1    2    0    0 -0.92029136335E-01 -0.25529964459E+00  0.26784045740E+01  0.26921178155E+01  0.00000000000E+00 0. -1.
</event>
<event>
 5    1  0.8240609E+001  0.1599617E+01  0.7818608E-02  0.3353779E+00
         11   -1    0    0    0    0  0.00000000000E+00  0.00000000000E+00  0.39999999674E+01  0.40000000000E+01  0.51100000000E-03 0.  1.
    9000002   -1    0    0    0    0 -0.00000000000E+00 -0.00000000000E+00  0.00000000000E+00  0.93800000000E+00  0.93800000000E+00 0.  1.
         11    1    1    2    0    0  0.15946170543E+00  0.10967170867E+00  0.13934153845E+01  0.14067916029E+01  0.51100000000E-03 0.  1.
    9000002    1    1    2    0    0 -0.44172412774E+00 -0.32200221435E+00  0.20631024371E+00  0.11050853124E+01  0.93800000000E+00 0.  1.
         22    1    1    2    0    0  0.28226242231E+00  0.21233050567E+00  0.24002743392E+01  0.24261230847E+01  0.00000000000E+00 0.  1.
</event>
<event>
 5    1  0.8240609E+001  0.1599674E+01  0.7818608E-02  0.3353717E+00
         11   -1    0    0    0    0  0.00000000000E+00  0.00000000000E+00  0.39999999674E+01  0.40000000000E+01  0.51100000000E-03 0. -1.
    9000002   -1    0    0    0    0 -0.00000000000E+00 -0.00000000000E+00  0.00000000000E+00  0.93800000000E+00  0.93800000000E+00 0. -1.
         11    1    1    2    0    0  0.85154728061E-01  0.68202577063E-01  0.66649727824E+00  0.67536790141E+00  0.51100000000E-03 0. -1.
    9000002    1    1    2    0    0 -0.48504473663E+00 -0.38519149245E+00  0.26880579054E+00  0.11557428068E+01  0.93800000000E+00 0. -1.
         22    1    1    2    0    0  0.39989000857E+00  0.31698891539E+00  0.30646968986E+01  0.31068892918E+01  0.00000000000E+00 0. -1.
</event>
<event>
 5    1  0.8240609E+001  0.1585853E+01  0.7818608E-02  0.3368863E+00
         11   -1    0    0    0    0  0.00000000000E+00  0.00000000000E+00  0.39999999674E+01  0.40000000000E+01  0.51100000000E-03 0.  1.
    9000002   -1    0    0    0    0 -0.00000000000E+00 -0.00000000000E+00  0.00000000000E+00  0.93800000000E+00  0.93800000000E+00 0.  1.
         11    1    1    2    0    0 -0.23119420285E+00 -0.14509784268E+00  0.14075512085E+01  0.14337729280E+01  0.51100000000E-03 0.  1.
    9000002    1    1    2    0    0  0.49918157167E+00  0.44795187120E-01  0.18455982929E+00  0.10793957480E+01  0.93800000000E+00 0.  1.
         22    1    1    2    0    0 -0.26798736882E+00  0.10030265556E+00  0.24078889296E+01  0.24248313240E+01  0.00000000000E+00 0.  1.
</event>
<event>
 5    1  0.8240609E+001  0.1585173E+01  0.7818608E-02  0.3369614E+00
         11   -1    0    0    0    0  0.00000000000E+00  0.00000000000E+00  0.39999999674E+01  0.40000000000E+01  0.51100000000E-03 0. -1.
    9000002   -1    0    0    0    0 -0.00000000000E+00 -0.00000000000E+00  0.00000000000E+00  0.93800000000E+00  0.93800000000E+00 0. -1.
         11    1    1    2    0    0 -0.82897492995E-01 -0.41820856544E-01  0.83970343188E+00  0.84482133793E+00  0.51100000000E-03 0. -1.
    9000002    1    1    2    0    0  0.70225432728E+00 -0.21928352160E+00  0.40797567830E+00  0.12599740303E+01  0.93800000000E+00 0. -1.
         22    1    1    2    0    0 -0.61935683428E+00  0.26110437814E+00  0.27523208572E+01  0.28332046317E+01  0.00000000000E+00 0. -1.
</event>
<event>
 5    1  0.8240609E+001  0.1599664E+01  0.7818608E-02  0.3353728E+00
         11   -1    0    0    0    0  0.00000000000E+00  0.00000000000E+00  0.39999999674E+01  0.40000000000E+01  0.51100000000E-03 0.  1.
    9000002   -1    0    0    0    0 -0.00000000000E+00 -0.00000000000E+00  0.00000000000E+00  0.93800000000E+00  0.93800000000E+00 0.  1.
         11    1    1    2    0    0  0.24631554864E-01  0.23394474139E-01  0.32573847746E+00  0.32750546826E+00  0.51100000000E-03 0.  1.
    9000002    1    1    2    0    0 -0.32025858926E+00 -0.28467591917E+00  0.12432933130E+00  0.10387048308E+01  0.93800000000E+00 0.  1.
         22    1    1    2    0    0  0.29562703440E+00  0.26128144503E+00  0.35499321586E+01  0.35717897009E+01  0.00000000000E+00 0.  1.
</event>
<event>
 5    1  0.8240609E+001  0.1599533E+01  0.7818608E-02  0.3353870E+00
         11   -1    0    0    0    0  0.00000000000E+00  0.00000000000E+00  0.39999999674E+01  0.40000000000E+01  0.51100000000E-03 0.  1.
    9000002   -1    0    0    0    0 -0.00000000000E+00 -0.00000000000E+00  0.00000000000E+00  0.93800000000E+00  0.93800000000E+00 0.  1.
         11    1    1    2    0    0  0.32919250085E-02 -0.11969816826E-02  0.10616290086E-01  0.11190901286E-01  0.51100000000E-03 0.  1.
    9000002    1    1    2    0    0 -0.61252332915E+00  0.35171118766E+00  0.35731408252E+00  0.12273560779E+01  0.93800000000E+00 0.  1.
         22    1    1    2    0    0  0.60923140415E+00 -0.35051420598E+00  0.36320695948E+01  0.36994530209E+01  0.00000000000E+00 0.  1.
</event>
<event>
 5    1  0.8240609E+001  0.1461362E+01  0.7818608E-02  0.3519103E+00
         11   -1    0    0    0    0  0.00000000000E+00  0.00000000000E+00  0.39999999674E+01  0.40000000000E+01  0.51100000000E-03 0. -1.
    9000002   -1    0    0    0    0 -0.00000000000E+00 -0.00000000000E+00  0.00000000000E+00  0.93800000000E+00  0.93800000000E+00 0.  1.
         11    1    1    2    0    0 -0.64163496214E-01 -0.12062870227E+00  0.24554585713E-01  0.13882156482E+00  0.51100000000E-03 0. -1.
    9000002    1    1    2    0    0 -0.24285107916E+00 -0.77107901706E-01  0.18284734653E+00  0.98903964900E+00  0.93800000000E+00 0.  1.
         22    1    1    2    0    0  0.30701457537E+00  0.19773660398E+00  0.37925980351E+01  0.38101387862E+01  0.00000000000E+00 0. -1.
</event>
<event>
 5    1  0.8240609E+001  0.1584873E+01  0.7818608E-02  0.3369947E+00
         11   -1    0    0    0    0  0.00000000000E+00  0.00000000000E+00  0.39999999674E+01  0.40000000000E+01  0.51100000000E-03 0.  1.
    9000002   -1    0    0    0    0 -0.00000000000E+00 -0.00000000000E+00  0.00000000000E+00  0.93800000000E+00  0.93800000000E+00 0.  1.
         11    1    1    2    0    0 -0.34529370596E-01  0.23046266599E-01  0.10860915707E+00  0.11627389199E+00  0.51100000000E-03 0.  1.
    9000002    1    1    2    0    0  0.76838637131E-01  0.48807638499E+00  0.18033829601E+00  0.10754016156E+01  0.93800000000E+00 0.  1.
         22    1    1    2    0    0 -0.42309266535E-01 -0.51112265159E+00  0.37110525143E+01  0.37463244924E+01  0.00000000000E+00 0.  1.
</event>
<event>
 5    1  0.8240609E+001  0.1597817E+01  0.7818608E-02  0.3355736E+00
         11   -1    0    0    0    0  0.00000000000E+00  0.00000000000E+00  0.39999999674E+01  0.40000000000E+01  0.51100000000E-03 0. -1.
    9000002   -1    0    0    0    0 -0.00000000000E+00 -0.00000000000E+00  0.00000000000E+00  0.93800000000E+00  0.93800000000E+00 0.  1.
         11    1    1    2    0    0 -0.69223016750E-01  0.72204750001E-01  0.67607721953E+00  0.68343691724E+00  0.51100000000E-03 0. -1.
    9000002    1    1    2    0    0  0.17134630959E+00 -0.39228824379E+00  0.12565103787E+00  0.10386923545E+01  0.93800000000E+00 0.  1.
         22    1    1    2    0    0 -0.10212329284E+00  0.32008349379E+00  0.31982717100E+01  0.32158707282E+01  0.00000000000E+00 0. -1.
</event>
<event>
 5    1  0.8240609E+001  0.1598351E+01  0.7818608E-02  0.3355155E+00
         11   -1    0    0    0    0  0.00000000000E+00  0.00000000000E+00  0.39999999674E+01  0.40000000000E+01  0.51100000000E-03 0.  1.
    9000002   -1    0    0    0    0 -0.00000000000E+00 -0.00000000000E+00  0.00000000000E+00  0.93800000000E+00  0.93800000000E+00 0. -1.
         11    1    1    2    0    0  0.23869391668E-01  0.78261645920E-01  0.13856902710E+01  0.13881038943E+01  0.51100000000E-03 0.  1.
    9000002    1    1    2    0    0 -0.48900129613E-01 -0.33880664640E+00  0.79568775571E-01  0.10016767724E+01  0.93800000000E+00 0. -1.
         22    1    1    2    0    0  0.25030737945E-01  0.26054500048E+00  0.25347409208E+01  0.25482193333E+01  0.00000000000E+00 0.  1.
</event>
<event>
 5    1  0.8240609E+001  0.1597573E+01  0.7818608E-02  0.3356002E+00
         11   -1    0    0    0    0  0.00000000000E+00  0.00000000000E+00  0.39999999674E+01  0.40000000000E+01  0.51100000000E-03 0. -1.
    9000002   -1    0    0    0    0 -0.00000000000E+00 -0.00000000000E+00  0.00000000000E+00  0.93800000000E+00  0.93800000000E+00 0. -1.
         11    1    1    2    0    0 -0.13842974898E+00 -0.10271812619E+00  0.12907496398E+01  0.13022091624E+01  0.51100000000E-03 0. -1.
    9000002    1    1    2    0    0  0.53966217474E+00  0.35106321815E+00  0.29424716726E+00  0.11751195860E+01  0.93800000000E+00 0. -1.
         22    1    1    2    0    0 -0.40123242576E+00 -0.24834509196E+00  0.24150031603E+01  0.24606712516E+01  0.00000000000E+00 0. -1.
</event>
<event>
 5    1  0.8240609E+001  0.1467007E+01  0.7818608E-02  0.3511696E+00
         11   -1    0    0    0    0  0.00000000000E+00  0.00000000000E+00  0.39999999674E+01  0.40000000000E+01  0.51100000000E-03 0.  1.
    9000002   -1    0    0    0    0 -0.00000000000E+00 -0.00000000000E+00  0.00000000000E+00  0.93800000000E+00  0.93800000000E+00 0.  1.
         11    1    1    2    0    0 -0.68161018737E-02  0.53929777205E+00  0.12874904028E+01  0.13958941023E+01  0.51100000000E-03 0.  1.
    9000002    1    1    2    0    0  0.13249605187E+00 -0.19557467205E+00  0.18075147281E+00  0.98403239329E+00  0.93800000000E+00 0.  1.
         22    1    1    2    0    0 -0.12567995000E+00 -0.34372309999E+00  0.25317580917E+01  0.25580735045E+01  0.00000000000E+00 0.  1.
</event>
<event>
 5    1  0.8240609E+001  0.1560740E+01  0.7818608E-02  0.3397109E+00
         11   -1    0    0    0    0  0.00000000000E+00  0.00000000000E+00  0.39999999674E+01  0.40000000000E+01  0.51100000000E-03 0. -1.
    9000002   -1    0    0    0    0 -0.00000000000E+00 -0.00000000000E+00  0.00000000000E+00  0.93800000000E+00  0.93800000000E+00 0. -1.
         11    1    1    2    0    0  0.10919717925E-01  0.21892818820E-01 -0.25325619044E-02  0.24601031406E-01  0.51100000000E-03 0. -1.
    9000002    1    1    2    0    0 -0.17114844216E+00  0.45165575737E+00  0.19466784489E+00  0.10728579972E+01  0.93800000000E+00 0. -1.
         22    1    1    2    0    0  0.16022872424E+00 -0.47354857619E+00  0.38078646844E+01  0.38405409713E+01  0.00000000000E+00 0. -1.
</event>
<event>
 5    1  0.8240609E+001  0.1537978E+01  0.7818608E-02  0.3423559E+00
         11   -1    0    0    0    0  0.00000000000E+00  0.00000000000E+00  0.39999999674E+01  0.40000000000E+01  0.51100000000E-03 0.  1.
    9000002   -1    0    0    0    0 -0.00000000000E+00 -0.00000000000E+00  0.00000000000E+00  0.93800000000E+00  0.93800000000E+00 0.  1.
         11    1    1    2    0    0  0.16916362507E+00  0.88303993539E-01  0.90802481137E+00  0.92785949718E+00  0.51100000000E-03 0.  1.
    9000002    1    1    2    0    0  0.35205598939E+00 -0.25092954853E+00  0.18121586460E+00  0.10486144418E+01  0.93800000000E+00 0.  1.
         22    1    1    2    0    0 -0.52121961446E+00  0.16262555499E+00  0.29107592914E+01  0.29615260610E+01  0.00000000000E+00 0.  1.
</event>
<event>
 5    1  0.8240609E+001  0.1599607E+01  0.7818608E-02  0.3353790E+00
         11   -1    0    0    0    0  0.00000000000E+00  0.00000000000E+00  0.39999999674E+01  0.40000000000E+01  0.51100000000E-03 0. -1.
    9000002   -1    0    0    0    0 -0.00000000000E+00 -0.00000000000E+00  0.00000000000E+00  0.93800000000E+00  0.93800000000E+00 0. -1.
         11    1    1    2    0    0  0.13777467261E-01 -0.45147029048E-01  0.47770725703E+00  0.48003391273E+00  0.51100000000E-03 0. -1.
    9000002    1    1    2    0    0 -0.15960472586E+00  0.39105227125E+00  0.12074747133E+00  0.10357700030E+01  0.93800000000E+00 0. -1.
         22    1    1    2    0    0  0.14582725860E+00 -0.34590524220E+00  0.34015452390E+01  0.34221960842E+01  0.00000000000E+00 0. -1.
</event>
<event>
 5    1  0.8240609E+001  0.1589162E+01  0.7818608E-02  0.3365211E+00
         11   -1    0    0    0    0  0.00000000000E+00  0.00000000000E+00  0.39999999674E+01  0.40000000000E+01  0.51100000000E-03 0. -1.
    9000002   -1    0    0    0    0 -0.00000000000E+00 -0.00000000000E+00  0.00000000000E+00  0.93800000000E+00  0.93800000000E+00 0.  1.
         11    1    1    2    0    0  0.13993598350E+00 -0.55201636590E-01  0.72836437405E+00  0.74373666217E+00  0.51100000000E-03 0. -1.
    9000002    1    1    2    0    0 -0.24037638007E+00  0.41404173940E+00  0.16572218649E+00  0.10660765494E+01  0.93800000000E+00 0.  1.
         22    1    1    2    0    0  0.10044039657E+00 -0.35884010281E+00  0.31059134068E+01  0.31281867884E+01  0.00000000000E+00 0. -1.
</event>
<event>
 5    1  0.8240609E+001  0.1599675E+01  0.7818608E-02  0.3353716E+00
         11   -1    0    0    0    0  0.00000000000E+00  0.00000000000E+00  0.39999999674E+01  0.40000000000E+01  0.51100000000E-03 0.  1.
    9000002   -1    0    0    0    0 -0.00000000000E+00 -0.00000000000E+00  0.00000000000E+00  0.93800000000E+00  0.93800000000E+00 0.  1.
         11    1    1    2    0    0 -0.87712277856E-01 -0.33514181325E-01  0.90734332468E+00  0.91218902318E+00  0.51100000000E-03 0.  1.
    9000002    1    1    2    0    0  0.37158935416E+00  0.14758391110E+00  0.10782775337E+00  0.10253440805E+01  0.93800000000E+00 0.  1.
         22    1    1    2    0    0 -0.28387707630E+00 -0.11406972978E+00  0.29848288893E+01  0.30004668964E+01  0.00000000000E+00 0.  1.
</event>
<event>
 5    1  0.8240609E+001  0.1527462E+01  0.7818608E-02  0.3436063E+00
         11   -1    0    0    0    0  0.00000000000E+00  0.00000000000E+00  0.39999999674E+01  0.40000000000E+01  0.51100000000E-03 0. -1.
    9000002   -1    0    0    0    0 -0.00000000000E+00 -0.00000000000E+00  0.00000000000E+00  0.93800000000E+00  0.93800000000E+00 0. -1.
         11    1    1    2    0    0  0.21602105857E+00 -0.31175491176E-01  0.56805704752E+00  0.60854422958E+00  0.51100000000E-03 0. -1.
    9000002    1    1    2    0    0  0.47754381838E-01 -0.17056793125E+00  0.76519220972E-01  0.95763933260E+00  0.93800000000E+00 0. -1.
         22    1    1    2    0    0 -0.26377544041E+00  0.20174342243E+00  0.33554236989E+01  0.33718164378E+01  0.00000000000E+00 0. -1.
</event>
<event>
 5    1  0.8240609E+001  0.1599584E+01  0.7818608E-02  0.3353815E+00
         11   -1    0    0    0    0  0.00000000000E+00  0.00000000000E+00  0.39999999674E+01  0.40000000000E+01  0.51100000000E-03 0. -1.
    9000002   -1    0    0    0    0 -0.00000000000E+00 -0.00000000000E+00  0.00000000000E+00  0.93800000000E+00  0.93800000000E+00 0.  1.
         11    1    1    2    0    0 -0.44955718829E-01 -0.98719076171E-01  0.10702262482E+01  0.10757095128E+01  0.51100000000E-03 0. -1.
    9000002    1    1    2    0    0  0.17640989706E+00  0.32464685609E+00  0.91814328444E-01  0.10123190722E+01  0.93800000000E+00 0.  1.
         22    1    1    2    0    0 -0.13145417823E+00 -0.22592777992E+00  0.28379593908E+01  0.28499714150E+01  0.00000000000E+00 0.  1.
</event>
<event>
 5    1  0.8240609E+001  0.1599673E+01  0.7818608E-02  0.3353719E+00
         11   -1    0    0    0    0  0.00000000000E+00  0.00000000000E+00  0.39999999674E+01  0.40000000000E+01  0.51100000000E-03 0. -1.
    9000002   -1    0    0    0    0 -0.00000000000E+00 -0.00000000000E+00  0.00000000000E+00  0.93800000000E+00  0.93800000000E+00 0.  1.
         11    1    1    2    0    0  0.14450921204E+00  0.57982525765E-01  0.14784592805E+01  0.14866361327E+01  0.51100000000E-03 0. -1.
    9000002    1    1    2    0    0 -0.38093319959E+00 -0.14607669654E+00  0.11239294529E+00  0.10290406590E+01  0.93800000000E+00 0.  1.
         22    1    1    2    0    0  0.23642398755E+00  0.88094170775E-01  0.24091477415E+01  0.24223232083E+01  0.00000000000E+00 0. -1.
</event>
<event>
 5    1  0.8240609E+001  0.1587245E+01  0.7818608E-02  0.3367324E+00
         11   -1    0    0    0    0  0.00000000000E+00  0.00000000000E+00  0.39999999674E+01  0.40000000000E+01  0.51100000000E-03 0.  1.
    9000002   -1    0    0    0    0 -0.00000000000E+00 -0.00000000000E+00  0.00000000000E+00  0.93800000000E+00  0.93800000000E+00 0.  1.
         11    1    1    2    0    0  0.23636166908E-01  0.16581767248E+00  0.13989349435E+01  0.14089263310E+01  0.51100000000E-03 0.  1.
    9000002    1    1    2    0    0 -0.26935591570E+00 -0.16718690987E+00  0.77042343570E-01  0.99311811727E+00  0.93800000000E+00 0.  1.
         22    1    1    2    0    0  0.24571974880E+00  0.13692373866E-02  0.25240226803E+01  0.25359555517E+01  0.00000000000E+00 0.  1.
</event>
<event>
 5    1  0.8240609E+001  0.1598416E+01  0.7818608E-02  0.3355084E+00
         11   -1    0    0    0    0  0.00000000000E+00  0.00000000000E+00  0.39999999674E+01  0.40000000000E+01  0.51100000000E-03 0.  1.
    9000002   -1    0    0    0    0 -0.00000000000E+00 -0.00000000000E+00  0.00000000000E+00  0.93800000000E+00  0.93800000000E+00 0.  1.
         11    1    1    2    0    0 -0.66136801913E-01 -0.43191453549E-02  0.45196484275E+00  0.45679887454E+00  0.51100000000E-03 0.  1.
    9000002    1    1    2    0    0  0.37138594734E+00  0.16705666013E+00  0.11301916142E+00  0.10288113435E+01  0.93800000000E+00 0.  1.
         22    1    1    2    0    0 -0.30524914543E+00 -0.16273751478E+00  0.34350159632E+01  0.34523897820E+01  0.00000000000E+00 0.  1.
</event>
<event>
 5    1  0.8240609E+001  0.1472306E+01  0.7818608E-02  0.3504797E+00
         11   -1    0    0    0    0  0.00000000000E+00  0.00000000000E+00  0.39999999674E+01  0.40000000000E+01  0.51100000000E-03 0. -1.
    9000002   -1    0    0    0    0 -0.00000000000E+00 -0.00000000000E+00  0.00000000000E+00  0.93800000000E+00  0.93800000000E+00 0.  1.
         11    1    1    2    0    0 -0.51860994669E+00 -0.12908598289E+00  0.50389244112E+00  0.73452523519E+00  0.51100000000E-03 0. -1.
    9000002    1    1    2    0    0  0.77890356453E+00  0.12944876421E+00  0.73373594602E+00  0.14288667481E+01  0.93800000000E+00 0.  1.
         22    1    1    2    0    0 -0.26029361783E+00 -0.36278131710E-03  0.27623715802E+01  0.27746080167E+01  0.00000000000E+00 0. -1.
</event>
<event>
 5    1  0.8240609E+001  0.1599673E+01  0.7818608E-02  0.3353718E+00
         11   -1    0    0    0    0  0.00000000000E+00  0.00000000000E+00  0.39999999674E+01  0.40000000000E+01  0.51100000000E-03 0. -1.
    9000002   -1    0    0    0    0 -0.00000000000E+00 -0.00000000000E+00  0.00000000000E+00  0.93800000000E+00  0.93800000000E+00 0. -1.
         11    1    1    2    0    0 -0.97875697488E-01  0.13914653531E-01  0.81599853132E+00  0.82196540923E+00  0.51100000000E-03 0. -1.
    9000002    1    1    2    0    0  0.45951171293E+00 -0.57334475119E-01  0.14593236374E+00  0.10562095015E+01  0.93800000000E+00 0. -1.
         22    1    1    2    0    0 -0.36163601544E+00  0.43419821588E-01  0.30380690723E+01  0.30598250892E+01  0.00000000000E+00 0. -1.
</event>
<event>
 5    1  0.8240609E+001  0.1490083E+01  0.7818608E-02  0.3482044E+00
         11   -1    0    0    0    0  0.00000000000E+00  0.00000000000E+00  0.39999999674E+01  0.40000000000E+01  0.51100000000E-03 0.  1.
    9000002   -1    0    0    0    0 -0.00000000000E+00 -0.00000000000E+00  0.00000000000E+00  0.93800000000E+00  0.93800000000E+00 0. -1.
         11    1    1    2    0    0 -0.34070439722E+00  0.18032941243E+00  0.52793340198E+00  0.65369115133E+00  0.51100000000E-03 0.  1.
    9000002    1    1    2    0    0  0.79280873306E+00  0.24111064897E+00  0.67950416656E+00  0.14241664034E+01  0.93800000000E+00 0. -1.
         22    1    1    2    0    0 -0.45210433583E+00 -0.42144006140E+00  0.27925623988E+01  0.28601424453E+01  0.00000000000E+00 0.  1.
</event>
<event>
 5    1  0.8240609E+001  0.1599623E+01  0.7818608E-02  0.3353772E+00
         11   -1    0    0    0    0  0.00000000000E+00  0.00000000000E+00  0.39999999674E+01  0.40000000000E+01  0.51100000000E-03 0.  1.
    9000002   -1    0    0    0    0 -0.00000000000E+00 -0.00000000000E+00  0.00000000000E+00  0.93800000000E+00  0.93800000000E+00 0. -1.
         11    1    1    2    0    0 -0.42940754328E-01  0.67571117272E-01  0.75638881906E+00  0.76061427215E+00  0.51100000000E-03 0.  1.
    9000002    1    1    2    0    0  0.18640631609E+00 -0.33964269432E+00  0.10113251604E+00  0.10198903178E+01  0.93800000000E+00 0. -1.
         22    1    1    2    0    0 -0.14346556176E+00  0.27207157705E+00  0.31424786323E+01  0.31574954101E+01  0.00000000000E+00 0.  1.
</event>
<event>
 5    1  0.8240609E+001  0.1598258E+01  0.7818608E-02  0.3355256E+00
         11   -1    0    0    0    0  0.00000000000E+00  0.00000000000E+00  0.39999999674E+01  0.40000000000E+01  0.51100000000E-03 0. -1.
    9000002   -1    0    0    0    0 -0.00000000000E+00 -0.00000000000E+00  0.00000000000E+00  0.93800000000E+00  0.93800000000E+00 0.  1.
         11    1    1    2    0    0 -0.10187403188E+00 -0.20147755498E+00  0.13386432977E+01  0.13575484018E+01  0.51100000000E-03 0. -1.
    9000002    1    1    2    0    0  0.16663637666E+00  0.59181915904E+00  0.26602902158E+00  0.11526634545E+01  0.93800000000E+00 0.  1.
         22    1    1    2    0    0 -0.64762344786E-01 -0.39034160407E+00  0.23953276480E+01  0.24277881437E+01  0.00000000000E+00 0. -1.
</event>
<event>
 5    1  0.8240609E+001  0.1598323E+01  0.7818608E-02  0.3355186E+00
         11   -1    0    0    0    0  0.00000000000E+00  0.00000000000E+00  0.39999999674E+01  0.40000000000E+01  0.51100000000E-03 0. -1.
    9000002   -1    0    0    0    0 -0.00000000000E+00 -0.00000000000E+00  0.00000000000E+00  0.93800000000E+00  0.93800000000E+00 0. -1.
         11    1    1    2    0    0  0.23532704319E-01 -0.93193951778E-01  0.11655299747E+01  0.11694867609E+01  0.51100000000E-03 0. -1.
    9000002    1    1    2    0    0 -0.20738700168E+00  0.26758061009E+00  0.77834726100E-01  0.10002554653E+01  0.93800000000E+00 0. -1.
         22    1    1    2    0    0  0.18385429736E+00 -0.17438665832E+00  0.27566352666E+01  0.27682577738E+01  0.00000000000E+00 0. -1.
</event>
<event>
 5    1  0.8240609E+001  0.1599670E+01  0.7818608E-02  0.3353722E+00
         11   -1    0    0    0    0  0.00000000000E+00  0.00000000000E+00  0.39999999674E+01  0.40000000000E+01  0.51100000000E-03 0.  1.
    9000002   -1    0    0    0    0 -0.00000000000E+00 -0.00000000000E+00  0.00000000000E+00  0.93800000000E+00  0.93800000000E+00 0. -1.
         11    1    1    2    0    0 -0.10544500275E+00  0.84447087930E-01  0.13947199894E+01  0.14012473262E+01  0.51100000000E-03 0.  1.
    9000002    1    1    2    0    0  0.30333986428E+00 -0.23501656408E+00  0.99124943630E-01  0.10182915168E+01  0.93800000000E+00 0. -1.
         22    1    1    2    0    0 -0.19789486152E+00  0.15056947615E+00  0.25061550343E+01  0.25184611570E+01  0.00000000000E+00 0.  1.
</event>
<event>
 5    1  0.8240609E+001  0.1591526E+01  0.7818608E-02  0.3362612E+00
         11   -1    0    0    0    0  0.00000000000E+00  0.00000000000E+00  0.39999999674E+01  0.40000000000E+01  0.51100000000E-03 0. -1.
    9000002   -1    0    0    0    0 -0.00000000000E+00 -0.00000000000E+00  0.00000000000E+00  0.93800000000E+00  0.93800000000E+00 0. -1.
         11    1    1    2    0    0 -0.17617575973E-01  0.42798490813E-02  0.34236037198E-01  0.38743560179E-01  0.51100000000E-03 0. -1.
    9000002    1    1    2    0    0 -0.32524250904E+00 -0.14083196039E+00  0.90878737374E-01  0.10068362705E+01  0.93800000000E+00 0. -1.
         22    1    1    2    0    0  0.34286008501E+00  0.13655211130E+00  0.38748851928E+01  0.38924201693E+01  0.00000000000E+00 0. -1.
</event>
<event>
 5    1  0.8240609E+001  0.1599640E+01  0.7818608E-02  0.3353755E+00
         11   -1    0    0    0    0  0.00000000000E+00  0.00000000000E+00  0.39999999674E+01  0.40000000000E+01  0.51100000000E-03 0. -1.
    9000002   -1    0    0    0    0 -0.00000000000E+00 -0.00000000000E+00  0.00000000000E+00  0.93800000000E+00  0.93800000000E+00 0. -1.
         11    1    1    2    0    0  0.10697519670E-01 -0.15550789389E-01  0.19825706737E+00  0.19915418615E+00  0.51100000000E-03 0. -1.
    9000002    1    1    2    0    0 -0.26408898900E+00  0.27287461509E+00  0.97053626406E-01  0.10165957683E+01  0.93800000000E+00 0. -1.
         22    1    1    2    0    0  0.25339146933E+00 -0.25732382570E+00  0.37046892736E+01  0.37222500456E+01  0.00000000000E+00 0. -1.
</event>
<event>
 5    1  0.8240609E+001  0.1596284E+01  0.7818608E-02  0.3357406E+00
         11   -1    0    0    0    0  0.00000000000E+00  0.00000000000E+00  0.39999999674E+01  0.40000000000E+01  0.51100000000E-03 0.  1.
    9000002   -1    0    0    0    0 -0.00000000000E+00 -0.00000000000E+00  0.00000000000E+00  0.93800000000E+00  0.93800000000E+00 0.  1.
         11    1    1    2    0    0 -0.46887888460E-01  0.30274405125E-01  0.50525229928E+00  0.50832584111E+00  0.51100000000E-03 0.  1.
    9000002    1    1    2    0    0  0.82567989486E-01 -0.46432596526E+00  0.15454599951E+00  0.10611995764E+01  0.93800000000E+00 0.  1.
         22    1    1    2    0    0 -0.35680101026E-01  0.43405156013E+00  0.33402016686E+01  0.33684745825E+01  0.00000000000E+00 0.  1.
</event>
<event>
 5    1  0.8240609E+001  0.1599676E+01  0.7818608E-02  0.3353715E+00
         11   -1    0    0    0    0  0.00000000000E+00  0.00000000000E+00  0.39999999674E+01  0.40000000000E+01  0.51100000000E-03 0. -1.
    9000002   -1    0    0    0    0 -0.00000000000E+00 -0.00000000000E+00  0.00000000000E+00  0.93800000000E+00  0.93800000000E+00 0. -1.
         11    1    1    2    0    0 -0.27058512284E-01 -0.55264498972E-01  0.53206964747E+00  0.53561618610E+00  0.51100000000E-03 0. -1.
    9000002    1    1    2    0    0  0.19397628252E+00  0.40368241707E+00  0.13619280936E+00  0.10483218844E+01  0.93800000000E+00 0. -1.
         22    1    1    2    0    0 -0.16691777024E+00 -0.34841791810E+00  0.33317375105E+01  0.33540619295E+01  0.00000000000E+00 0. -1.
</event>
<event>
 5    1  0.8240609E+001  0.1585903E+01  0.7818608E-02  0.3368807E+00
         11   -1    0    0    0    0  0.00000000000E+00  0.00000000000E+00  0.39999999674E+01  0.40000000000E+01  0.51100000000E-03 0. -1.
    9000002   -1    0    0    0    0 -0.00000000000E+00 -0.00000000000E+00  0.00000000000E+00  0.93800000000E+00  0.93800000000E+00 0. -1.
         11    1    1    2    0    0 -0.62380725639E-01 -0.19099447968E+00  0.67430298925E+00  0.70360147003E+00  0.51100000000E-03 0. -1.
    9000002    1    1    2    0    0 -0.13426633040E-01  0.56888050653E+00  0.23785596889E+00  0.11225973308E+01  0.93800000000E+00 0. -1.
         22    1    1    2    0    0  0.75807358679E-01 -0.37788602686E+00  0.30878410092E+01  0.31118011992E+01  0.00000000000E+00 0. -1.
</event>
<event>
 5    1  0.8240609E+001  0.1596034E+01  0.7818608E-02  0.3357679E+00
         11   -1    0    0    0    0  0.00000000000E+00  0.00000000000E+00  0.39999999674E+01  0.40000000000E+01  0.51100000000E-03 0.  1.
    9000002   -1    0    0    0    0 -0.00000000000E+00 -0.00000000000E+00  0.00000000000E+00  0.93800000000E+00  0.93800000000E+00 0.  1.
         11    1    1    2    0    0  0.11099051881E+00 -0.30756166591E+00  0.12370511947E+01  0.12795346784E+01  0.51100000000E-03 0.  1.
    9000002    1    1    2    0    0 -0.11726424605E+00  0.83404294845E+00  0.53555403014E+00  0.13696863373E+01  0.93800000000E+00 0.  1.
         22    1    1    2    0    0  0.62737272461E-02 -0.52648128254E+00  0.22273947425E+01  0.22887789844E+01  0.00000000000E+00 0.  1.
</event>
<event>
 5    1  0.8240609E+001  0.1597446E+01  0.7818608E-02  0.3356140E+00
         11   -1    0    0    0    0  0.00000000000E+00  0.00000000000E+00  0.39999999674E+01  0.40000000000E+01  0.51100000000E-03 0. -1.
    9000002   -1    0    0    0    0 -0.00000000000E+00 -0.00000000000E+00  0.00000000000E+00  0.93800000000E+00  0.93800000000E+00 0. -1.
         11    1    1    2    0    0  0.15521516660E+00  0.14096198407E+00  0.71777681432E+00  0.74777392653E+00  0.51100000000E-03 0. -1.
    9000002    1    1    2    0    0 -0.68701117871E+00 -0.80952300107E+00  0.94817404003E+00  0.17047550731E+01  0.93800000000E+00 0. -1.
         22    1    1    2    0    0  0.53179601210E+00  0.66856101701E+00  0.23340491130E+01  0.24854710004E+01  0.00000000000E+00 0. -1.
</event>
<event>
 5    1  0.8240609E+001  0.1586084E+01  0.7818608E-02  0.3368608E+00
         11   -1    0    0    0    0  0.00000000000E+00  0.00000000000E+00  0.39999999674E+01  0.40000000000E+01  0.51100000000E-03 0.  1.
    9000002   -1    0    0    0    0 -0.00000000000E+00 -0.00000000000E+00  0.00000000000E+00  0.93800000000E+00  0.93800000000E+00 0. -1.
         11    1    1    2    0    0  0.30485645672E+00  0.25793449496E+00  0.13679834775E+01  0.14250777939E+01  0.51100000000E-03 0.  1.
    9000002    1    1    2    0    0 -0.58162387915E+00 -0.39505711633E+00  0.36906276934E+00  0.12289864888E+01  0.93800000000E+00 0. -1.
         22    1    1    2    0    0  0.27676742243E+00  0.13712262137E+00  0.22629537205E+01  0.22839357173E+01  0.00000000000E+00 0.  1.
</event>
<event>
 5    1  0.8240609E+001  0.1599676E+01  0.7818608E-02  0.3353715E+00
         11   -1    0    0    0    0  0.00000000000E+00  0.00000000000E+00  0.39999999674E+01  0.40000000000E+01  0.51100000000E-03 0.  1.
    9000002   -1    0    0    0    0 -0.00000000000E+00 -0.00000000000E+00  0.00000000000E+00  0.93800000000E+00  0.93800000000E+00 0.  1.
         11    1    1    2    0    0  0.52528956405E-01  0.30278770408E-01  0.63749926914E+00  0.64037619761E+00  0.51100000000E-03 0.  1.
    9000002    1    1    2    0    0 -0.32577644948E+00 -0.18467787184E+00  0.94294661546E-01  0.10143824203E+01  0.93800000000E+00 0.  1.
         22    1    1    2    0    0  0.27324749307E+00  0.15439910143E+00  0.32682060367E+01  0.32832413821E+01  0.00000000000E+00 0.  1.
</event>
<event>
 5    1  0.8240609E+001  0.1596784E+01  0.7818608E-02  0.3356862E+00
         11   -1    0    0    0    0  0.00000000000E+00  0.00000000000E+00  0.39999999674E+01  0.40000000000E+01  0.51100000000E-03 0. -1.
    9000002   -1    0    0    0    0 -0.00000000000E+00 -0.00000000000E+00  0.00000000000E+00  0.93800000000E+00  0.93800000000E+00 0. -1.
         11    1    1    2    0    0  0.16236488213E+00 -0.14324947018E-01  0.14492676049E+01  0.14584047486E+01  0.51100000000E-03 0. -1.
    9000002    1    1    2    0    0 -0.38087872655E+00  0.19706095865E+00  0.12698699096E+00  0.10391685723E+01  0.93800000000E+00 0. -1.
         22    1    1    2    0    0  0.21851384443E+00 -0.18273601163E+00  0.24237453715E+01  0.24404266791E+01  0.00000000000E+00 0. -1.
</event>
<event>
 5    1  0.8240609E+001  0.1599641E+01  0.7818608E-02  0.3353753E+00
         11   -1    0    0    0    0  0.00000000000E+00  0.00000000000E+00  0.39999999674E+01  0.40000000000E+01  0.51100000000E-03 0. -1.
    9000002   -1    0    0    0    0 -0.00000000000E+00 -0.00000000000E+00  0.00000000000E+00  0.93800000000E+00  0.93800000000E+00 0.  1.
         11    1    1    2    0    0 -0.76901950490E-02  0.12977820635E+00  0.13553339118E+01  0.13615549183E+01  0.51100000000E-03 0. -1.
    9000002    1    1    2    0    0  0.21072370623E-01 -0.39292069015E+00  0.10437995309E+00  0.10225311184E+01  0.93800000000E+00 0.  1.
         22    1    1    2    0    0 -0.13382175574E-01  0.26314248380E+00  0.25402861025E+01  0.25539139633E+01  0.00000000000E+00 0. -1.
</event>
<event>
 5    1  0.8240609E+001  0.1599667E+01  0.7818608E-02  0.3353725E+00
         11   -1    0    0    0    0  0.00000000000E+00  0.00000000000E+00  0.39999999674E+01  0.40000000000E+01  0.51100000000E-03 0.  1.
    9000002   -1    0    0    0    0 -0.00000000000E+00 -0.00000000000E+00  0.00000000000E+00  0.93800000000E+00  0.93800000000E+00 0.  1.
         11    1    1    2    0    0  0.15891839294E+00 -0.15903056076E-01  0.10497917655E+01  0.10618714493E+01  0.51100000000E-03 0.  1.
    9000002    1    1    2    0    0 -0.56008344242E+00  0.57420108053E-01  0.21950533833E+00  0.11158033540E+01  0.93800000000E+00 0.  1.
         22    1    1    2    0    0  0.40116504948E+00 -0.41517051977E-01  0.27307028636E+01  0.27603251967E+01  0.00000000000E+00 0.  1.
</event>
<event>
 5    1  0.8240609E+001  0.1502673E+01  0.7818608E-02  0.3466283E+00
         11   -1    0    0    0    0  0.00000000000E+00  0.00000000000E+00  0.39999999674E+01  0.40000000000E+01  0.51100000000E-03 0.  1.
    9000002   -1    0    0    0    0 -0.00000000000E+00 -0.00000000000E+00  0.00000000000E+00  0.93800000000E+00  0.93800000000E+00 0. -1.
         11    1    1    2    0    0  0.15850252305E+00 -0.16022403802E+00  0.90400883605E+00  0.93167968151E+00  0.51100000000E-03 0.  1.
    9000002    1    1    2    0    0  0.74163106769E-01 -0.44564659692E+00  0.22798309393E+00  0.10657961094E+01  0.93800000000E+00 0. -1.
         22    1    1    2    0    0 -0.23266562982E+00  0.60587063494E+00  0.28680080374E+01  0.29405242091E+01  0.00000000000E+00 0.  1.
</event>
<event>
 5    1  0.8240609E+001  0.1599378E+01  0.7818608E-02  0.3354038E+00
         11   -1    0    0    0    0  0.00000000000E+00  0.00000000000E+00  0.39999999674E+01  0.40000000000E+01  0.51100000000E-03 0. -1.
    9000002   -1    0    0    0    0 -0.00000000000E+00 -0.00000000000E+00  0.00000000000E+00  0.93800000000E+00  0.93800000000E+00 0. -1.
         11    1    1    2    0    0 -0.58432687421E-01 -0.11928319076E+00  0.11314329109E+01  0.11392030335E+01  0.51100000000E-03 0. -1.
    9000002    1    1    2    0    0  0.18692834674E+00  0.34689101382E+00  0.10490465533E+00  0.10228023118E+01  0.93800000000E+00 0. -1.
         22    1    1    2    0    0 -0.12849565932E+00 -0.22760782306E+00  0.27636624011E+01  0.27759946547E+01  0.00000000000E+00 0. -1.
</event>
<event>
 5    1  0.8240609E+001  0.1599192E+01  0.7818608E-02  0.3354241E+00
         11   -1    0    0    0    0  0.00000000000E+00  0.00000000000E+00  0.39999999674E+01  0.40000000000E+01  0.51100000000E-03 0. -1.
    9000002   -1    0    0    0    0 -0.00000000000E+00 -0.00000000000E+00  0.00000000000E+00  0.93800000000E+00  0.93800000000E+00 0. -1.
         11    1    1    2    0    0 -0.19547671311E-01  0.74690781469E-01  0.95483442794E+00  0.95795087045E+00  0.51100000000E-03 0. -1.
    9000002    1    1    2    0    0  0.16370794849E+00 -0.34601720848E+00  0.99022151247E-01  0.10179280856E+01  0.93800000000E+00 0. -1.
         22    1    1    2    0    0 -0.14416027718E+00  0.27132642701E+00  0.29461433882E+01  0.29621210440E+01  0.00000000000E+00 0. -1.
</event>
<event>
 5    1  0.8240609E+001  0.1599564E+01  0.7818608E-02  0.3353837E+00
         11   -1    0    0    0    0  0.00000000000E+00  0.00000000000E+00  0.39999999674E+01  0.40000000000E+01  0.51100000000E-03 0. -1.
    9000002   -1    0    0    0    0 -0.00000000000E+00 -0.00000000000E+00  0.00000000000E+00  0.93800000000E+00  0.93800000000E+00 0.  1.
         11    1    1    2    0    0 -0.45844957160E-01 -0.58740499237E-01  0.96677676120E+00  0.96964414785E+00  0.51100000000E-03 0. -1.
    9000002    1    1    2    0    0  0.20003360925E+00  0.28073173724E+00  0.79717083976E-01  0.10025081379E+01  0.93800000000E+00 0.  1.
         22    1    1    2    0    0 -0.15418865209E+00 -0.22199123801E+00  0.29535061222E+01  0.29658477142E+01  0.00000000000E+00 0. -1.
</event>
<event>
 5    1  0.8240609E+001  0.1599586E+01  0.7818608E-02  0.3353813E+00
         11   -1    0    0    0    0  0.00000000000E+00  0.00000000000E+00  0.39999999674E+01  0.40000000000E+01  0.51100000000E-03 0. -1.
    9000002   -1    0    0    0    0 -0.00000000000E+00 -0.00000000000E+00  0.00000000000E+00  0.93800000000E+00  0.93800000000E+00 0. -1.
         11    1    1    2    0    0 -0.99583305235E-01 -0.62519924366E-02  0.10855862331E+01  0.10901622139E+01  0.51100000000E-03 0. -1.
    9000002    1    1    2    0    0  0.36935572827E+00  0.57800116439E-01  0.94044152244E-01  0.10141266243E+01  0.93800000000E+00 0. -1.
         22    1    1    2    0    0 -0.26977242304E+00 -0.51548124002E-01  0.28203695821E+01  0.28337111618E+01  0.00000000000E+00 0. -1.
</event>
<event>
 5    1  0.8240609E+001  0.1599396E+01  0.7818608E-02  0.3354019E+00
         11   -1    0    0    0    0  0.00000000000E+00  0.00000000000E+00  0.39999999674E+01  0.40000000000E+01  0.51100000000E-03 0.  1.
    9000002   -1    0    0    0    0 -0.00000000000E+00 -0.00000000000E+00  0.00000000000E+00  0.93800000000E+00  0.93800000000E+00 0. -1.
         11    1    1    2    0    0  0.17582572964E-01  0.16981296170E+00  0.11902777801E+01  0.12024587493E+01  0.51100000000E-03 0.  1.
    9000002    1    1    2    0    0 -0.45162694766E-02 -0.56905076065E+00  0.22477661557E+00  0.11199141448E+01  0.93800000000E+00 0. -1.
         22    1    1    2    0    0 -0.13066303488E-01  0.39923779894E+00  0.25849455717E+01  0.26156271059E+01  0.00000000000E+00 0.  1.
</event>
<event>
 5    1  0.8240609E+001  0.1599675E+01  0.7818608E-02  0.3353717E+00
         11   -1    0    0    0    0  0.00000000000E+00  0.00000000000E+00  0.39999999674E+01  0.40000000000E+01  0.51100000000E-03 0.  1.
    9000002   -1    0    0    0    0 -0.00000000000E+00 -0.00000000000E+00  0.00000000000E+00  0.93800000000E+00  0.93800000000E+00 0.  1.
         11    1    1    2    0    0 -0.29529472175E+00 -0.39207018399E-01  0.14249969912E+01  0.14557997283E+01  0.51100000000E-03 0.  1.
    9000002    1    1    2    0    0  0.74452682091E+00  0.10331753512E+00  0.40979150019E+00  0.12699479414E+01  0.93800000000E+00 0.  1.
         22    1    1    2    0    0 -0.44923209916E+00 -0.64110516724E-01  0.21652114760E+01  0.22122523303E+01  0.00000000000E+00 0.  1.
</event>
<event>
 5    1  0.9706365E+001  0.1599677E+01  0.7818608E-02  0.3353714E+00
         11   -1    0    0    0    0  0.00000000000E+00  0.00000000000E+00  0.39999999674E+01  0.40000000000E+01  0.51100000000E-03 0. -1.
    9000002   -1    0    0    0    0 -0.00000000000E+00 -0.00000000000E+00  0.00000000000E+00  0.93800000000E+00  0.93800000000E+00 0. -1.
         11    1    1    2    0    0  0.28541014844E-01 -0.14720166138E+00  0.14759422206E+01  0.14835392204E+01  0.51100000000E-03 0.  1.
    9000002    1    1    2    0    0 -0.75655788945E-01  0.38863809319E+00  0.10568518638E+00  0.10236096544E+01  0.93800000000E+00 0. -1.
         22    1    1    2    0    0  0.47114774101E-01 -0.24143643181E+00  0.24183725603E+01  0.24308511252E+01  0.00000000000E+00 0. -1.
</event>
<event>
 5    1  0.8240609E+001  0.1564924E+01  0.7818608E-02  0.3392336E+00
         11   -1    0    0    0    0  0.00000000000E+00  0.00000000000E+00  0.39999999674E+01  0.40000000000E+01  0.51100000000E-03 0. -1.
    9000002   -1    0    0    0    0 -0.00000000000E+00 -0.00000000000E+00  0.00000000000E+00  0.93800000000E+00  0.93800000000E+00 0. -1.
         11    1    1    2    0    0 -0.69024898861E-01  0.17597472016E+00  0.30528358457E+00  0.35906805334E+00  0.51100000000E-03 0. -1.
    9000002    1    1    2    0    0  0.23702256158E+00 -0.62875027807E+00  0.35894645963E+00  0.12083845281E+01  0.93800000000E+00 0. -1.
         22    1    1    2    0    0 -0.16799766272E+00  0.45277555791E+00  0.33357699232E+01  0.33705474186E+01  0.00000000000E+00 0. -1.
</event>
<event>
 5    1  0.8240609E+001  0.1599676E+01  0.7818608E-02  0.3353715E+00
         11   -1    0    0    0    0  0.00000000000E+00  0.00000000000E+00  0.39999999674E+01  0.40000000000E+01  0.51100000000E-03 0.  1.
    9000002   -1    0    0    0    0 -0.00000000000E+00 -0.00000000000E+00  0.00000000000E+00  0.93800000000E+00  0.93800000000E+00 0. -1.
         11    1    1    2    0    0 -0.86364929278E-01 -0.16703333147E-01  0.87637541982E+00  0.88077922315E+00  0.51100000000E-03 0. -1.
    9000002    1    1    2    0    0  0.38115840611E+00  0.73435846181E-01  0.10148186602E+00  0.10202044517E+01  0.93800000000E+00 0. -1.
         22    1    1    2    0    0 -0.29479347684E+00 -0.56732513034E-01  0.30221426815E+01  0.30370163252E+01  0.00000000000E+00 0.  1.
</event>
<event>
 5    1  0.8240609E+001  0.1560861E+01  0.7818608E-02  0.3396971E+00
         11   -1    0    0    0    0  0.00000000000E+00  0.00000000000E+00  0.39999999674E+01  0.40000000000E+01  0.51100000000E-03 0. -1.
    9000002   -1    0    0    0    0 -0.00000000000E+00 -0.00000000000E+00  0.00000000000E+00  0.93800000000E+00  0.93800000000E+00 0. -1.
         11    1    1    2    0    0  0.19356799489E+00 -0.29310454097E-02  0.10651076399E+01  0.10825579455E+01  0.51100000000E-03 0. -1.
    9000002    1    1    2    0    0  0.23674171540E-01  0.25809835880E+00  0.75057491369E-01  0.97603937227E+00  0.93800000000E+00 0. -1.
         22    1    1    2    0    0 -0.21724216643E+00 -0.25516731339E+00  0.28598348361E+01  0.28794026822E+01  0.00000000000E+00 0. -1.
</event>
<event>
 5    1  0.8240609E+001  0.1599040E+01  0.7818608E-02  0.3354406E+00
         11   -1    0    0    0    0  0.00000000000E+00  0.00000000000E+00  0.39999999674E+01  0.40000000000E+01  0.51100000000E-03 0. -1.
    9000002   -1    0    0    0    0 -0.00000000000E+00 -0.00000000000E+00  0.00000000000E+00  0.93800000000E+00  0.93800000000E+00 0. -1.
         11    1    1    2    0    0  0.31246348837E-01 -0.36825346933E-01  0.33836494430E+00  0.34179458326E+00  0.51100000000E-03 0. -1.
    9000002    1    1    2    0    0 -0.16920706786E+00  0.36880436861E+00  0.11167354182E+00  0.10280869001E+01  0.93800000000E+00 0. -1.
         22    1    1    2    0    0  0.13796071902E+00 -0.33197902168E+00  0.35499614812E+01  0.35681185167E+01  0.00000000000E+00 0. -1.
</event>
<event>
 5    1  0.8240609E+001  0.1599586E+01  0.7818608E-02  0.3353813E+00
         11   -1    0    0    0    0  0.00000000000E+00  0.00000000000E+00  0.39999999674E+01  0.40000000000E+01  0.51100000000E-03 0.  1.
    9000002   -1    0    0    0    0 -0.00000000000E+00 -0.00000000000E+00  0.00000000000E+00  0.93800000000E+00  0.93800000000E+00 0.  1.
         11    1    1    2    0    0 -0.16111928862E+00 -0.74780734567E-01  0.13744759454E+01  0.13859061906E+01  0.51100000000E-03 0.  1.
    9000002    1    1    2    0    0  0.42087193405E+00  0.21654341863E+00  0.15277455665E+00  0.10617006651E+01  0.93800000000E+00 0.  1.
         22    1    1    2    0    0 -0.25975264543E+00 -0.14176268406E+00  0.24727494653E+01  0.24903931444E+01  0.00000000000E+00 0.  1.
</event>
<event>
 5    1  0.8240609E+001  0.1599676E+01  0.7818608E-02  0.3353715E+00
         11   -1    0    0    0    0  0.00000000000E+00  0.00000000000E+00  0.39999999674E+01  0.40000000000E+01  0.51100000000E-03 0.  1.
    9000002   -1    0    0    0    0 -0.00000000000E+00 -0.00000000000E+00  0.00000000000E+00  0.93800000000E+00  0.93800000000E+00 0.  1.
         11    1    1    2    0    0  0.96389072382E-02 -0.56006993155E-01  0.48546808066E+00  0.48878339812E+00  0.51100000000E-03 0. -1.
    9000002    1    1    2    0    0 -0.82140249932E-01  0.44369614472E+00  0.13831708742E+00  0.10500423354E+01  0.93800000000E+00 0.  1.
         22    1    1    2    0    0  0.72501342694E-01 -0.38768915157E+00  0.33762147993E+01  0.33991742665E+01  0.00000000000E+00 0.  1.
</event>
<event>
 5    1  0.8240609E+001  0.1599609E+01  0.7818608E-02  0.3353788E+00
         11   -1    0    0    0    0  0.00000000000E+00  0.00000000000E+00  0.39999999674E+01  0.40000000000E+01  0.51100000000E-03 0. -1.
    9000002   -1    0    0    0    0 -0.00000000000E+00 -0.00000000000E+00  0.00000000000E+00  0.93800000000E+00  0.93800000000E+00 0.  1.
         11    1    1    2    0    0 -0.11036578909E+00  0.15027541995E-01  0.12968291497E+01  0.13016038333E+01  0.51100000000E-03 0. -1.
    9000002    1    1    2    0    0  0.36113399912E+00 -0.45811779023E-01  0.89049630305E-01  0.10100942140E+01  0.93800000000E+00 0.  1.
         22    1    1    2    0    0 -0.25076821002E+00  0.30784237028E-01  0.26141211874E+01  0.26263019527E+01  0.00000000000E+00 0. -1.
</event>
<event>
 5    1  0.8240609E+001  0.1599416E+01  0.7818608E-02  0.3353998E+00
         11   -1    0    0    0    0  0.00000000000E+00  0.00000000000E+00  0.39999999674E+01  0.40000000000E+01  0.51100000000E-03 0.  1.
    9000002   -1    0    0    0    0 -0.00000000000E+00 -0.00000000000E+00  0.00000000000E+00  0.93800000000E+00  0.93800000000E+00 0.  1.
         11    1    1    2    0    0  0.92820009150E-01  0.71263776791E-01  0.97943080621E+00  0.98639700185E+00  0.51100000000E-03 0.  1.
    9000002    1    1    2    0    0 -0.33255468912E+00 -0.33828791204E+00  0.15363666823E+00  0.10622991850E+01  0.93800000000E+00 0.  1.
         22    1    1    2    0    0  0.23973467997E+00  0.26702413525E+00  0.28669324929E+01  0.28893038131E+01  0.00000000000E+00 0.  1.
</event>
<event>
 5    1  0.8240609E+001  0.1598215E+01  0.7818608E-02  0.3355303E+00
         11   -1    0    0    0    0  0.00000000000E+00  0.00000000000E+00  0.39999999674E+01  0.40000000000E+01  0.51100000000E-03 0.  1.
    9000002   -1    0    0    0    0 -0.00000000000E+00 -0.00000000000E+00  0.00000000000E+00  0.93800000000E+00  0.93800000000E+00 0. -1.
         11    1    1    2    0    0  0.18162137712E+00 -0.47668331404E-01  0.13145407170E+01  0.13278840883E+01  0.51100000000E-03 0.  1.
    9000002    1    1    2    0    0 -0.42237988792E+00  0.77532387648E-01  0.12612743242E+00  0.10393113923E+01  0.93800000000E+00 0. -1.
         22    1    1    2    0    0  0.24075851081E+00 -0.29864056244E-01  0.25593318180E+01  0.25708045194E+01  0.00000000000E+00 0.  1.
</event>
<event>
 5    1  0.8240609E+001  0.1527144E+01  0.7818608E-02  0.3436444E+00
         11   -1    0    0    0    0  0.00000000000E+00  0.00000000000E+00  0.39999999674E+01  0.40000000000E+01  0.51100000000E-03 0.  1.
    9000002   -1    0    0    0    0 -0.00000000000E+00 -0.00000000000E+00  0.00000000000E+00  0.93800000000E+00  0.93800000000E+00 0. -1.
         11    1    1    2    0    0 -0.37921325970E-01 -0.16722705288E+00  0.31595377196E+00  0.35948569000E+00  0.51100000000E-03 0.  1.
    9000002    1    1    2    0    0 -0.26378091974E+00 -0.47692182528E-01  0.10594108300E+00  0.98128611065E+00  0.93800000000E+00 0. -1.
         22    1    1    2    0    0  0.30170224571E+00  0.21491923541E+00  0.35781051124E+01  0.35972281994E+01  0.00000000000E+00 0.  1.
</event>
<event>
 5    1  0.8240609E+001  0.1599649E+01  0.7818608E-02  0.3353745E+00
         11   -1    0    0    0    0  0.00000000000E+00  0.00000000000E+00  0.39999999674E+01  0.40000000000E+01  0.51100000000E-03 0. -1.
    9000002   -1    0    0    0    0 -0.00000000000E+00 -0.00000000000E+00  0.00000000000E+00  0.93800000000E+00  0.93800000000E+00 0. -1.
         11    1    1    2    0    0  0.90142200952E-01  0.77049555561E-02  0.49043768992E+00  0.49871271444E+00  0.51100000000E-03 0. -1.
    9000002    1    1    2    0    0 -0.65036827935E+00 -0.73349193346E-01  0.30262850635E+00  0.11831259509E+01  0.93800000000E+00 0. -1.
         22    1    1    2    0    0  0.56022607840E+00  0.65644237790E-01  0.32069337711E+01  0.32561613346E+01  0.00000000000E+00 0. -1.
</event>
<event>
 5    1  0.8240609E+001  0.1586809E+01  0.7818608E-02  0.3367806E+00
         11   -1    0    0    0    0  0.00000000000E+00  0.00000000000E+00  0.39999999674E+01  0.40000000000E+01  0.51100000000E-03 0. -1.
    9000002   -1    0    0    0    0 -0.00000000000E+00 -0.00000000000E+00  0.00000000000E+00  0.93800000000E+00  0.93800000000E+00 0. -1.
         11    1    1    2    0    0 -0.40007664579E-01  0.28797228013E+00  0.10791972033E+01  0.11176741529E+01  0.51100000000E-03 0. -1.
    9000002    1    1    2    0    0 -0.38618020470E-01 -0.59957665446E+00  0.26481921445E+00  0.11449701884E+01  0.93800000000E+00 0. -1.
         22    1    1    2    0    0  0.78625685049E-01  0.31160437434E+00  0.26559835496E+01  0.26753556587E+01  0.00000000000E+00 0.  1.
</event>
<event>
 5    1  0.8240609E+001  0.1599676E+01  0.7818608E-02  0.3353715E+00
         11   -1    0    0    0    0  0.00000000000E+00  0.00000000000E+00  0.39999999674E+01  0.40000000000E+01  0.51100000000E-03 0.  1.
    9000002   -1    0    0    0    0 -0.00000000000E+00 -0.00000000000E+00  0.00000000000E+00  0.93800000000E+00  0.93800000000E+00 0.  1.
         11    1    1    2    0    0  0.23878473467E-01  0.16933075228E-01  0.26621107040E+00  0.26781617885E+00  0.51100000000E-03 0. -1.
    9000002    1    1    2    0    0 -0.35217426160E+00 -0.24620757647E+00  0.12504381582E+00  0.10392905451E+01  0.93800000000E+00 0.  1.
         22    1    1    2    0    0  0.32829578813E+00  0.22927450124E+00  0.36087450811E+01  0.36308932761E+01  0.00000000000E+00 0.  1.
</event>
<event>
 5    1  0.8240609E+001  0.1599421E+01  0.7818608E-02  0.3353992E+00
         11   -1    0    0    0    0  0.00000000000E+00  0.00000000000E+00  0.39999999674E+01  0.40000000000E+01  0.51100000000E-03 0. -1.
    9000002   -1    0    0    0    0 -0.00000000000E+00 -0.00000000000E+00  0.00000000000E+00  0.93800000000E+00  0.93800000000E+00 0.  1.
         11    1    1    2    0    0  0.12374090299E+00 -0.44356207805E-01  0.92329999266E+00  0.93261054133E+00  0.51100000000E-03 0. -1.
    9000002    1    1    2    0    0 -0.51373661559E+00  0.11496514546E+00  0.19082842761E+00  0.10924293037E+01  0.93800000000E+00 0.  1.
         22    1    1    2    0    0  0.38999571260E+00 -0.70608937657E-01  0.28858715471E+01  0.29129601549E+01  0.00000000000E+00 0. -1.
</event>
<event>
 5    1  0.8240609E+001  0.1575216E+01  0.7818608E-02  0.3380710E+00
         11   -1    0    0    0    0  0.00000000000E+00  0.00000000000E+00  0.39999999674E+01  0.40000000000E+01  0.51100000000E-03 0.  1.
    9000002   -1    0    0    0    0 -0.00000000000E+00 -0.00000000000E+00  0.00000000000E+00  0.93800000000E+00  0.93800000000E+00 0.  1.
         11    1    1    2    0    0 -0.13431262564E+00  0.85696960609E-01  0.32293731997E+00  0.36010085283E+00  0.51100000000E-03 0.  1.
    9000002    1    1    2    0    0  0.43283841166E+00 -0.38354717515E+00  0.25646392628E+00  0.11314041151E+01  0.93800000000E+00 0.  1.
         22    1    1    2    0    0 -0.29852578602E+00  0.29785021454E+00  0.34205987211E+01  0.34464950321E+01  0.00000000000E+00 0.  1.
</event>
<event>
 5    1  0.8240609E+001  0.1534004E+01  0.7818608E-02  0.3428263E+00
         11   -1    0    0    0    0  0.00000000000E+00  0.00000000000E+00  0.39999999674E+01  0.40000000000E+01  0.51100000000E-03 0. -1.
    9000002   -1    0    0    0    0 -0.00000000000E+00 -0.00000000000E+00  0.00000000000E+00  0.93800000000E+00  0.93800000000E+00 0. -1.
         11    1    1    2    0    0  0.16899480621E+00  0.35018400742E-01  0.42758365119E+00  0.46110039341E+00  0.51100000000E-03 0. -1.
    9000002    1    1    2    0    0  0.22373149222E+00 -0.13620896357E+00  0.97898727650E-01  0.97879355497E+00  0.93800000000E+00 0. -1.
         22    1    1    2    0    0 -0.39272629843E+00  0.10119056283E+00  0.34745175885E+01  0.34981060516E+01  0.00000000000E+00 0. -1.
</event>
<event>
 5    1  0.8240609E+001  0.1599663E+01  0.7818608E-02  0.3353729E+00
         11   -1    0    0    0    0  0.00000000000E+00  0.00000000000E+00  0.39999999674E+01  0.40000000000E+01  0.51100000000E-03 0. -1.
    9000002   -1    0    0    0    0 -0.00000000000E+00 -0.00000000000E+00  0.00000000000E+00  0.93800000000E+00  0.93800000000E+00 0.  1.
         11    1    1    2    0    0 -0.30013628658E-02  0.69918471019E-03  0.36659879191E-01  0.36792728923E-01  0.51100000000E-03 0. -1.
    9000002    1    1    2    0    0  0.39098707718E+00 -0.51398390091E-01  0.10483260920E+00  0.10229108294E+01  0.93800000000E+00 0.  1.
         22    1    1    2    0    0 -0.38798571432E+00  0.50699205380E-01  0.38585074790E+01  0.38782964416E+01  0.00000000000E+00 0. -1.
</event>
<event>
 5    1  0.8240609E+001  0.1599674E+01  0.7818608E-02  0.3353717E+00
         11   -1    0    0    0    0  0.00000000000E+00  0.00000000000E+00  0.39999999674E+01  0.40000000000E+01  0.51100000000E-03 0. -1.
    9000002   -1    0    0    0    0 -0.00000000000E+00 -0.00000000000E+00  0.00000000000E+00  0.93800000000E+00  0.93800000000E+00 0.  1.
         11    1    1    2    0    0  0.25602486979E-01  0.97199245137E-02  0.21922084888E+00  0.22092534028E+00  0.51100000000E-03 0. -1.
    9000002    1    1    2    0    0 -0.45859291300E+00 -0.18027982558E+00  0.16601835431E+00  0.10724804750E+01  0.93800000000E+00 0.  1.
         22    1    1    2    0    0  0.43299042602E+00  0.17055990106E+00  0.36147607642E+01  0.36445941847E+01  0.00000000000E+00 0. -1.
</event>
<event>
 5    1  0.8240609E+001  0.1581795E+01  0.7818608E-02  0.3373363E+00
         11   -1    0    0    0    0  0.00000000000E+00  0.00000000000E+00  0.39999999674E+01  0.40000000000E+01  0.51100000000E-03 0.  1.
    9000002   -1    0    0    0    0 -0.00000000000E+00 -0.00000000000E+00  0.00000000000E+00  0.93800000000E+00  0.93800000000E+00 0.  1.
         11    1    1    2    0    0  0.47267638795E-01  0.91539223162E-01  0.10573127968E+01  0.10623202297E+01  0.51100000000E-03 0.  1.
    9000002    1    1    2    0    0 -0.21647233827E+00  0.18864058620E+00  0.68972492389E-01  0.98338535107E+00  0.93800000000E+00 0.  1.
         22    1    1    2    0    0  0.16920469947E+00 -0.28017980936E+00  0.28737146782E+01  0.28922944193E+01  0.00000000000E+00 0.  1.
</event>
<event>
 5    1  0.8240609E+001  0.1599370E+01  0.7818608E-02  0.3354048E+00
         11   -1    0    0    0    0  0.00000000000E+00  0.00000000000E+00  0.39999999674E+01  0.40000000000E+01  0.51100000000E-03 0.  1.
    9000002   -1    0    0    0    0 -0.00000000000E+00 -0.00000000000E+00  0.00000000000E+00  0.93800000000E+00  0.93800000000E+00 0. -1.
         11    1    1    2    0    0  0.16227204159E-01  0.86698502716E-01  0.76550940227E+00  0.77057436929E+00  0.51100000000E-03 0.  1.
    9000002    1    1    2    0    0 -0.16094288082E+00 -0.40686439024E+00  0.13005195503E+00  0.10431676538E+01  0.93800000000E+00 0. -1.
         22    1    1    2    0    0  0.14471567666E+00  0.32016588753E+00  0.31044386101E+01  0.31242579769E+01  0.00000000000E+00 0.  1.
</event>
<event>
 5    1  0.8240609E+001  0.1599674E+01  0.7818608E-02  0.3353718E+00
         11   -1    0    0    0    0  0.00000000000E+00  0.00000000000E+00  0.39999999674E+01  0.40000000000E+01  0.51100000000E-03 0.  1.
    9000002   -1    0    0    0    0 -0.00000000000E+00 -0.00000000000E+00  0.00000000000E+00  0.93800000000E+00  0.93800000000E+00 0. -1.
         11    1    1    2    0    0 -0.17792858144E-01  0.48241778665E-01  0.49847732491E+00  0.50112249958E+00  0.51100000000E-03 0.  1.
    9000002    1    1    2    0    0  0.14932036397E+00 -0.37929397320E+00  0.11219232028E+00  0.10288788101E+01  0.93800000000E+00 0. -1.
         22    1    1    2    0    0 -0.13152750583E+00  0.33105219454E+00  0.33893303222E+01  0.34079986903E+01  0.00000000000E+00 0.  1.
</event>
<event>
 5    1  0.8240609E+001  0.1579268E+01  0.7818608E-02  0.3376177E+00
         11   -1    0    0    0    0  0.00000000000E+00  0.00000000000E+00  0.39999999674E+01  0.40000000000E+01  0.51100000000E-03 0.  1.
    9000002   -1    0    0    0    0 -0.00000000000E+00 -0.00000000000E+00  0.00000000000E+00  0.93800000000E+00  0.93800000000E+00 0. -1.
         11    1    1    2    0    0  0.10946649478E+00 -0.15347366692E+00  0.11694438065E+01  0.11845404837E+01  0.51100000000E-03 0.  1.
    9000002    1    1    2    0    0  0.11285721443E+00  0.29437973332E+00  0.82688838166E-01  0.99301441188E+00  0.93800000000E+00 0. -1.
         22    1    1    2    0    0 -0.22232370920E+00 -0.14090606641E+00  0.27478673227E+01  0.27604451044E+01  0.00000000000E+00 0.  1.
</event>
<event>
 5    1  0.8240609E+001  0.1458489E+01  0.7818608E-02  0.3522898E+00
         11   -1    0    0    0    0  0.00000000000E+00  0.00000000000E+00  0.39999999674E+01  0.40000000000E+01  0.51100000000E-03 0.  1.
    9000002   -1    0    0    0    0 -0.00000000000E+00 -0.00000000000E+00  0.00000000000E+00  0.93800000000E+00  0.93800000000E+00 0.  1.
         11    1    1    2    0    0  0.27565013208E+00  0.72881942738E+00  0.12097678382E+01  0.14389924380E+01  0.51100000000E-03 0.  1.
    9000002    1    1    2    0    0  0.72484381566E-02 -0.91993566181E+00  0.93488269915E+00  0.16125085497E+01  0.93800000000E+00 0.  1.
         22    1    1    2    0    0 -0.28289857024E+00  0.19111623442E+00  0.18553494300E+01  0.18864990123E+01  0.00000000000E+00 0.  1.
</event>
<event>
 5    1  0.8240609E+001  0.1590731E+01  0.7818608E-02  0.3363485E+00
         11   -1    0    0    0    0  0.00000000000E+00  0.00000000000E+00  0.39999999674E+01  0.40000000000E+01  0.51100000000E-03 0.  1.
    9000002   -1    0    0    0    0 -0.00000000000E+00 -0.00000000000E+00  0.00000000000E+00  0.93800000000E+00  0.93800000000E+00 0.  1.
         11    1    1    2    0    0 -0.83542131776E-01  0.10920305590E+00  0.13139489109E+01  0.13211232330E+01  0.51100000000E-03 0.  1.
    9000002    1    1    2    0    0  0.70867872217E-02 -0.52465233522E+00  0.19756098599E+00  0.10927875542E+01  0.93800000000E+00 0.  1.
         22    1    1    2    0    0  0.76455344554E-01  0.41544927932E+00  0.24884900705E+01  0.25240892128E+01  0.00000000000E+00 0. -1.
</event>
<event>
 5    1  0.8240609E+001  0.1599676E+01  0.7818608E-02  0.3353715E+00
         11   -1    0    0    0    0  0.00000000000E+00  0.00000000000E+00  0.39999999674E+01  0.40000000000E+01  0.51100000000E-03 0. -1.
    9000002   -1    0    0    0    0 -0.00000000000E+00 -0.00000000000E+00  0.00000000000E+00  0.93800000000E+00  0.93800000000E+00 0. -1.
         11    1    1    2    0    0  0.21557946617E+00 -0.13493215601E+00  0.13926245762E+01  0.14156569727E+01  0.51100000000E-03 0. -1.
    9000002    1    1    2    0    0 -0.56835194343E+00  0.35450946615E+00  0.31817269711E+00  0.11957335650E+01  0.93800000000E+00 0. -1.
         22    1    1    2    0    0  0.35277247727E+00 -0.21957731015E+00  0.22892026941E+01  0.23266094624E+01  0.00000000000E+00 0. -1.
</event>
<event>
 5    1  0.8240609E+001  0.1599677E+01  0.7818608E-02  0.3353714E+00
         11   -1    0    0    0    0  0.00000000000E+00  0.00000000000E+00  0.39999999674E+01  0.40000000000E+01  0.51100000000E-03 0.  1.
    9000002   -1    0    0    0    0 -0.00000000000E+00 -0.00000000000E+00  0.00000000000E+00  0.93800000000E+00  0.93800000000E+00 0. -1.
         11    1    1    2    0    0 -0.15072799419E+00 -0.51357174889E-01  0.12591320066E+01  0.12691612028E+01  0.51100000000E-03 0. -1.
    9000002    1    1    2    0    0  0.45961706024E+00  0.15734991271E+00  0.16118224793E+00  0.10685647169E+01  0.93800000000E+00 0. -1.
         22    1    1    2    0    0 -0.30888906605E+00 -0.10599273782E+00  0.25796857129E+01  0.26002740803E+01  0.00000000000E+00 0.  1.
</event>
<event>
 5    1  0.8240609E+001  0.1599674E+01  0.7818608E-02  0.3353717E+00
         11   -1    0    0    0    0  0.00000000000E+00  0.00000000000E+00  0.39999999674E+01  0.40000000000E+01  0.51100000000E-03 0.  1.
    9000002   -1    0    0    0    0 -0.00000000000E+00 -0.00000000000E+00  0.00000000000E+00  0.93800000000E+00  0.93800000000E+00 0.  1.
         11    1    1    2    0    0 -0.83620420534E-01  0.15526192789E+00  0.14308731680E+01  0.14416993185E+01  0.51100000000E-03 0.  1.
    9000002    1    1    2    0    0  0.22984043773E+00 -0.41800124856E+00  0.15519173900E+00  0.10637105558E+01  0.93800000000E+00 0.  1.
         22    1    1    2    0    0 -0.14622001720E+00  0.26273932067E+00  0.24139350604E+01  0.24325901257E+01  0.00000000000E+00 0.  1.
</event>
<event>
 5    1  0.8240609E+001  0.1599571E+01  0.7818608E-02  0.3353830E+00
         11   -1    0    0    0    0  0.00000000000E+00  0.00000000000E+00  0.39999999674E+01  0.40000000000E+01  0.51100000000E-03 0. -1.
    9000002   -1    0    0    0    0 -0.00000000000E+00 -0.00000000000E+00  0.00000000000E+00  0.93800000000E+00  0.93800000000E+00 0. -1.
         11    1    1    2    0    0 -0.33818940148E-01 -0.74235706224E-01  0.78295480389E+00  0.78719320808E+00  0.51100000000E-03 0. -1.
    9000002    1    1    2    0    0  0.19324701671E+00  0.32699981489E+00  0.97158296597E-01  0.10166400656E+01  0.93800000000E+00 0. -1.
         22    1    1    2    0    0 -0.15942807656E+00 -0.25276410867E+00  0.31198868669E+01  0.31341667263E+01  0.00000000000E+00 0. -1.
</event>
<event>
 5    1  0.8240609E+001  0.1514394E+01  0.7818608E-02  0.3451862E+00
         11   -1    0    0    0    0  0.00000000000E+00  0.00000000000E+00  0.39999999674E+01  0.40000000000E+01  0.51100000000E-03 0.  1.
    9000002   -1    0    0    0    0 -0.00000000000E+00 -0.00000000000E+00  0.00000000000E+00  0.93800000000E+00  0.93800000000E+00 0.  1.
         11    1    1    2    0    0  0.28635890913E+00  0.15788809957E+00  0.62164719266E+00  0.70240698323E+00  0.51100000000E-03 0.  1.
    9000002    1    1    2    0    0 -0.13538808563E+00 -0.56743600220E+00  0.32532089731E+00  0.11515169285E+01  0.93800000000E+00 0.  1.
         22    1    1    2    0    0 -0.15097082350E+00  0.40954790262E+00  0.30530318774E+01  0.30840760883E+01  0.00000000000E+00 0.  1.
</event>
<event>
 5    1  0.8240609E+001  0.1599676E+01  0.7818608E-02  0.3353716E+00
         11   -1    0    0    0    0  0.00000000000E+00  0.00000000000E+00  0.39999999674E+01  0.40000000000E+01  0.51100000000E-03 0. -1.
    9000002   -1    0    0    0    0 -0.00000000000E+00 -0.00000000000E+00  0.00000000000E+00  0.93800000000E+00  0.93800000000E+00 0. -1.
         11    1    1    2    0    0 -0.11609549487E+00  0.78919154413E-01  0.13180098958E+01  0.13254647273E+01  0.51100000000E-03 0. -1.
    9000002    1    1    2    0    0  0.33870215255E+00 -0.23110737221E+00  0.11355637667E+00  0.10299848622E+01  0.93800000000E+00 0. -1.
         22    1    1    2    0    0 -0.22260665768E+00  0.15218821779E+00  0.25684336949E+01  0.25825504105E+01  0.00000000000E+00 0. -1.
</event>
<event>
 5    1  0.8240609E+001  0.1599669E+01  0.7818608E-02  0.3353723E+00
         11   -1    0    0    0    0  0.00000000000E+00  0.00000000000E+00  0.39999999674E+01  0.40000000000E+01  0.51100000000E-03 0. -1.
    9000002   -1    0    0    0    0 -0.00000000000E+00 -0.00000000000E+00  0.00000000000E+00  0.93800000000E+00  0.93800000000E+00 0. -1.
         11    1    1    2    0    0  0.76600842556E-01  0.35648687642E-01  0.62450797773E+00  0.63019758281E+00  0.51100000000E-03 0. -1.
    9000002    1    1    2    0    0 -0.46709208489E+00 -0.20297852478E+00  0.17784459021E+00  0.10820572977E+01  0.93800000000E+00 0. -1.
         22    1    1    2    0    0  0.39049124234E+00  0.16732983714E+00  0.31976473994E+01  0.32257451195E+01  0.00000000000E+00 0. -1.
</event>
<event>
 5    1  0.8240609E+001  0.1562947E+01  0.7818608E-02  0.3394588E+00
         11   -1    0    0    0    0  0.00000000000E+00  0.00000000000E+00  0.39999999674E+01  0.40000000000E+01  0.51100000000E-03 0. -1.
    9000002   -1    0    0    0    0 -0.00000000000E+00 -0.00000000000E+00  0.00000000000E+00  0.93800000000E+00  0.93800000000E+00 0.  1.
         11    1    1    2    0    0  0.14992038774E+00 -0.12998543271E+00  0.89913691888E+00  0.92077130461E+00  0.51100000000E-03 0. -1.
    9000002    1    1    2    0    0  0.13441676506E+00  0.25469447012E+00  0.84409374873E-01  0.98483809959E+00  0.93800000000E+00 0.  1.
         22    1    1    2    0    0 -0.28433715280E+00 -0.12470903741E+00  0.30164536736E+01  0.30323905958E+01  0.00000000000E+00 0. -1.
</event>
<event>
 5    1  0.8240609E+001  0.1599651E+01  0.7818608E-02  0.3353742E+00
         11   -1    0    0    0    0  0.00000000000E+00  0.00000000000E+00  0.39999999674E+01  0.40000000000E+01  0.51100000000E-03 0. -1.
    9000002   -1    0    0    0    0 -0.00000000000E+00 -0.00000000000E+00  0.00000000000E+00  0.93800000000E+00  0.93800000000E+00 0. -1.
         11    1    1    2    0    0  0.82087119253E-01 -0.23777791601E-01  0.89700795748E+00  0.90107003914E+00  0.51100000000E-03 0. -1.
    9000002    1    1    2    0    0 -0.34954431741E+00  0.12437250406E+00  0.92537878039E-01  0.10129447213E+01  0.93800000000E+00 0. -1.
         22    1    1    2    0    0  0.26745719815E+00 -0.10059471246E+00  0.30104541318E+01  0.30239852395E+01  0.00000000000E+00 0. -1.
</event>
<event>
 5    1  0.8240609E+001  0.1501060E+01  0.7818608E-02  0.3468286E+00
         11   -1    0    0    0    0  0.00000000000E+00  0.00000000000E+00  0.39999999674E+01  0.40000000000E+01  0.51100000000E-03 0. -1.
    9000002   -1    0    0    0    0 -0.00000000000E+00 -0.00000000000E+00  0.00000000000E+00  0.93800000000E+00  0.93800000000E+00 0. -1.
         11    1    1    2    0    0 -0.81233471772E-01 -0.31835170987E+00  0.10441982316E+01  0.10946674820E+01  0.51100000000E-03 0. -1.
    9000002    1    1    2    0    0  0.13993582739E+00 -0.54397997477E-01  0.91560403475E-01  0.95434191221E+00  0.93800000000E+00 0. -1.
         22    1    1    2    0    0 -0.58702355616E-01  0.37274970734E+00  0.28642413323E+01  0.28889906058E+01  0.00000000000E+00 0. -1.
</event>
<event>
 5    1  0.8240609E+001  0.1599216E+01  0.7818608E-02  0.3354215E+00
         11   -1    0    0    0    0  0.00000000000E+00  0.00000000000E+00  0.39999999674E+01  0.40000000000E+01  0.51100000000E-03 0. -1.
    9000002   -1    0    0    0    0 -0.00000000000E+00 -0.00000000000E+00  0.00000000000E+00  0.93800000000E+00  0.93800000000E+00 0.  1.
         11    1    1    2    0    0 -0.14475878382E-01 -0.33087413224E-01  0.28733395512E+00  0.28959521897E+00  0.51100000000E-03 0. -1.
    9000002    1    1    2    0    0  0.34730017179E-01  0.36383998786E+00  0.90102355467E-01  0.10107166494E+01  0.93800000000E+00 0.  1.
         22    1    1    2    0    0 -0.20254138797E-01 -0.33075257464E+00  0.36225636568E+01  0.36376881317E+01  0.00000000000E+00 0. -1.
</event>
<event>
 5    1  0.8240609E+001  0.1596290E+01  0.7818608E-02  0.3357400E+00
         11   -1    0    0    0    0  0.00000000000E+00  0.00000000000E+00  0.39999999674E+01  0.40000000000E+01  0.51100000000E-03 0.  1.
    9000002   -1    0    0    0    0 -0.00000000000E+00 -0.00000000000E+00  0.00000000000E+00  0.93800000000E+00  0.93800000000E+00 0.  1.
         11    1    1    2    0    0 -0.17362374814E+00  0.16338042059E+00  0.12657159727E+01  0.12879734284E+01  0.51100000000E-03 0.  1.
    9000002    1    1    2    0    0  0.63478577160E+00 -0.33468378646E+00  0.37371229123E+00  0.12387377000E+01  0.93800000000E+00 0.  1.
         22    1    1    2    0    0 -0.46116202346E+00  0.17130336587E+00  0.23605717035E+01  0.24112888716E+01  0.00000000000E+00 0.  1.
</event>
<event>
 5    1  0.8240609E+001  0.1599671E+01  0.7818608E-02  0.3353721E+00
         11   -1    0    0    0    0  0.00000000000E+00  0.00000000000E+00  0.39999999674E+01  0.40000000000E+01  0.51100000000E-03 0. -1.
    9000002   -1    0    0    0    0 -0.00000000000E+00 -0.00000000000E+00  0.00000000000E+00  0.93800000000E+00  0.93800000000E+00 0. -1.
         11    1    1    2    0    0  0.32684185057E-02  0.16639571450E+00  0.12573352087E+01  0.12683021346E+01  0.51100000000E-03 0. -1.
    9000002    1    1    2    0    0 -0.11516674493E-01 -0.51379248185E+00  0.18123790522E+00  0.10848071379E+01  0.93800000000E+00 0. -1.
         22    1    1    2    0    0  0.82482559871E-02  0.34739676735E+00  0.25614268534E+01  0.25848907275E+01  0.00000000000E+00 0. -1.
</event>
<event>
 5    1  0.8240609E+001  0.1596501E+01  0.7818608E-02  0.3357170E+00
         11   -1    0    0    0    0  0.00000000000E+00  0.00000000000E+00  0.39999999674E+01  0.40000000000E+01  0.51100000000E-03 0.  1.
    9000002   -1    0    0    0    0 -0.00000000000E+00 -0.00000000000E+00  0.00000000000E+00  0.93800000000E+00  0.93800000000E+00 0.  1.
         11    1    1    2    0    0  0.29839106971E-01 -0.62075450395E-02  0.11053569542E+01  0.11057771761E+01  0.51100000000E-03 0.  1.
    9000002    1    1    2    0    0 -0.28964352480E+00  0.13812786918E+00  0.71351722576E-01  0.99393548484E+00  0.93800000000E+00 0.  1.
         22    1    1    2    0    0  0.25980441783E+00 -0.13192032414E+00  0.28232912906E+01  0.28382873391E+01  0.00000000000E+00 0.  1.
</event>
<event>
 5    1  0.8240609E+001  0.1557130E+01  0.7818608E-02  0.3401249E+00
         11   -1    0    0    0    0  0.00000000000E+00  0.00000000000E+00  0.39999999674E+01  0.40000000000E+01  0.51100000000E-03 0.  1.
    9000002   -1    0    0    0    0 -0.00000000000E+00 -0.00000000000E+00  0.00000000000E+00  0.93800000000E+00  0.93800000000E+00 0. -1.
         11    1    1    2    0    0 -0.66399402785E-02  0.93109352595E-01  0.87117032407E-01  0.12768351031E+00  0.51100000000E-03 0.  1.
    9000002    1    1    2    0    0  0.19292557741E+00 -0.40910635644E+00  0.17679211628E+00  0.10562612090E+01  0.93800000000E+00 0. -1.
         22    1    1    2    0    0 -0.18628563713E+00  0.31599700384E+00  0.37360908187E+01  0.37540552807E+01  0.00000000000E+00 0.  1.
</event>
<event>
 5    1  0.8240609E+001  0.1599677E+01  0.7818608E-02  0.3353714E+00
         11   -1    0    0    0    0  0.00000000000E+00  0.00000000000E+00  0.39999999674E+01  0.40000000000E+01  0.51100000000E-03 0. -1.
    9000002   -1    0    0    0    0 -0.00000000000E+00 -0.00000000000E+00  0.00000000000E+00  0.93800000000E+00  0.93800000000E+00 0.  1.
         11    1    1    2    0    0  0.10030592251E+00  0.45940397477E-01  0.11337472431E+01  0.11391026602E+01  0.51100000000E-03 0. -1.
    9000002    1    1    2    0    0 -0.34409911388E+00 -0.15902684086E+00  0.96672213748E-01  0.10163086407E+01  0.93800000000E+00 0.  1.
         22    1    1    2    0    0  0.24379319136E+00  0.11308644338E+00  0.27695805105E+01  0.27825886991E+01  0.00000000000E+00 0. -1.
</event>
<event>
 5    1  0.8240609E+001  0.1599677E+01  0.7818608E-02  0.3353714E+00
         11   -1    0    0    0    0  0.00000000000E+00  0.00000000000E+00  0.39999999674E+01  0.40000000000E+01  0.51100000000E-03 0. -1.
    9000002   -1    0    0    0    0 -0.00000000000E+00 -0.00000000000E+00  0.00000000000E+00  0.93800000000E+00  0.93800000000E+00 0.  1.
         11    1    1    2    0    0  0.95528001843E-01 -0.81809509321E-01  0.13301912254E+01  0.13361240033E+01  0.51100000000E-03 0. -1.
    9000002    1    1    2    0    0 -0.28065306006E+00  0.24159655218E+00  0.92163600318E-01  0.10126564883E+01  0.93800000000E+00 0.  1.
         22    1    1    2    0    0  0.18512505821E+00 -0.15978704286E+00  0.25776451416E+01  0.25892195084E+01  0.00000000000E+00 0. -1.
</event>
<event>
 5    1  0.8240609E+001  0.1555760E+01  0.7818608E-02  0.3402825E+00
         11   -1    0    0    0    0  0.00000000000E+00  0.00000000000E+00  0.39999999674E+01  0.40000000000E+01  0.51100000000E-03 0.  1.
    9000002   -1    0    0    0    0 -0.00000000000E+00 -0.00000000000E+00  0.00000000000E+00  0.93800000000E+00  0.93800000000E+00 0.  1.
         11    1    1    2    0    0 -0.18001528016E+00  0.12234816639E+00  0.47072457029E+00  0.51861012052E+00  0.51100000000E-03 0.  1.
    9000002    1    1    2    0    0  0.84991625446E+00  0.32225018899E+00  0.70782650481E+00  0.14856194616E+01  0.93800000000E+00 0.  1.
         22    1    1    2    0    0 -0.66990097429E+00 -0.44459835538E+00  0.28214488923E+01  0.29337704178E+01  0.00000000000E+00 0.  1.
</event>
<event>
 5    1  0.8240609E+001  0.1598604E+01  0.7818608E-02  0.3354880E+00
         11   -1    0    0    0    0  0.00000000000E+00  0.00000000000E+00  0.39999999674E+01  0.40000000000E+01  0.51100000000E-03 0.  1.
    9000002   -1    0    0    0    0 -0.00000000000E+00 -0.00000000000E+00  0.00000000000E+00  0.93800000000E+00  0.93800000000E+00 0. -1.
         11    1    1    2    0    0 -0.63761718816E-01  0.11363471232E+00  0.14021915223E+01  0.14082328397E+01  0.51100000000E-03 0.  1.
    9000002    1    1    2    0    0  0.76397344468E-01 -0.34562994969E+00  0.84916050229E-01  0.10061567234E+01  0.93800000000E+00 0. -1.
         22    1    1    2    0    0 -0.12635625652E-01  0.23199523736E+00  0.25128923948E+01  0.25236104369E+01  0.00000000000E+00 0.  1.
</event>
<event>
 5    1  0.8240609E+001  0.1599625E+01  0.7818608E-02  0.3353771E+00
         11   -1    0    0    0    0  0.00000000000E+00  0.00000000000E+00  0.39999999674E+01  0.40000000000E+01  0.51100000000E-03 0. -1.
    9000002   -1    0    0    0    0 -0.00000000000E+00 -0.00000000000E+00  0.00000000000E+00  0.93800000000E+00  0.93800000000E+00 0. -1.
         11    1    1    2    0    0 -0.11020603260E+00 -0.11700465184E+00  0.13382008201E+01  0.13478194071E+01  0.51100000000E-03 0. -1.
    9000002    1    1    2    0    0  0.31271903307E+00  0.31468958198E+00  0.13359975414E+00  0.10461910060E+01  0.93800000000E+00 0. -1.
         22    1    1    2    0    0 -0.20251300047E+00 -0.19768493015E+00  0.25281993931E+01  0.25439895869E+01  0.00000000000E+00 0. -1.
</event>
<event>
 5    1  0.8240609E+001  0.1599632E+01  0.7818608E-02  0.3353763E+00
         11   -1    0    0    0    0  0.00000000000E+00  0.00000000000E+00  0.39999999674E+01  0.40000000000E+01  0.51100000000E-03 0.  1.
    9000002   -1    0    0    0    0 -0.00000000000E+00 -0.00000000000E+00  0.00000000000E+00  0.93800000000E+00  0.93800000000E+00 0.  1.
         11    1    1    2    0    0 -0.69895783654E-02  0.19261657220E-01  0.15743186597E+00  0.15876057189E+00  0.51100000000E-03 0.  1.
    9000002    1    1    2    0    0  0.14158101513E+00 -0.40217925420E+00  0.12309343603E+00  0.10376846006E+01  0.93800000000E+00 0.  1.
         22    1    1    2    0    0 -0.13459143676E+00  0.38291759698E+00  0.37194746654E+01  0.37415548275E+01  0.00000000000E+00 0.  1.
</event>
<event>
 5    1  0.8240609E+001  0.1599673E+01  0.7818608E-02  0.3353718E+00
         11   -1    0    0    0    0  0.00000000000E+00  0.00000000000E+00  0.39999999674E+01  0.40000000000E+01  0.51100000000E-03 0. -1.
    9000002   -1    0    0    0    0 -0.00000000000E+00 -0.00000000000E+00  0.00000000000E+00  0.93800000000E+00  0.93800000000E+00 0.  1.
         11    1    1    2    0    0 -0.17576549695E-01 -0.16404506962E+00  0.12286677703E+01  0.12396953137E+01  0.51100000000E-03 0. -1.
    9000002    1    1    2    0    0  0.53481421436E-01  0.51619538971E+00  0.18496871585E+00  0.10878305790E+01  0.93800000000E+00 0.  1.
         22    1    1    2    0    0 -0.35904871741E-01 -0.35215032009E+00  0.25863634812E+01  0.26104741073E+01  0.00000000000E+00 0. -1.
</event>
<event>
 5    1  0.8240609E+001  0.1599666E+01  0.7818608E-02  0.3353726E+00
         11   -1    0    0    0    0  0.00000000000E+00  0.00000000000E+00  0.39999999674E+01  0.40000000000E+01  0.51100000000E-03 0.  1.
    9000002   -1    0    0    0    0 -0.00000000000E+00 -0.00000000000E+00  0.00000000000E+00  0.93800000000E+00  0.93800000000E+00 0. -1.
         11    1    1    2    0    0 -0.12115673902E-01  0.11362100444E+00  0.81312433056E+00  0.82111385342E+00  0.51100000000E-03 0.  1.
    9000002    1    1    2    0    0  0.41319373536E-01 -0.53290931928E+00  0.19677464156E+00  0.10973895811E+01  0.93800000000E+00 0. -1.
         22    1    1    2    0    0 -0.29203699634E-01  0.41928831484E+00  0.29901009952E+01  0.30194965655E+01  0.00000000000E+00 0.  1.
</event>
<event>
 5    1  0.8240609E+001  0.1599390E+01  0.7818608E-02  0.3354026E+00
         11   -1    0    0    0    0  0.00000000000E+00  0.00000000000E+00  0.39999999674E+01  0.40000000000E+01  0.51100000000E-03 0. -1.
    9000002   -1    0    0    0    0 -0.00000000000E+00 -0.00000000000E+00  0.00000000000E+00  0.93800000000E+00  0.93800000000E+00 0.  1.
         11    1    1    2    0    0  0.13825609084E+00 -0.45433154578E-01  0.96869654145E+00  0.97956733751E+00  0.51100000000E-03 0. -1.
    9000002    1    1    2    0    0 -0.47986432141E+00  0.15456219590E+00  0.17436738111E+00  0.10790770236E+01  0.93800000000E+00 0.  1.
         22    1    1    2    0    0  0.34160823057E+00 -0.10912904132E+00  0.28569360448E+01  0.28793556388E+01  0.00000000000E+00 0. -1.
</event>
<event>
 5    1  0.8240609E+001  0.1599675E+01  0.7818608E-02  0.3353716E+00
         11   -1    0    0    0    0  0.00000000000E+00  0.00000000000E+00  0.39999999674E+01  0.40000000000E+01  0.51100000000E-03 0. -1.
    9000002   -1    0    0    0    0 -0.00000000000E+00 -0.00000000000E+00  0.00000000000E+00  0.93800000000E+00  0.93800000000E+00 0.  1.
         11    1    1    2    0    0  0.10072989950E+00  0.13427938612E+00  0.82414595233E+00  0.84106734454E+00  0.51100000000E-03 0. -1.
    9000002    1    1    2    0    0 -0.44445981439E+00 -0.58407874384E+00  0.38866608705E+00  0.12528359162E+01  0.93800000000E+00 0.  1.
         22    1    1    2    0    0  0.34372991489E+00  0.44979935772E+00  0.27871879280E+01  0.28440967393E+01  0.00000000000E+00 0. -1.
</event>
<event>
 5    1  0.8240609E+001  0.1599512E+01  0.7818608E-02  0.3353893E+00
         11   -1    0    0    0    0  0.00000000000E+00  0.00000000000E+00  0.39999999674E+01  0.40000000000E+01  0.51100000000E-03 0.  1.
    9000002   -1    0    0    0    0 -0.00000000000E+00 -0.00000000000E+00  0.00000000000E+00  0.93800000000E+00  0.93800000000E+00 0. -1.
         11    1    1    2    0    0  0.85420356941E-01  0.10482798739E+00  0.83777059275E+00  0.84861379408E+00  0.51100000000E-03 0.  1.
    9000002    1    1    2    0    0 -0.38698002347E+00 -0.41447618049E+00  0.22298367244E+00  0.11185301788E+01  0.93800000000E+00 0. -1.
         22    1    1    2    0    0  0.30155966653E+00  0.30964819310E+00  0.29392457022E+01  0.29708560271E+01  0.00000000000E+00 0.  1.
</event>
<event>
 5    1  0.8240609E+001  0.1536333E+01  0.7818608E-02  0.3425503E+00
         11   -1    0    0    0    0  0.00000000000E+00  0.00000000000E+00  0.39999999674E+01  0.40000000000E+01  0.51100000000E-03 0.  1.
    9000002   -1    0    0    0    0 -0.00000000000E+00 -0.00000000000E+00  0.00000000000E+00  0.93800000000E+00  0.93800000000E+00 0.  1.
         11    1    1    2    0    0  0.11301944396E+00  0.16550113026E+00  0.83688266763E+00  0.86054452490E+00  0.51100000000E-03 0.  1.
    9000002    1    1    2    0    0 -0.25306481357E+00  0.35821300081E+00  0.18682090089E+00  0.10521902883E+01  0.93800000000E+00 0.  1.
         22    1    1    2    0    0  0.14004536962E+00 -0.52371413107E+00  0.29762963988E+01  0.30252651868E+01  0.00000000000E+00 0.  1.
</event>
<event>
 5    1  0.8240609E+001  0.1599671E+01  0.7818608E-02  0.3353721E+00
         11   -1    0    0    0    0  0.00000000000E+00  0.00000000000E+00  0.39999999674E+01  0.40000000000E+01  0.51100000000E-03 0.  1.
    9000002   -1    0    0    0    0 -0.00000000000E+00 -0.00000000000E+00  0.00000000000E+00  0.93800000000E+00  0.93800000000E+00 0. -1.
         11    1    1    2    0    0  0.53697881019E-01  0.72965006791E-01  0.87646994605E+00  0.88113970634E+00  0.51100000000E-03 0.  1.
    9000002    1    1    2    0    0 -0.22780346071E+00 -0.32688738194E+00  0.10706359217E+00  0.10247225917E+01  0.93800000000E+00 0. -1.
         22    1    1    2    0    0  0.17410557969E+00  0.25392237515E+00  0.30164664291E+01  0.30321377019E+01  0.00000000000E+00 0.  1.
</event>
<event>
 5    1  0.8240609E+001  0.1599664E+01  0.7818608E-02  0.3353729E+00
         11   -1    0    0    0    0  0.00000000000E+00  0.00000000000E+00  0.39999999674E+01  0.40000000000E+01  0.51100000000E-03 0. -1.
    9000002   -1    0    0    0    0 -0.00000000000E+00 -0.00000000000E+00  0.00000000000E+00  0.93800000000E+00  0.93800000000E+00 0. -1.
         11    1    1    2    0    0 -0.93698903644E-01  0.11022880780E+00  0.12627080845E+01  0.12709688597E+01  0.51100000000E-03 0. -1.
    9000002    1    1    2    0    0  0.29838565644E+00 -0.34144562018E+00  0.13973640358E+00  0.10511847478E+01  0.93800000000E+00 0. -1.
         22    1    1    2    0    0 -0.20468675280E+00  0.23121681237E+00  0.25975554793E+01  0.26158463925E+01  0.00000000000E+00 0. -1.
</event>
<event>
 5    1  0.8240609E+001  0.1592387E+01  0.7818608E-02  0.3361668E+00
         11   -1    0    0    0    0  0.00000000000E+00  0.00000000000E+00  0.39999999674E+01  0.40000000000E+01  0.51100000000E-03 0.  1.
    9000002   -1    0    0    0    0 -0.00000000000E+00 -0.00000000000E+00  0.00000000000E+00  0.93800000000E+00  0.93800000000E+00 0. -1.
         11    1    1    2    0    0 -0.18063717101E-01 -0.42263395379E-02  0.12382582962E+01  0.12383973631E+01  0.51100000000E-03 0.  1.
    9000002    1    1    2    0    0  0.46542711377E-02 -0.28580881810E+00  0.60125390706E-01  0.98242933860E+00  0.93800000000E+00 0. -1.
         22    1    1    2    0    0  0.13409445963E-01  0.29003515763E+00  0.27016162805E+01  0.27171732983E+01  0.00000000000E+00 0.  1.
</event>
<event>
 5    1  0.8240609E+001  0.1590467E+01  0.7818608E-02  0.3363776E+00
         11   -1    0    0    0    0  0.00000000000E+00  0.00000000000E+00  0.39999999674E+01  0.40000000000E+01  0.51100000000E-03 0.  1.
    9000002   -1    0    0    0    0 -0.00000000000E+00 -0.00000000000E+00  0.00000000000E+00  0.93800000000E+00  0.93800000000E+00 0. -1.
         11    1    1    2    0    0  0.35896051828E-01  0.22584624201E-01  0.10536811075E+01  0.10545343661E+01  0.51100000000E-03 0.  1.
    9000002    1    1    2    0    0  0.22503389863E+00 -0.21449404639E+00  0.71827869988E-01  0.99078312176E+00  0.93800000000E+00 0. -1.
         22    1    1    2    0    0 -0.26092995045E+00  0.19190942219E+00  0.28744909899E+01  0.28926825122E+01  0.00000000000E+00 0.  1.
</event>
<event>
 5    1  0.8240609E+001  0.1599602E+01  0.7818608E-02  0.3353795E+00
         11   -1    0    0    0    0  0.00000000000E+00  0.00000000000E+00  0.39999999674E+01  0.40000000000E+01  0.51100000000E-03 0.  1.
    9000002   -1    0    0    0    0 -0.00000000000E+00 -0.00000000000E+00  0.00000000000E+00  0.93800000000E+00  0.93800000000E+00 0.  1.
         11    1    1    2    0    0  0.28353197077E-02 -0.13189068658E+00  0.86018366346E+00  0.87024099435E+00  0.51100000000E-03 0.  1.
    9000002    1    1    2    0    0 -0.10901554379E-01  0.61167759368E+00  0.26186895568E+00  0.11500815938E+01  0.93800000000E+00 0.  1.
         22    1    1    2    0    0  0.80662346712E-02 -0.47978690710E+00  0.28779473482E+01  0.29176774118E+01  0.00000000000E+00 0.  1.
</event>
<event>
 5    1  0.8240609E+001  0.1599540E+01  0.7818608E-02  0.3353863E+00
         11   -1    0    0    0    0  0.00000000000E+00  0.00000000000E+00  0.39999999674E+01  0.40000000000E+01  0.51100000000E-03 0.  1.
    9000002   -1    0    0    0    0 -0.00000000000E+00 -0.00000000000E+00  0.00000000000E+00  0.93800000000E+00  0.93800000000E+00 0.  1.
         11    1    1    2    0    0  0.12008541182E+00 -0.79417445008E-01  0.10886312501E+01  0.10981101478E+01  0.51100000000E-03 0.  1.
    9000002    1    1    2    0    0 -0.42773723766E+00  0.23527807840E+00  0.16294358576E+00  0.10699109920E+01  0.93800000000E+00 0.  1.
         22    1    1    2    0    0  0.30765182583E+00 -0.15586063339E+00  0.27484251315E+01  0.27699788603E+01  0.00000000000E+00 0.  1.
</event>
<event>
 5    1  0.8240609E+001  0.1578214E+01  0.7818608E-02  0.3377354E+00
         11   -1    0    0    0    0  0.00000000000E+00  0.00000000000E+00  0.39999999674E+01  0.40000000000E+01  0.51100000000E-03 0.  1.
    9000002   -1    0    0    0    0 -0.00000000000E+00 -0.00000000000E+00  0.00000000000E+00  0.93800000000E+00  0.93800000000E+00 0. -1.
         11    1    1    2    0    0 -0.51693403841E-01 -0.10202767436E+00  0.48045698876E+00  0.49388362344E+00  0.51100000000E-03 0.  1.
    9000002    1    1    2    0    0 -0.36454301290E+00  0.29641985505E+00  0.16947333286E+00  0.10626954170E+01  0.93800000000E+00 0. -1.
         22    1    1    2    0    0  0.41623641674E+00 -0.19439218069E+00  0.33500696457E+01  0.33814209596E+01  0.00000000000E+00 0.  1.
</event>
<event>
 5    1  0.8240609E+001  0.1599673E+01  0.7818608E-02  0.3353718E+00
         11   -1    0    0    0    0  0.00000000000E+00  0.00000000000E+00  0.39999999674E+01  0.40000000000E+01  0.51100000000E-03 0.  1.
    9000002   -1    0    0    0    0 -0.00000000000E+00 -0.00000000000E+00  0.00000000000E+00  0.93800000000E+00  0.93800000000E+00 0.  1.
         11    1    1    2    0    0  0.33417389233E-01 -0.19456148761E-01  0.29975107811E+00  0.30223539432E+00  0.51100000000E-03 0.  1.
    9000002    1    1    2    0    0 -0.42709923862E+00  0.26421071057E+00  0.17272759510E+00  0.10779145983E+01  0.93800000000E+00 0.  1.
         22    1    1    2    0    0  0.39368184939E+00 -0.24475456181E+00  0.35275212941E+01  0.35578500073E+01  0.00000000000E+00 0.  1.
</event>
<event>
 5    1  0.8240609E+001  0.1536485E+01  0.7818608E-02  0.3425324E+00
         11   -1    0    0    0    0  0.00000000000E+00  0.00000000000E+00  0.39999999674E+01  0.40000000000E+01  0.51100000000E-03 0. -1.
    9000002   -1    0    0    0    0 -0.00000000000E+00 -0.00000000000E+00  0.00000000000E+00  0.93800000000E+00  0.93800000000E+00 0. -1.
         11    1    1    2    0    0 -0.21901089086E+00  0.81642439993E-01  0.13436623914E+01  0.13638402184E+01  0.51100000000E-03 0. -1.
    9000002    1    1    2    0    0 -0.43636526865E-01  0.24748095421E+00  0.91940508295E-01  0.97542197342E+00  0.93800000000E+00 0. -1.
         22    1    1    2    0    0  0.26264741772E+00 -0.32912339420E+00  0.25643970677E+01  0.25987378081E+01  0.00000000000E+00 0. -1.
</event>
<event>
 5    1  0.8240609E+001  0.1587455E+01  0.7818608E-02  0.3367093E+00
         11   -1    0    0    0    0  0.00000000000E+00  0.00000000000E+00  0.39999999674E+01  0.40000000000E+01  0.51100000000E-03 0.  1.
    9000002   -1    0    0    0    0 -0.00000000000E+00 -0.00000000000E+00  0.00000000000E+00  0.93800000000E+00  0.93800000000E+00 0.  1.
         11    1    1    2    0    0 -0.10661245107E+00  0.16835736813E-01  0.10621009204E+01  0.10675712075E+01  0.51100000000E-03 0.  1.
    9000002    1    1    2    0    0  0.97545848041E-01  0.25850719177E+00  0.60334502077E-01  0.97970679941E+00  0.93800000000E+00 0.  1.
         22    1    1    2    0    0  0.90666030276E-02 -0.27534292859E+00  0.28775645448E+01  0.28907219931E+01  0.00000000000E+00 0.  1.
</event>
<event>
 5    1  0.8240609E+001  0.1599485E+01  0.7818608E-02  0.3353923E+00
         11   -1    0    0    0    0  0.00000000000E+00  0.00000000000E+00  0.39999999674E+01  0.40000000000E+01  0.51100000000E-03 0.  1.
    9000002   -1    0    0    0    0 -0.00000000000E+00 -0.00000000000E+00  0.00000000000E+00  0.93800000000E+00  0.93800000000E+00 0.  1.
         11    1    1    2    0    0  0.36834955433E-01 -0.13982298244E+00  0.89425465654E+00  0.90586915845E+00  0.51100000000E-03 0.  1.
    9000002    1    1    2    0    0 -0.14955599379E+00  0.53205712125E+00  0.21126535685E+00  0.11090215627E+01  0.93800000000E+00 0.  1.
         22    1    1    2    0    0  0.11272103836E+00 -0.39223413881E+00  0.28944799540E+01  0.29231092788E+01  0.00000000000E+00 0.  1.
</event>
<event>
 5    1  0.8240609E+001  0.1599677E+01  0.7818608E-02  0.3353714E+00
         11   -1    0    0    0    0  0.00000000000E+00  0.00000000000E+00  0.39999999674E+01  0.40000000000E+01  0.51100000000E-03 0. -1.
    9000002   -1    0    0    0    0 -0.00000000000E+00 -0.00000000000E+00  0.00000000000E+00  0.93800000000E+00  0.93800000000E+00 0. -1.
         11    1    1    2    0    0  0.30308397249E-02 -0.11646444090E+00  0.11136099555E+01  0.11196877002E+01  0.51100000000E-03 0. -1.
    9000002    1    1    2    0    0 -0.10107644171E-01  0.40464974684E+00  0.11058431251E+00  0.10275779641E+01  0.93800000000E+00 0. -1.
         22    1    1    2    0    0  0.70768044460E-02 -0.28818530594E+00  0.27758056994E+01  0.27907343357E+01  0.00000000000E+00 0. -1.
</event>
<event>
 5    1  0.8240609E+001  0.1599675E+01  0.7818608E-02  0.3353716E+00
         11   -1    0    0    0    0  0.00000000000E+00  0.00000000000E+00  0.39999999674E+01  0.40000000000E+01  0.51100000000E-03 0.  1.
    9000002   -1    0    0    0    0 -0.00000000000E+00 -0.00000000000E+00  0.00000000000E+00  0.93800000000E+00  0.93800000000E+00 0. -1.
         11    1    1    2    0    0  0.13889966003E+00 -0.83377277656E-01  0.14232650796E+01  0.14324554562E+01  0.51100000000E-03 0.  1.
    9000002    1    1    2    0    0 -0.38094089842E+00  0.22340865522E+00  0.13229964536E+00  0.10451672553E+01  0.93800000000E+00 0. -1.
         22    1    1    2    0    0  0.24204123839E+00 -0.14003137757E+00  0.24444352424E+01  0.24603772886E+01  0.00000000000E+00 0.  1.
</event>
<event>
 5    1  0.8240609E+001  0.1598662E+01  0.7818608E-02  0.3354817E+00
         11   -1    0    0    0    0  0.00000000000E+00  0.00000000000E+00  0.39999999674E+01  0.40000000000E+01  0.51100000000E-03 0.  1.
    9000002   -1    0    0    0    0 -0.00000000000E+00 -0.00000000000E+00  0.00000000000E+00  0.93800000000E+00  0.93800000000E+00 0. -1.
         11    1    1    2    0    0 -0.61044515268E-04 -0.63471303925E-02  0.11192260548E+00  0.11210361515E+00  0.51100000000E-03 0.  1.
    9000002    1    1    2    0    0  0.43572776570E+00  0.29814803972E+00  0.19268954451E+00  0.10934917466E+01  0.93800000000E+00 0. -1.
         22    1    1    2    0    0 -0.43566672119E+00 -0.29180090933E+00  0.36953878174E+01  0.37324046382E+01  0.00000000000E+00 0.  1.
</event>
<event>
 5    1  0.8240609E+001  0.1599441E+01  0.7818608E-02  0.3353970E+00
         11   -1    0    0    0    0  0.00000000000E+00  0.00000000000E+00  0.39999999674E+01  0.40000000000E+01  0.51100000000E-03 0. -1.
    9000002   -1    0    0    0    0 -0.00000000000E+00 -0.00000000000E+00  0.00000000000E+00  0.93800000000E+00  0.93800000000E+00 0.  1.
         11    1    1    2    0    0  0.18157323660E-01 -0.65734724300E-01  0.63892389440E+00  0.64255330233E+00  0.51100000000E-03 0. -1.
    9000002    1    1    2    0    0 -0.15724416383E+00  0.33239266193E+00  0.91034189201E-01  0.10116035945E+01  0.93800000000E+00 0.  1.
         22    1    1    2    0    0  0.13908684017E+00 -0.26665793763E+00  0.32700418838E+01  0.32838431032E+01  0.00000000000E+00 0. -1.
</event>
<event>
 5    1  0.8240609E+001  0.1509548E+01  0.7818608E-02  0.3457795E+00
         11   -1    0    0    0    0  0.00000000000E+00  0.00000000000E+00  0.39999999674E+01  0.40000000000E+01  0.51100000000E-03 0.  1.
    9000002   -1    0    0    0    0 -0.00000000000E+00 -0.00000000000E+00  0.00000000000E+00  0.93800000000E+00  0.93800000000E+00 0.  1.
         11    1    1    2    0    0  0.22074497405E+00 -0.19285825616E+00  0.34400869847E+00  0.45195674160E+00  0.51100000000E-03 0.  1.
    9000002    1    1    2    0    0 -0.42450385871E+00  0.47910972860E+00  0.38925283182E+00  0.12004630045E+01  0.93800000000E+00 0.  1.
         22    1    1    2    0    0  0.20375888466E+00 -0.28625147244E+00  0.32667384371E+01  0.32855802539E+01  0.00000000000E+00 0.  1.
</event>
<event>
 5    1  0.8240609E+001  0.1599642E+01  0.7818608E-02  0.3353753E+00
         11   -1    0    0    0    0  0.00000000000E+00  0.00000000000E+00  0.39999999674E+01  0.40000000000E+01  0.51100000000E-03 0.  1.
    9000002   -1    0    0    0    0 -0.00000000000E+00 -0.00000000000E+00  0.00000000000E+00  0.93800000000E+00  0.93800000000E+00 0. -1.
         11    1    1    2    0    0 -0.21893239374E-01 -0.21892837609E-01  0.29598928479E+00  0.29760465067E+00  0.51100000000E-03 0.  1.
    9000002    1    1    2    0    0  0.29043686065E+00  0.23902310894E+00  0.95182125629E-01  0.10150809099E+01  0.93800000000E+00 0. -1.
         22    1    1    2    0    0 -0.26854362127E+00 -0.21713027133E+00  0.36088285569E+01  0.36253144394E+01  0.00000000000E+00 0.  1.
</event>
<event>
 5    1  0.8240609E+001  0.1595849E+01  0.7818608E-02  0.3357881E+00
         11   -1    0    0    0    0  0.00000000000E+00  0.00000000000E+00  0.39999999674E+01  0.40000000000E+01  0.51100000000E-03 0. -1.
    9000002   -1    0    0    0    0 -0.00000000000E+00 -0.00000000000E+00  0.00000000000E+00  0.93800000000E+00  0.93800000000E+00 0. -1.
         11    1    1    2    0    0  0.99206769787E-01  0.96031469499E-01  0.12504634346E+01  0.12580632292E+01  0.51100000000E-03 0. -1.
    9000002    1    1    2    0    0 -0.19701747786E+00 -0.47858317076E+00  0.18742823668E+00  0.10875803795E+01  0.93800000000E+00 0. -1.
         22    1    1    2    0    0  0.97810708074E-01  0.38255170126E+00  0.25621082961E+01  0.25923563913E+01  0.00000000000E+00 0. -1.
</event>
<event>
 5    1  0.8240609E+001  0.1599237E+01  0.7818608E-02  0.3354192E+00
         11   -1    0    0    0    0  0.00000000000E+00  0.00000000000E+00  0.39999999674E+01  0.40000000000E+01  0.51100000000E-03 0. -1.
    9000002   -1    0    0    0    0 -0.00000000000E+00 -0.00000000000E+00  0.00000000000E+00  0.93800000000E+00  0.93800000000E+00 0.  1.
         11    1    1    2    0    0 -0.67696826874E-02 -0.41154252645E-01  0.25549793326E+00  0.25888019650E+00  0.51100000000E-03 0. -1.
    9000002    1    1    2    0    0 -0.18939434649E-02  0.46093675839E+00  0.14492403005E+00  0.10551366057E+01  0.93800000000E+00 0.  1.
         22    1    1    2    0    0  0.86636261524E-02 -0.41978250574E+00  0.35995780041E+01  0.36239831978E+01  0.00000000000E+00 0. -1.
</event>
<event>
 5    1  0.8240609E+001  0.1599671E+01  0.7818608E-02  0.3353720E+00
         11   -1    0    0    0    0  0.00000000000E+00  0.00000000000E+00  0.39999999674E+01  0.40000000000E+01  0.51100000000E-03 0. -1.
    9000002   -1    0    0    0    0 -0.00000000000E+00 -0.00000000000E+00  0.00000000000E+00  0.93800000000E+00  0.93800000000E+00 0. -1.
         11    1    1    2    0    0  0.37695576017E-01 -0.18112592666E+00  0.13268438854E+01  0.13396800047E+01  0.51100000000E-03 0. -1.
    9000002    1    1    2    0    0 -0.10584311550E+00  0.51260501613E+00  0.18831190975E+00  0.10905375019E+01  0.93800000000E+00 0. -1.
         22    1    1    2    0    0  0.68147539483E-01 -0.33147908947E+00  0.24848441722E+01  0.25077824934E+01  0.00000000000E+00 0. -1.
</event>
<event>
 5    1  0.8240609E+001  0.1599577E+01  0.7818608E-02  0.3353822E+00
         11   -1    0    0    0    0  0.00000000000E+00  0.00000000000E+00  0.39999999674E+01  0.40000000000E+01  0.51100000000E-03 0.  1.
    9000002   -1    0    0    0    0 -0.00000000000E+00 -0.00000000000E+00  0.00000000000E+00  0.93800000000E+00  0.93800000000E+00 0. -1.
         11    1    1    2    0    0 -0.34797524163E-01 -0.41531260728E-01  0.39832886586E+00  0.40199733806E+00  0.51100000000E-03 0.  1.
    9000002    1    1    2    0    0  0.27999917696E+00  0.35970316527E+00  0.14133388840E+00  0.10524282276E+01  0.93800000000E+00 0. -1.
         22    1    1    2    0    0 -0.24520165279E+00 -0.31817190454E+00  0.34603372131E+01  0.34835744344E+01  0.00000000000E+00 0.  1.
</event>
<event>
 5    1  0.8240609E+001  0.1449015E+01  0.7818608E-02  0.3535526E+00
         11   -1    0    0    0    0  0.00000000000E+00  0.00000000000E+00  0.39999999674E+01  0.40000000000E+01  0.51100000000E-03 0. -1.
    9000002   -1    0    0    0    0 -0.00000000000E+00 -0.00000000000E+00  0.00000000000E+00  0.93800000000E+00  0.93800000000E+00 0.  1.
         11    1    1    2    0    0  0.12468075289E+00 -0.15193851247E+00  0.11281270066E+00  0.22662208247E+00  0.51100000000E-03 0. -1.
    9000002    1    1    2    0    0  0.52927133446E+00  0.44347264825E+00  0.53173075586E+00  0.12803818696E+01  0.93800000000E+00 0.  1.
         22    1    1    2    0    0 -0.65395208735E+00 -0.29153413577E+00  0.33554565108E+01  0.34309960479E+01  0.00000000000E+00 0. -1.
</event>
<event>
 5    1  0.8240609E+001  0.1598758E+01  0.7818608E-02  0.3354713E+00
         11   -1    0    0    0    0  0.00000000000E+00  0.00000000000E+00  0.39999999674E+01  0.40000000000E+01  0.51100000000E-03 0. -1.
    9000002   -1    0    0    0    0 -0.00000000000E+00 -0.00000000000E+00  0.00000000000E+00  0.93800000000E+00  0.93800000000E+00 0.  1.
         11    1    1    2    0    0 -0.75174052282E-03  0.73326412384E-02  0.25114327369E-01  0.26178680286E-01  0.51100000000E-03 0. -1.
    9000002    1    1    2    0    0 -0.21961239510E+00 -0.28980816557E+00  0.89536584776E-01  0.10099896915E+01  0.93800000000E+00 0.  1.
         22    1    1    2    0    0  0.22036413562E+00  0.28247552433E+00  0.38853490552E+01  0.39018316282E+01  0.00000000000E+00 0. -1.
</event>
<event>
 5    1  0.8240609E+001  0.1561649E+01  0.7818608E-02  0.3396070E+00
         11   -1    0    0    0    0  0.00000000000E+00  0.00000000000E+00  0.39999999674E+01  0.40000000000E+01  0.51100000000E-03 0. -1.
    9000002   -1    0    0    0    0 -0.00000000000E+00 -0.00000000000E+00  0.00000000000E+00  0.93800000000E+00  0.93800000000E+00 0. -1.
         11    1    1    2    0    0 -0.10283903949E+00  0.16090044198E+00  0.14692060621E+01  0.14815638813E+01  0.51100000000E-03 0. -1.
    9000002    1    1    2    0    0 -0.23604358597E+00 -0.68300937344E+00  0.42094368287E+00  0.12566845121E+01  0.93800000000E+00 0. -1.
         22    1    1    2    0    0  0.33888262547E+00  0.52210893145E+00  0.21098502223E+01  0.21997516066E+01  0.00000000000E+00 0. -1.
</event>
<event>
 5    1  0.8240609E+001  0.1599485E+01  0.7818608E-02  0.3353922E+00
         11   -1    0    0    0    0  0.00000000000E+00  0.00000000000E+00  0.39999999674E+01  0.40000000000E+01  0.51100000000E-03 0.  1.
    9000002   -1    0    0    0    0 -0.00000000000E+00 -0.00000000000E+00  0.00000000000E+00  0.93800000000E+00  0.93800000000E+00 0. -1.
         11    1    1    2    0    0  0.98322322955E-01  0.20442512117E-02  0.42689780777E+00  0.43807928227E+00  0.51100000000E-03 0.  1.
    9000002    1    1    2    0    0 -0.79416635166E+00 -0.10485952659E+00  0.47310559731E+00  0.13211239990E+01  0.93800000000E+00 0. -1.
         22    1    1    2    0    0  0.69584402870E+00  0.10281527537E+00  0.30999965623E+01  0.31787967188E+01  0.00000000000E+00 0.  1.
</event>
<event>
 5    1  0.8240609E+001  0.1599657E+01  0.7818608E-02  0.3353736E+00
         11   -1    0    0    0    0  0.00000000000E+00  0.00000000000E+00  0.39999999674E+01  0.40000000000E+01  0.51100000000E-03 0.  1.
    9000002   -1    0    0    0    0 -0.00000000000E+00 -0.00000000000E+00  0.00000000000E+00  0.93800000000E+00  0.93800000000E+00 0. -1.
         11    1    1    2    0    0  0.25147307245E-02  0.48523926073E-02  0.24435319185E-01  0.25044271387E-01  0.51100000000E-03 0.  1.
    9000002    1    1    2    0    0 -0.34216150065E+00 -0.61796572722E+00  0.35723002961E+00  0.12273603491E+01  0.93800000000E+00 0. -1.
         22    1    1    2    0    0  0.33964676993E+00  0.61311333462E+00  0.36183346186E+01  0.36855953795E+01  0.00000000000E+00 0.  1.
</event>
<event>
 5    1  0.8240609E+001  0.1591272E+01  0.7818608E-02  0.3362891E+00
         11   -1    0    0    0    0  0.00000000000E+00  0.00000000000E+00  0.39999999674E+01  0.40000000000E+01  0.51100000000E-03 0. -1.
    9000002   -1    0    0    0    0 -0.00000000000E+00 -0.00000000000E+00  0.00000000000E+00  0.93800000000E+00  0.93800000000E+00 0. -1.
         11    1    1    2    0    0 -0.22624943566E-03 -0.44580016828E-01  0.85396918281E+00  0.85513218592E+00  0.51100000000E-03 0. -1.
    9000002    1    1    2    0    0 -0.33547881122E+00 -0.43638397077E-01  0.83393839459E-01  0.10006242426E+01  0.93800000000E+00 0. -1.
         22    1    1    2    0    0  0.33570506066E+00  0.88218413905E-01  0.30626369451E+01  0.30822435715E+01  0.00000000000E+00 0.  1.
</event>
<event>
 5    1  0.8240609E+001  0.1599675E+01  0.7818608E-02  0.3353716E+00
         11   -1    0    0    0    0  0.00000000000E+00  0.00000000000E+00  0.39999999674E+01  0.40000000000E+01  0.51100000000E-03 0. -1.
    9000002   -1    0    0    0    0 -0.00000000000E+00 -0.00000000000E+00  0.00000000000E+00  0.93800000000E+00  0.93800000000E+00 0.  1.
         11    1    1    2    0    0 -0.14407287049E-01 -0.46633516537E-01  0.41134045509E+00  0.41422637036E+00  0.51100000000E-03 0. -1.
    9000002    1    1    2    0    0  0.12808824494E+00  0.44176908983E+00  0.14390829067E+00  0.10545710613E+01  0.93800000000E+00 0.  1.
         22    1    1    2    0    0 -0.11368095789E+00 -0.39513557329E+00  0.34447512216E+01  0.34692025683E+01  0.00000000000E+00 0. -1.
</event>
<event>
 5    1  0.8240609E+001  0.1599676E+01  0.7818608E-02  0.3353715E+00
         11   -1    0    0    0    0  0.00000000000E+00  0.00000000000E+00  0.39999999674E+01  0.40000000000E+01  0.51100000000E-03 0. -1.
    9000002   -1    0    0    0    0 -0.00000000000E+00 -0.00000000000E+00  0.00000000000E+00  0.93800000000E+00  0.93800000000E+00 0.  1.
         11    1    1    2    0    0  0.10164972659E+00 -0.15069430549E+00  0.14132834100E+01  0.14249251555E+01  0.51100000000E-03 0. -1.
    9000002    1    1    2    0    0 -0.27296184809E+00  0.40891635167E+00  0.16524279928E+00  0.10718535049E+01  0.93800000000E+00 0.  1.
         22    1    1    2    0    0  0.17131212150E+00 -0.25822204617E+00  0.24214737581E+01  0.24412213397E+01  0.00000000000E+00 0. -1.
</event>
<event>
 5    1  0.8240609E+001  0.1599676E+01  0.7818608E-02  0.3353715E+00
         11   -1    0    0    0    0  0.00000000000E+00  0.00000000000E+00  0.39999999674E+01  0.40000000000E+01  0.51100000000E-03 0.  1.
    9000002   -1    0    0    0    0 -0.00000000000E+00 -0.00000000000E+00  0.00000000000E+00  0.93800000000E+00  0.93800000000E+00 0. -1.
         11    1    1    2    0    0  0.83144750343E-01 -0.23228193850E+00  0.13520814846E+01  0.13744062538E+01  0.51100000000E-03 0.  1.
    9000002    1    1    2    0    0 -0.22343012578E+00  0.63173261779E+00  0.31840829636E+00  0.11959243139E+01  0.93800000000E+00 0. -1.
         22    1    1    2    0    0  0.14028537543E+00 -0.39945067928E+00  0.23295101864E+01  0.23676694322E+01  0.00000000000E+00 0.  1.
</event>
<event>
 5    1  0.8240609E+001  0.1599676E+01  0.7818608E-02  0.3353715E+00
         11   -1    0    0    0    0  0.00000000000E+00  0.00000000000E+00  0.39999999674E+01  0.40000000000E+01  0.51100000000E-03 0. -1.
    9000002   -1    0    0    0    0 -0.00000000000E+00 -0.00000000000E+00  0.00000000000E+00  0.93800000000E+00  0.93800000000E+00 0.  1.
         11    1    1    2    0    0  0.12034932122E+00  0.64319107681E-01  0.13851689746E+01  0.13918743679E+01  0.51100000000E-03 0. -1.
    9000002    1    1    2    0    0 -0.34111980172E+00 -0.17809722841E+00  0.99694664158E-01  0.10187562849E+01  0.93800000000E+00 0.  1.
         22    1    1    2    0    0  0.22077048051E+00  0.11377812073E+00  0.25151363286E+01  0.25273693472E+01  0.00000000000E+00 0. -1.
</event>
<event>
 5    1  0.8240609E+001  0.1596262E+01  0.7818608E-02  0.3357431E+00
         11   -1    0    0    0    0  0.00000000000E+00  0.00000000000E+00  0.39999999674E+01  0.40000000000E+01  0.51100000000E-03 0.  1.
    9000002   -1    0    0    0    0 -0.00000000000E+00 -0.00000000000E+00  0.00000000000E+00  0.93800000000E+00  0.93800000000E+00 0.  1.
         11    1    1    2    0    0  0.13550512059E+00  0.13341738948E+00  0.14691901560E+01  0.14814458522E+01  0.51100000000E-03 0.  1.
    9000002    1    1    2    0    0 -0.19141203050E+00 -0.42213717108E+00  0.14919880967E+00  0.10568550712E+01  0.93800000000E+00 0.  1.
         22    1    1    2    0    0  0.55906909910E-01  0.28871978160E+00  0.23816110017E+01  0.23996990766E+01  0.00000000000E+00 0.  1.
</event>
<event>
 5    1  0.8240609E+001  0.1599671E+01  0.7818608E-02  0.3353720E+00
         11   -1    0    0    0    0  0.00000000000E+00  0.00000000000E+00  0.39999999674E+01  0.40000000000E+01  0.51100000000E-03 0. -1.
    9000002   -1    0    0    0    0 -0.00000000000E+00 -0.00000000000E+00  0.00000000000E+00  0.93800000000E+00  0.93800000000E+00 0.  1.
         11    1    1    2    0    0 -0.86784671763E-01 -0.68853199722E-01  0.11339368031E+01  0.11393354541E+01  0.51100000000E-03 0. -1.
    9000002    1    1    2    0    0  0.29001189258E+00  0.23594836282E+00  0.93984197584E-01  0.10141279787E+01  0.93800000000E+00 0.  1.
         22    1    1    2    0    0 -0.20322722082E+00 -0.16709516310E+00  0.27720789667E+01  0.27845365672E+01  0.00000000000E+00 0. -1.
</event>
<event>
 5    1  0.8240609E+001  0.1505867E+01  0.7818608E-02  0.3462329E+00
         11   -1    0    0    0    0  0.00000000000E+00  0.00000000000E+00  0.39999999674E+01  0.40000000000E+01  0.51100000000E-03 0. -1.
    9000002   -1    0    0    0    0 -0.00000000000E+00 -0.00000000000E+00  0.00000000000E+00  0.93800000000E+00  0.93800000000E+00 0.  1.
         11    1    1    2    0    0 -0.16397301895E-01 -0.29599665124E+00  0.10352183648E+01  0.10768287761E+01  0.51100000000E-03 0. -1.
    9000002    1    1    2    0    0  0.35099323084E+00 -0.82404083202E-01  0.16764297681E+00  0.10187908758E+01  0.93800000000E+00 0.  1.
         22    1    1    2    0    0 -0.33459592894E+00  0.37840073444E+00  0.27971386257E+01  0.28423803481E+01  0.00000000000E+00 0. -1.
</event>
<event>
 5    1  0.8240609E+001  0.1598655E+01  0.7818608E-02  0.3354825E+00
         11   -1    0    0    0    0  0.00000000000E+00  0.00000000000E+00  0.39999999674E+01  0.40000000000E+01  0.51100000000E-03 0.  1.
    9000002   -1    0    0    0    0 -0.00000000000E+00 -0.00000000000E+00  0.00000000000E+00  0.93800000000E+00  0.93800000000E+00 0.  1.
         11    1    1    2    0    0 -0.14478115315E-01  0.60401725501E-01  0.57224448320E+00  0.57560576261E+00  0.51100000000E-03 0.  1.
    9000002    1    1    2    0    0  0.84259125455E-01 -0.57974331066E+00  0.23974077044E+00  0.11316013183E+01  0.93800000000E+00 0.  1.
         22    1    1    2    0    0 -0.69781010140E-01  0.51934158516E+00  0.31880147137E+01  0.32307929191E+01  0.00000000000E+00 0.  1.
</event>
<event>
 5    1  0.8240609E+001  0.1599670E+01  0.7818608E-02  0.3353721E+00
         11   -1    0    0    0    0  0.00000000000E+00  0.00000000000E+00  0.39999999674E+01  0.40000000000E+01  0.51100000000E-03 0.  1.
    9000002   -1    0    0    0    0 -0.00000000000E+00 -0.00000000000E+00  0.00000000000E+00  0.93800000000E+00  0.93800000000E+00 0. -1.
         11    1    1    2    0    0  0.90823678909E-01 -0.30269126848E-01  0.85709381388E+00  0.86242404164E+00  0.51100000000E-03 0.  1.
    9000002    1    1    2    0    0 -0.40894112445E+00  0.12533469644E+00  0.12386117182E+00  0.10383290515E+01  0.93800000000E+00 0. -1.
         22    1    1    2    0    0  0.31811744554E+00 -0.95065569596E-01  0.30190449817E+01  0.30372469068E+01  0.00000000000E+00 0.  1.
</event>
<event>
 5    1  0.8240609E+001  0.1599663E+01  0.7818608E-02  0.3353729E+00
         11   -1    0    0    0    0  0.00000000000E+00  0.00000000000E+00  0.39999999674E+01  0.40000000000E+01  0.51100000000E-03 0. -1.
    9000002   -1    0    0    0    0 -0.00000000000E+00 -0.00000000000E+00  0.00000000000E+00  0.93800000000E+00  0.93800000000E+00 0.  1.
         11    1    1    2    0    0  0.37404025092E-03 -0.10436822300E-01  0.81390281382E-01  0.82059162744E-01  0.51100000000E-03 0. -1.
    9000002    1    1    2    0    0 -0.60873782594E-01  0.52462830231E+00  0.19190038468E+00  0.10934396328E+01  0.93800000000E+00 0.  1.
         22    1    1    2    0    0  0.60499742343E-01 -0.51419148001E+00  0.37267093013E+01  0.37625012044E+01  0.00000000000E+00 0. -1.
</event>
<event>
 5    1  0.8240609E+001  0.1599674E+01  0.7818608E-02  0.3353717E+00
         11   -1    0    0    0    0  0.00000000000E+00  0.00000000000E+00  0.39999999674E+01  0.40000000000E+01  0.51100000000E-03 0.  1.
    9000002   -1    0    0    0    0 -0.00000000000E+00 -0.00000000000E+00  0.00000000000E+00  0.93800000000E+00  0.93800000000E+00 0. -1.
         11    1    1    2    0    0 -0.73385403292E-01  0.57807154512E-02  0.77286438962E+00  0.77636232518E+00  0.51100000000E-03 0.  1.
    9000002    1    1    2    0    0  0.36517445326E+00 -0.23932291453E-01  0.89962761486E-01  0.10108721157E+01  0.93800000000E+00 0. -1.
         22    1    1    2    0    0 -0.29178904997E+00  0.18151576002E-01  0.31371728162E+01  0.31507655591E+01  0.00000000000E+00 0.  1.
</event>
<event>
 5    1  0.8240609E+001  0.1599029E+01  0.7818608E-02  0.3354418E+00
         11   -1    0    0    0    0  0.00000000000E+00  0.00000000000E+00  0.39999999674E+01  0.40000000000E+01  0.51100000000E-03 0. -1.
    9000002   -1    0    0    0    0 -0.00000000000E+00 -0.00000000000E+00  0.00000000000E+00  0.93800000000E+00  0.93800000000E+00 0.  1.
         11    1    1    2    0    0 -0.13221623410E-01  0.13588925673E+00  0.10684385401E+01  0.10771266762E+01  0.51100000000E-03 0. -1.
    9000002    1    1    2    0    0 -0.17501623056E-01 -0.41835520912E+00  0.11910094752E+00  0.10340969120E+01  0.93800000000E+00 0.  1.
         22    1    1    2    0    0  0.30723246466E-01  0.28246595239E+00  0.28124604797E+01  0.28267764118E+01  0.00000000000E+00 0. -1.
</event>
<event>
 5    1  0.8240609E+001  0.1530824E+01  0.7818608E-02  0.3432045E+00
         11   -1    0    0    0    0  0.00000000000E+00  0.00000000000E+00  0.39999999674E+01  0.40000000000E+01  0.51100000000E-03 0. -1.
    9000002   -1    0    0    0    0 -0.00000000000E+00 -0.00000000000E+00  0.00000000000E+00  0.93800000000E+00  0.93800000000E+00 0. -1.
         11    1    1    2    0    0 -0.15681180722E+00 -0.20438767332E+00  0.10334498288E+01  0.10650742104E+01  0.51100000000E-03 0. -1.
    9000002    1    1    2    0    0  0.66427908799E-02 -0.10197052427E+00  0.58963878716E-01  0.94539031806E+00  0.93800000000E+00 0. -1.
         22    1    1    2    0    0  0.15016901634E+00  0.30635819759E+00  0.29075862598E+01  0.29275354715E+01  0.00000000000E+00 0. -1.
</event>
<event>
 5    1  0.8240609E+001  0.1599673E+01  0.7818608E-02  0.3353718E+00
         11   -1    0    0    0    0  0.00000000000E+00  0.00000000000E+00  0.39999999674E+01  0.40000000000E+01  0.51100000000E-03 0.  1.
    9000002   -1    0    0    0    0 -0.00000000000E+00 -0.00000000000E+00  0.00000000000E+00  0.93800000000E+00  0.93800000000E+00 0. -1.
         11    1    1    2    0    0  0.62264805280E-01  0.97301251484E-01  0.79129271546E+00  0.79968047505E+00  0.51100000000E-03 0.  1.
    9000002    1    1    2    0    0 -0.30188724063E+00 -0.47289363912E+00  0.21787366486E+00  0.11144851878E+01  0.93800000000E+00 0. -1.
         22    1    1    2    0    0  0.23962243535E+00  0.37559238764E+00  0.29908335870E+01  0.30238343372E+01  0.00000000000E+00 0.  1.
</event>
<event>
 5    1  0.8240609E+001  0.1598669E+01  0.7818608E-02  0.3354809E+00
         11   -1    0    0    0    0  0.00000000000E+00  0.00000000000E+00  0.39999999674E+01  0.40000000000E+01  0.51100000000E-03 0. -1.
    9000002   -1    0    0    0    0 -0.00000000000E+00 -0.00000000000E+00  0.00000000000E+00  0.93800000000E+00  0.93800000000E+00 0.  1.
         11    1    1    2    0    0 -0.12805280827E+00 -0.73689423898E-02  0.10554360891E+01  0.10632014966E+01  0.51100000000E-03 0. -1.
    9000002    1    1    2    0    0  0.49540960933E+00 -0.93173233865E-01  0.17498602541E+00  0.10791552444E+01  0.93800000000E+00 0.  1.
         22    1    1    2    0    0 -0.36735680106E+00  0.10054217625E+00  0.27695778528E+01  0.27956432589E+01  0.00000000000E+00 0. -1.
</event>
<event>
 5    1  0.8240609E+001  0.1599676E+01  0.7818608E-02  0.3353715E+00
         11   -1    0    0    0    0  0.00000000000E+00  0.00000000000E+00  0.39999999674E+01  0.40000000000E+01  0.51100000000E-03 0.  1.
    9000002   -1    0    0    0    0 -0.00000000000E+00 -0.00000000000E+00  0.00000000000E+00  0.93800000000E+00  0.93800000000E+00 0.  1.
         11    1    1    2    0    0 -0.16504673004E+00  0.36104049100E-01  0.13177629924E+01  0.13285493934E+01  0.51100000000E-03 0.  1.
    9000002    1    1    2    0    0  0.47851225398E+00 -0.10762820241E+00  0.16441592872E+00  0.10711836466E+01  0.93800000000E+00 0.  1.
         22    1    1    2    0    0 -0.31346552394E+00  0.71524153307E-01  0.25178210462E+01  0.25382669599E+01  0.00000000000E+00 0.  1.
</event>
<event>
 5    1  0.8240609E+001  0.1599632E+01  0.7818608E-02  0.3353762E+00
         11   -1    0    0    0    0  0.00000000000E+00  0.00000000000E+00  0.39999999674E+01  0.40000000000E+01  0.51100000000E-03 0.  1.
    9000002   -1    0    0    0    0 -0.00000000000E+00 -0.00000000000E+00  0.00000000000E+00  0.93800000000E+00  0.93800000000E+00 0.  1.
         11    1    1    2    0    0 -0.31893811649E-01  0.13588912297E+00  0.13725986436E+01  0.13796776314E+01  0.51100000000E-03 0.  1.
    9000002    1    1    2    0    0  0.68943469713E-01 -0.38866614256E+00  0.10506650579E+00  0.10230823735E+01  0.93800000000E+00 0.  1.
         22    1    1    2    0    0 -0.37049658065E-01  0.25277701959E+00  0.25223348180E+01  0.25352399951E+01  0.00000000000E+00 0.  1.
</event>
<event>
 5    1  0.8240609E+001  0.1599554E+01  0.7818608E-02  0.3353847E+00
         11   -1    0    0    0    0  0.00000000000E+00  0.00000000000E+00  0.39999999674E+01  0.40000000000E+01  0.51100000000E-03 0.  1.
    9000002   -1    0    0    0    0 -0.00000000000E+00 -0.00000000000E+00  0.00000000000E+00  0.93800000000E+00  0.93800000000E+00 0.  1.
         11    1    1    2    0    0  0.44074092689E-01 -0.84035869410E-02  0.59218256145E+00  0.59388011680E+00  0.51100000000E-03 0.  1.
    9000002    1    1    2    0    0 -0.35340854616E+00  0.67313503257E-01  0.86977555065E-01  0.10083837580E+01  0.93800000000E+00 0.  1.
         22    1    1    2    0    0  0.30933445347E+00 -0.58909916316E-01  0.33208398508E+01  0.33357361252E+01  0.00000000000E+00 0.  1.
</event>
<event>
 5    1  0.8240609E+001  0.1593392E+01  0.7818608E-02  0.3360567E+00
         11   -1    0    0    0    0  0.00000000000E+00  0.00000000000E+00  0.39999999674E+01  0.40000000000E+01  0.51100000000E-03 0. -1.
    9000002   -1    0    0    0    0 -0.00000000000E+00 -0.00000000000E+00  0.00000000000E+00  0.93800000000E+00  0.93800000000E+00 0.  1.
         11    1    1    2    0    0 -0.14488310582E+00  0.11969363187E+00  0.14616769297E+01  0.14737087187E+01  0.51100000000E-03 0. -1.
    9000002    1    1    2    0    0  0.36509378921E+00 -0.73764905653E-01  0.98412951557E-01  0.10140334537E+01  0.93800000000E+00 0.  1.
         22    1    1    2    0    0 -0.22021068339E+00 -0.45928726221E-01  0.24399100861E+01  0.24502578275E+01  0.00000000000E+00 0. -1.
</event>
<event>
 5    1  0.8240609E+001  0.1599676E+01  0.7818608E-02  0.3353715E+00
         11   -1    0    0    0    0  0.00000000000E+00  0.00000000000E+00  0.39999999674E+01  0.40000000000E+01  0.51100000000E-03 0. -1.
    9000002   -1    0    0    0    0 -0.00000000000E+00 -0.00000000000E+00  0.00000000000E+00  0.93800000000E+00  0.93800000000E+00 0.  1.
         11    1    1    2    0    0  0.89971579039E-01 -0.64894046453E-01  0.11884296839E+01  0.11935960360E+01  0.51100000000E-03 0. -1.
    9000002    1    1    2    0    0 -0.29447544034E+00  0.21724817129E+00  0.89952819430E-01  0.10108650071E+01  0.93800000000E+00 0.  1.
         22    1    1    2    0    0  0.20450386130E+00 -0.15235412484E+00  0.27216174640E+01  0.27335389569E+01  0.00000000000E+00 0. -1.
</event>
<event>
 5    1  0.8240609E+001  0.1592516E+01  0.7818608E-02  0.3361527E+00
         11   -1    0    0    0    0  0.00000000000E+00  0.00000000000E+00  0.39999999674E+01  0.40000000000E+01  0.51100000000E-03 0. -1.
    9000002   -1    0    0    0    0 -0.00000000000E+00 -0.00000000000E+00  0.00000000000E+00  0.93800000000E+00  0.93800000000E+00 0.  1.
         11    1    1    2    0    0 -0.15287568647E+00 -0.18804345020E+00  0.11133970293E+01  0.11394667703E+01  0.51100000000E-03 0. -1.
    9000002    1    1    2    0    0  0.25039463917E+00  0.47191386486E+00  0.20323472985E+00  0.10984300281E+01  0.93800000000E+00 0.  1.
         22    1    1    2    0    0 -0.97518952698E-01 -0.28387041466E+00  0.26833682082E+01  0.27001032016E+01  0.00000000000E+00 0. -1.
</event>
<event>
 5    1  0.8240609E+001  0.1588426E+01  0.7818608E-02  0.3366021E+00
         11   -1    0    0    0    0  0.00000000000E+00  0.00000000000E+00  0.39999999674E+01  0.40000000000E+01  0.51100000000E-03 0. -1.
    9000002   -1    0    0    0    0 -0.00000000000E+00 -0.00000000000E+00  0.00000000000E+00  0.93800000000E+00  0.93800000000E+00 0. -1.
         11    1    1    2    0    0 -0.63662139998E-01  0.64739045170E-01  0.12486609230E+01  0.12519578163E+01  0.51100000000E-03 0. -1.
    9000002    1    1    2    0    0  0.55449150966E+00 -0.16354549923E+00  0.24312433259E+00  0.11283445421E+01  0.93800000000E+00 0. -1.
         22    1    1    2    0    0 -0.49082936966E+00  0.98806454060E-01  0.25082147118E+01  0.25576976416E+01  0.00000000000E+00 0. -1.
</event>
<event>
 5    1  0.8240609E+001  0.1588490E+01  0.7818608E-02  0.3365951E+00
         11   -1    0    0    0    0  0.00000000000E+00  0.00000000000E+00  0.39999999674E+01  0.40000000000E+01  0.51100000000E-03 0.  1.
    9000002   -1    0    0    0    0 -0.00000000000E+00 -0.00000000000E+00  0.00000000000E+00  0.93800000000E+00  0.93800000000E+00 0. -1.
         11    1    1    2    0    0  0.34080645910E-01 -0.11369136929E-01  0.93864497383E-01  0.10050648084E+00  0.51100000000E-03 0.  1.
    9000002    1    1    2    0    0  0.22595543049E+00  0.37717394885E+00  0.14074744942E+00  0.10454520021E+01  0.93800000000E+00 0. -1.
         22    1    1    2    0    0 -0.26003607640E+00 -0.36580481192E+00  0.37653880206E+01  0.37920415170E+01  0.00000000000E+00 0.  1.
</event>
<event>
 5    1  0.8240609E+001  0.1599603E+01  0.7818608E-02  0.3353794E+00
         11   -1    0    0    0    0  0.00000000000E+00  0.00000000000E+00  0.39999999674E+01  0.40000000000E+01  0.51100000000E-03 0.  1.
    9000002   -1    0    0    0    0 -0.00000000000E+00 -0.00000000000E+00  0.00000000000E+00  0.93800000000E+00  0.93800000000E+00 0. -1.
         11    1    1    2    0    0  0.17405911839E+00  0.18689994323E+00  0.12679077722E+01  0.12933748666E+01  0.51100000000E-03 0.  1.
    9000002    1    1    2    0    0 -0.49866047056E+00 -0.55774764385E+00  0.40564055910E+00  0.12665437072E+01  0.93800000000E+00 0. -1.
         22    1    1    2    0    0  0.32460135217E+00  0.37084770062E+00  0.23264516360E+01  0.23780814262E+01  0.00000000000E+00 0. -1.
</event>
<event>
 5    1  0.8240609E+001  0.1595496E+01  0.7818608E-02  0.3358266E+00
         11   -1    0    0    0    0  0.00000000000E+00  0.00000000000E+00  0.39999999674E+01  0.40000000000E+01  0.51100000000E-03 0.  1.
    9000002   -1    0    0    0    0 -0.00000000000E+00 -0.00000000000E+00  0.00000000000E+00  0.93800000000E+00  0.93800000000E+00 0.  1.
         11    1    1    2    0    0 -0.13987426740E+00 -0.25654560268E+00  0.14373881784E+01  0.14667874739E+01  0.51100000000E-03 0.  1.
    9000002    1    1    2    0    0  0.16392422246E+00  0.64414603363E+00  0.31736343522E+00  0.11926268542E+01  0.93800000000E+00 0.  1.
         22    1    1    2    0    0 -0.24049955060E-01 -0.38760043095E+00  0.22452483537E+01  0.22785856719E+01  0.00000000000E+00 0.  1.
</event>
<event>
 5    1  0.8240609E+001  0.1599648E+01  0.7818608E-02  0.3353746E+00
         11   -1    0    0    0    0  0.00000000000E+00  0.00000000000E+00  0.39999999674E+01  0.40000000000E+01  0.51100000000E-03 0. -1.
    9000002   -1    0    0    0    0 -0.00000000000E+00 -0.00000000000E+00  0.00000000000E+00  0.93800000000E+00  0.93800000000E+00 0. -1.
         11    1    1    2    0    0  0.94837321362E-01  0.42845901887E-01  0.90539058381E+00  0.91135188550E+00  0.51100000000E-03 0. -1.
    9000002    1    1    2    0    0 -0.38270691210E+00 -0.18694361592E+00  0.12281454954E+00  0.10374680283E+01  0.93800000000E+00 0. -1.
         22    1    1    2    0    0  0.28786959074E+00  0.14409771403E+00  0.29717948340E+01  0.29891800862E+01  0.00000000000E+00 0. -1.
</event>
<event>
 5    1  0.8240609E+001  0.1599340E+01  0.7818608E-02  0.3354080E+00
         11   -1    0    0    0    0  0.00000000000E+00  0.00000000000E+00  0.39999999674E+01  0.40000000000E+01  0.51100000000E-03 0. -1.
    9000002   -1    0    0    0    0 -0.00000000000E+00 -0.00000000000E+00  0.00000000000E+00  0.93800000000E+00  0.93800000000E+00 0.  1.
         11    1    1    2    0    0  0.83839325360E-01 -0.31971898749E-01  0.65807261067E+00  0.66416192064E+00  0.51100000000E-03 0. -1.
    9000002    1    1    2    0    0 -0.39856420755E+00  0.16269123287E+00  0.12580235478E+00  0.10397076980E+01  0.93800000000E+00 0.  1.
         22    1    1    2    0    0  0.31472488219E+00 -0.13071933412E+00  0.32161250019E+01  0.32341303814E+01  0.00000000000E+00 0. -1.
</event>
<event>
 5    1  0.8240609E+001  0.1594368E+01  0.7818608E-02  0.3359499E+00
         11   -1    0    0    0    0  0.00000000000E+00  0.00000000000E+00  0.39999999674E+01  0.40000000000E+01  0.51100000000E-03 0. -1.
    9000002   -1    0    0    0    0 -0.00000000000E+00 -0.00000000000E+00  0.00000000000E+00  0.93800000000E+00  0.93800000000E+00 0.  1.
         11    1    1    2    0    0 -0.17667796232E+00 -0.61749531791E-01  0.10354083691E+01  0.10521876539E+01  0.51100000000E-03 0. -1.
    9000002    1    1    2    0    0  0.36780511942E+00  0.23946321506E+00  0.13517485337E+00  0.10443847367E+01  0.93800000000E+00 0.  1.
         22    1    1    2    0    0 -0.19112715710E+00 -0.17771368327E+00  0.28294167449E+01  0.28414276094E+01  0.00000000000E+00 0. -1.
</event>
<event>
 5    1  0.9003012E+001  0.1598388E+01  0.7818608E-02  0.3355115E+00
         11   -1    0    0    0    0  0.00000000000E+00  0.00000000000E+00  0.39999999674E+01  0.40000000000E+01  0.51100000000E-03 0.  1.
    9000002   -1    0    0    0    0 -0.00000000000E+00 -0.00000000000E+00  0.00000000000E+00  0.93800000000E+00  0.93800000000E+00 0. -1.
         11    1    1    2    0    0 -0.96500382676E-01  0.18096428986E-01  0.14636692799E+01  0.14669586997E+01  0.51100000000E-03 0.  1.
    9000002    1    1    2    0    0  0.31412805489E+00  0.49333725374E-01  0.68587879304E-01  0.99280337858E+00  0.93800000000E+00 0. -1.
         22    1    1    2    0    0 -0.21762767221E+00 -0.67430154360E-01  0.24677428082E+01  0.24782379217E+01  0.00000000000E+00 0.  1.
</event>
<event>
 5    1  0.8240609E+001  0.1594440E+01  0.7818608E-02  0.3359420E+00
         11   -1    0    0    0    0  0.00000000000E+00  0.00000000000E+00  0.39999999674E+01  0.40000000000E+01  0.51100000000E-03 0. -1.
    9000002   -1    0    0    0    0 -0.00000000000E+00 -0.00000000000E+00  0.00000000000E+00  0.93800000000E+00  0.93800000000E+00 0. -1.
         11    1    1    2    0    0 -0.10192654943E+00  0.43508849123E-01  0.86553444737E+00  0.87260081489E+00  0.51100000000E-03 0. -1.
    9000002    1    1    2    0    0  0.44735680810E+00  0.12978011712E+00  0.15230964543E+00  0.10583067706E+01  0.93800000000E+00 0. -1.
         22    1    1    2    0    0 -0.34543025867E+00 -0.17328896624E+00  0.29821558746E+01  0.30070924145E+01  0.00000000000E+00 0. -1.
</event>
<event>
 5    1  0.8240609E+001  0.1596629E+01  0.7818608E-02  0.3357030E+00
         11   -1    0    0    0    0  0.00000000000E+00  0.00000000000E+00  0.39999999674E+01  0.40000000000E+01  0.51100000000E-03 0.  1.
    9000002   -1    0    0    0    0 -0.00000000000E+00 -0.00000000000E+00  0.00000000000E+00  0.93800000000E+00  0.93800000000E+00 0.  1.
         11    1    1    2    0    0 -0.74574857634E-01 -0.47425914516E-01  0.51396299628E+00  0.52150632731E+00  0.51100000000E-03 0.  1.
    9000002    1    1    2    0    0  0.55029692514E+00  0.13950938012E-01  0.21219951705E+00  0.11081037720E+01  0.93800000000E+00 0.  1.
         22    1    1    2    0    0 -0.47572206751E+00  0.33474976504E-01  0.32738374540E+01  0.33083899007E+01  0.00000000000E+00 0.  1.
</event>
<event>
 5    1  0.8240609E+001  0.1596715E+01  0.7818608E-02  0.3356937E+00
         11   -1    0    0    0    0  0.00000000000E+00  0.00000000000E+00  0.39999999674E+01  0.40000000000E+01  0.51100000000E-03 0.  1.
    9000002   -1    0    0    0    0 -0.00000000000E+00 -0.00000000000E+00  0.00000000000E+00  0.93800000000E+00  0.93800000000E+00 0.  1.
         11    1    1    2    0    0  0.40748178757E-01  0.60437490852E-02  0.46844184935E+00  0.47024989986E+00  0.51100000000E-03 0.  1.
    9000002    1    1    2    0    0 -0.11741588881E+00 -0.32696766682E+00  0.83288984097E-01  0.10037307413E+01  0.93800000000E+00 0.  1.
         22    1    1    2    0    0  0.76667710053E-01  0.32092391774E+00  0.34482691339E+01  0.34640193589E+01  0.00000000000E+00 0.  1.
</event>
<event>
 5    1  0.8240609E+001  0.1598006E+01  0.7818608E-02  0.3355530E+00
         11   -1    0    0    0    0  0.00000000000E+00  0.00000000000E+00  0.39999999674E+01  0.40000000000E+01  0.51100000000E-03 0. -1.
    9000002   -1    0    0    0    0 -0.00000000000E+00 -0.00000000000E+00  0.00000000000E+00  0.93800000000E+00  0.93800000000E+00 0.  1.
         11    1    1    2    0    0  0.12110128240E-01 -0.18536685467E+00  0.96723944102E+00  0.98491620121E+00  0.51100000000E-03 0. -1.
    9000002    1    1    2    0    0 -0.87147392544E-01  0.55895773995E+00  0.22332018090E+00  0.11179196421E+01  0.93800000000E+00 0.  1.
         22    1    1    2    0    0  0.75037264304E-01 -0.37359088527E+00  0.28094403454E+01  0.28351641567E+01  0.00000000000E+00 0.  1.
</event>
<event>
 5    1  0.8240609E+001  0.1598970E+01  0.7818608E-02  0.3354482E+00
         11   -1    0    0    0    0  0.00000000000E+00  0.00000000000E+00  0.39999999674E+01  0.40000000000E+01  0.51100000000E-03 0. -1.
    9000002   -1    0    0    0    0 -0.00000000000E+00 -0.00000000000E+00  0.00000000000E+00  0.93800000000E+00  0.93800000000E+00 0. -1.
         11    1    1    2    0    0 -0.32836461435E-02 -0.18153036048E-02  0.24997797505E-01  0.25282971745E-01  0.51100000000E-03 0. -1.
    9000002    1    1    2    0    0  0.47214101116E+00 -0.50234801053E+00  0.33948944023E+00  0.12125872085E+01  0.93800000000E+00 0. -1.
         22    1    1    2    0    0 -0.46885736502E+00  0.50416331413E+00  0.36355127296E+01  0.37001298198E+01  0.00000000000E+00 0. -1.
</event>
<event>
 5    1  0.8240609E+001  0.1599563E+01  0.7818608E-02  0.3353838E+00
         11   -1    0    0    0    0  0.00000000000E+00  0.00000000000E+00  0.39999999674E+01  0.40000000000E+01  0.51100000000E-03 0.  1.
    9000002   -1    0    0    0    0 -0.00000000000E+00 -0.00000000000E+00  0.00000000000E+00  0.93800000000E+00  0.93800000000E+00 0.  1.
         11    1    1    2    0    0 -0.17012009679E-01 -0.96575268220E-02  0.17448299209E+00  0.17557691177E+00  0.51100000000E-03 0.  1.
    9000002    1    1    2    0    0  0.36766693571E+00  0.98363099433E-01  0.97564251805E-01  0.10169646298E+01  0.93800000000E+00 0.  1.
         22    1    1    2    0    0 -0.35065492603E+00 -0.88705572611E-01  0.37279527235E+01  0.37454584585E+01  0.00000000000E+00 0.  1.
</event>
<event>
 5    1  0.8240609E+001  0.1599642E+01  0.7818608E-02  0.3353752E+00
         11   -1    0    0    0    0  0.00000000000E+00  0.00000000000E+00  0.39999999674E+01  0.40000000000E+01  0.51100000000E-03 0.  1.
    9000002   -1    0    0    0    0 -0.00000000000E+00 -0.00000000000E+00  0.00000000000E+00  0.93800000000E+00  0.93800000000E+00 0.  1.
         11    1    1    2    0    0  0.60924898555E-01  0.24000524503E-01  0.55709502998E+00  0.56093047875E+00  0.51100000000E-03 0.  1.
    9000002    1    1    2    0    0 -0.43723095578E+00 -0.19577027980E+00  0.15659739034E+00  0.10648303404E+01  0.93800000000E+00 0.  1.
         22    1    1    2    0    0  0.37630605722E+00  0.17176975529E+00  0.32863075470E+01  0.33122391809E+01  0.00000000000E+00 0.  1.
</event>
<event>
 5    1  0.8240609E+001  0.1527270E+01  0.7818608E-02  0.3436294E+00
         11   -1    0    0    0    0  0.00000000000E+00  0.00000000000E+00  0.39999999674E+01  0.40000000000E+01  0.51100000000E-03 0.  1.
    9000002   -1    0    0    0    0 -0.00000000000E+00 -0.00000000000E+00  0.00000000000E+00  0.93800000000E+00  0.93800000000E+00 0.  1.
         11    1    1    2    0    0 -0.28258592137E+00 -0.15260002499E+00  0.12710651616E+01  0.13110104793E+01  0.51100000000E-03 0.  1.
    9000002    1    1    2    0    0  0.78213434141E-01 -0.25843094879E-01  0.59162395930E-01  0.94346669042E+00  0.93800000000E+00 0.  1.
         22    1    1    2    0    0  0.20437248723E+00  0.17844311986E+00  0.26697724098E+01  0.26835228303E+01  0.00000000000E+00 0.  1.
</event>
<event>
 5    1  0.8240609E+001  0.1599673E+01  0.7818608E-02  0.3353718E+00
         11   -1    0    0    0    0  0.00000000000E+00  0.00000000000E+00  0.39999999674E+01  0.40000000000E+01  0.51100000000E-03 0. -1.
    9000002   -1    0    0    0    0 -0.00000000000E+00 -0.00000000000E+00  0.00000000000E+00  0.93800000000E+00  0.93800000000E+00 0. -1.
         11    1    1    2    0    0 -0.21032023839E-01 -0.65510523015E-01  0.56860488597E+00  0.57275278448E+00  0.51100000000E-03 0. -1.
    9000002    1    1    2    0    0  0.13345603530E+00  0.44918420153E+00  0.14955600082E+00  0.10591449181E+01  0.93800000000E+00 0. -1.
         22    1    1    2    0    0 -0.11242401146E+00 -0.38367367851E+00  0.32818390806E+01  0.33061022974E+01  0.00000000000E+00 0. -1.
</event>
<event>
 5    1  0.8240609E+001  0.1506029E+01  0.7818608E-02  0.3462129E+00
         11   -1    0    0    0    0  0.00000000000E+00  0.00000000000E+00  0.39999999674E+01  0.40000000000E+01  0.51100000000E-03 0.  1.
    9000002   -1    0    0    0    0 -0.00000000000E+00 -0.00000000000E+00  0.00000000000E+00  0.93800000000E+00  0.93800000000E+00 0.  1.
         11    1    1    2    0    0  0.22056497629E+00 -0.43945496992E+00  0.69234524950E+00  0.84918301030E+00  0.51100000000E-03 0.  1.
    9000002    1    1    2    0    0  0.37962584097E-01  0.30226307804E+00  0.25031383356E+00  0.10174994552E+01  0.93800000000E+00 0.  1.
         22    1    1    2    0    0 -0.25852756039E+00  0.13719189188E+00  0.30573408843E+01  0.30713175345E+01  0.00000000000E+00 0.  1.
</event>
<event>
 5    1  0.8240609E+001  0.1599677E+01  0.7818608E-02  0.3353714E+00
         11   -1    0    0    0    0  0.00000000000E+00  0.00000000000E+00  0.39999999674E+01  0.40000000000E+01  0.51100000000E-03 0. -1.
    9000002   -1    0    0    0    0 -0.00000000000E+00 -0.00000000000E+00  0.00000000000E+00  0.93800000000E+00  0.93800000000E+00 0.  1.
         11    1    1    2    0    0  0.46483345357E-01 -0.66420830194E-01  0.83138495021E+00  0.83532845314E+00  0.51100000000E-03 0. -1.
    9000002    1    1    2    0    0 -0.21916684663E+00  0.31053449444E+00  0.97203574898E-01  0.10167390589E+01  0.93800000000E+00 0.  1.
         22    1    1    2    0    0  0.17268350127E+00 -0.24411366425E+00  0.30714114423E+01  0.30859324880E+01  0.00000000000E+00 0. -1.
</event>
<event>
 5    1  0.8240609E+001  0.1599677E+01  0.7818608E-02  0.3353714E+00
         11   -1    0    0    0    0  0.00000000000E+00  0.00000000000E+00  0.39999999674E+01  0.40000000000E+01  0.51100000000E-03 0.  1.
    9000002   -1    0    0    0    0 -0.00000000000E+00 -0.00000000000E+00  0.00000000000E+00  0.93800000000E+00  0.93800000000E+00 0. -1.
         11    1    1    2    0    0  0.10376930670E+00  0.17172753051E-01  0.72187610821E+00  0.72949869718E+00  0.51100000000E-03 0.  1.
    9000002    1    1    2    0    0 -0.54673947676E+00 -0.89648159125E-01  0.21218192721E+00  0.11098765779E+01  0.93800000000E+00 0. -1.
         22    1    1    2    0    0  0.44297017006E+00  0.72475406074E-01  0.30659419319E+01  0.30986247249E+01  0.00000000000E+00 0.  1.
</event>
<event>
 5    1  0.8240609E+001  0.1599626E+01  0.7818608E-02  0.3353769E+00
         11   -1    0    0    0    0  0.00000000000E+00  0.00000000000E+00  0.39999999674E+01  0.40000000000E+01  0.51100000000E-03 0. -1.
    9000002   -1    0    0    0    0 -0.00000000000E+00 -0.00000000000E+00  0.00000000000E+00  0.93800000000E+00  0.93800000000E+00 0. -1.
         11    1    1    2    0    0  0.53543035827E-01  0.20840311488E-02  0.56801066897E+00  0.57053271690E+00  0.51100000000E-03 0. -1.
    9000002    1    1    2    0    0 -0.39603753040E+00  0.15611648701E-01  0.10595291054E+00  0.10237965952E+01  0.93800000000E+00 0. -1.
         22    1    1    2    0    0  0.34249449457E+00 -0.17695679850E-01  0.33260363879E+01  0.33436706879E+01  0.00000000000E+00 0. -1.
</event>
<event>
 5    1  0.8240609E+001  0.1589287E+01  0.7818608E-02  0.3365074E+00
         11   -1    0    0    0    0  0.00000000000E+00  0.00000000000E+00  0.39999999674E+01  0.40000000000E+01  0.51100000000E-03 0. -1.
    9000002   -1    0    0    0    0 -0.00000000000E+00 -0.00000000000E+00  0.00000000000E+00  0.93800000000E+00  0.93800000000E+00 0.  1.
         11    1    1    2    0    0  0.30612223098E+00  0.14625951956E+00  0.12648560758E+01  0.13095662721E+01  0.51100000000E-03 0. -1.
    9000002    1    1    2    0    0 -0.74375511427E+00 -0.10279753868E+00  0.42137503138E+00  0.12732399307E+01  0.93800000000E+00 0.  1.
         22    1    1    2    0    0  0.43763288329E+00 -0.43461980877E-01  0.23137688602E+01  0.23551937972E+01  0.00000000000E+00 0. -1.
</event>
<event>
 5    1  0.8240609E+001  0.1599666E+01  0.7818608E-02  0.3353726E+00
         11   -1    0    0    0    0  0.00000000000E+00  0.00000000000E+00  0.39999999674E+01  0.40000000000E+01  0.51100000000E-03 0. -1.
    9000002   -1    0    0    0    0 -0.00000000000E+00 -0.00000000000E+00  0.00000000000E+00  0.93800000000E+00  0.93800000000E+00 0.  1.
         11    1    1    2    0    0 -0.94892796465E-01  0.89800788167E-01  0.12414553394E+01  0.12483110370E+01  0.51100000000E-03 0. -1.
    9000002    1    1    2    0    0  0.29755755416E+00 -0.26984877468E+00  0.10887258721E+00  0.10261852169E+01  0.93800000000E+00 0.  1.
         22    1    1    2    0    0 -0.20266475770E+00  0.18004798651E+00  0.26496720408E+01  0.26635037460E+01  0.00000000000E+00 0. -1.
</event>
<event>
 5    1  0.8240609E+001  0.1599538E+01  0.7818608E-02  0.3353865E+00
         11   -1    0    0    0    0  0.00000000000E+00  0.00000000000E+00  0.39999999674E+01  0.40000000000E+01  0.51100000000E-03 0. -1.
    9000002   -1    0    0    0    0 -0.00000000000E+00 -0.00000000000E+00  0.00000000000E+00  0.93800000000E+00  0.93800000000E+00 0. -1.
         11    1    1    2    0    0 -0.20945663070E-01 -0.34598376927E-01  0.38354867466E+00  0.38567553130E+00  0.51100000000E-03 0. -1.
    9000002    1    1    2    0    0  0.12801056471E+00  0.36386189248E+00  0.10029103892E+00  0.10191587089E+01  0.93800000000E+00 0. -1.
         22    1    1    2    0    0 -0.10706490164E+00 -0.32926351556E+00  0.35161602538E+01  0.35331657598E+01  0.00000000000E+00 0. -1.
</event>
<event>
 5    1  0.8240609E+001  0.1598480E+01  0.7818608E-02  0.3355014E+00
         11   -1    0    0    0    0  0.00000000000E+00  0.00000000000E+00  0.39999999674E+01  0.40000000000E+01  0.51100000000E-03 0.  1.
    9000002   -1    0    0    0    0 -0.00000000000E+00 -0.00000000000E+00  0.00000000000E+00  0.93800000000E+00  0.93800000000E+00 0. -1.
         11    1    1    2    0    0 -0.46336635653E-01 -0.18286097385E+00  0.12138221501E+01  0.12283931345E+01  0.51100000000E-03 0.  1.
    9000002    1    1    2    0    0  0.16055795077E+00  0.45587009235E+00  0.16053490779E+00  0.10673386779E+01  0.93800000000E+00 0. -1.
         22    1    1    2    0    0 -0.11422131512E+00 -0.27300911850E+00  0.26256429094E+01  0.26422681876E+01  0.00000000000E+00 0.  1.
</event>
<event>
 5    1  0.8240609E+001  0.1599485E+01  0.7818608E-02  0.3353923E+00
         11   -1    0    0    0    0  0.00000000000E+00  0.00000000000E+00  0.39999999674E+01  0.40000000000E+01  0.51100000000E-03 0. -1.
    9000002   -1    0    0    0    0 -0.00000000000E+00 -0.00000000000E+00  0.00000000000E+00  0.93800000000E+00  0.93800000000E+00 0. -1.
         11    1    1    2    0    0  0.12958965290E+00 -0.85417739985E-01  0.86061360238E+00  0.87449739975E+00  0.51100000000E-03 0. -1.
    9000002    1    1    2    0    0 -0.52483677915E+00  0.32165517538E+00  0.26546014797E+00  0.11529218476E+01  0.93800000000E+00 0. -1.
         22    1    1    2    0    0  0.39524712625E+00 -0.23623743540E+00  0.28739262170E+01  0.29105807526E+01  0.00000000000E+00 0. -1.
</event>
<event>
 5    1  0.8240609E+001  0.1599581E+01  0.7818608E-02  0.3353818E+00
         11   -1    0    0    0    0  0.00000000000E+00  0.00000000000E+00  0.39999999674E+01  0.40000000000E+01  0.51100000000E-03 0.  1.
    9000002   -1    0    0    0    0 -0.00000000000E+00 -0.00000000000E+00  0.00000000000E+00  0.93800000000E+00  0.93800000000E+00 0.  1.
         11    1    1    2    0    0  0.89205682108E-01 -0.50192534799E-01  0.64486936050E+00  0.65294233858E+00  0.51100000000E-03 0.  1.
    9000002    1    1    2    0    0 -0.47562008565E+00  0.27563954267E+00  0.20880326448E+00  0.11070837487E+01  0.93800000000E+00 0.  1.
         22    1    1    2    0    0  0.38641440354E+00 -0.22544700787E+00  0.31463273424E+01  0.31779739127E+01  0.00000000000E+00 0.  1.
</event>
<event>
 5    1  0.8240609E+001  0.1507223E+01  0.7818608E-02  0.3460655E+00
         11   -1    0    0    0    0  0.00000000000E+00  0.00000000000E+00  0.39999999674E+01  0.40000000000E+01  0.51100000000E-03 0.  1.
    9000002   -1    0    0    0    0 -0.00000000000E+00 -0.00000000000E+00  0.00000000000E+00  0.93800000000E+00  0.93800000000E+00 0. -1.
         11    1    1    2    0    0  0.41686156812E-01  0.19221509696E+00  0.82568545327E-02  0.19685734921E+00  0.51100000000E-03 0.  1.
    9000002    1    1    2    0    0 -0.57011468376E+00 -0.30106450892E+00  0.56231103407E+00  0.12695307362E+01  0.93800000000E+00 0. -1.
         22    1    1    2    0    0  0.52842852694E+00  0.10884941196E+00  0.34294320788E+01  0.34716119146E+01  0.00000000000E+00 0.  1.
</event>
<event>
 5    1  0.8240609E+001  0.1599676E+01  0.7818608E-02  0.3353715E+00
         11   -1    0    0    0    0  0.00000000000E+00  0.00000000000E+00  0.39999999674E+01  0.40000000000E+01  0.51100000000E-03 0. -1.
    9000002   -1    0    0    0    0 -0.00000000000E+00 -0.00000000000E+00  0.00000000000E+00  0.93800000000E+00  0.93800000000E+00 0. -1.
         11    1    1    2    0    0  0.45708585748E-01 -0.49905607828E-02  0.37028008899E+00  0.37312435720E+00  0.51100000000E-03 0.  1.
    9000002    1    1    2    0    0 -0.47707116581E+00  0.47975119288E-01  0.15685160548E+00  0.10650563062E+01  0.93800000000E+00 0. -1.
         22    1    1    2    0    0  0.43136258006E+00 -0.42984558505E-01  0.34728682729E+01  0.34998193366E+01  0.00000000000E+00 0. -1.
</event>
<event>
 5    1  0.8240609E+001  0.1599656E+01  0.7818608E-02  0.3353736E+00
         11   -1    0    0    0    0  0.00000000000E+00  0.00000000000E+00  0.39999999674E+01  0.40000000000E+01  0.51100000000E-03 0. -1.
    9000002   -1    0    0    0    0 -0.00000000000E+00 -0.00000000000E+00  0.00000000000E+00  0.93800000000E+00  0.93800000000E+00 0. -1.
         11    1    1    2    0    0 -0.62546033119E-01  0.26156925667E+00  0.13879145625E+01  0.14137317908E+01  0.51100000000E-03 0. -1.
    9000002    1    1    2    0    0  0.17791628514E+00 -0.68654271533E+00  0.36040350505E+00  0.12299308074E+01  0.93800000000E+00 0. -1.
         22    1    1    2    0    0 -0.11537025202E+00  0.42497345866E+00  0.22516818998E+01  0.22943374018E+01  0.00000000000E+00 0. -1.
</event>
<event>
 5    1  0.8240609E+001  0.1597725E+01  0.7818608E-02  0.3355837E+00
         11   -1    0    0    0    0  0.00000000000E+00  0.00000000000E+00  0.39999999674E+01  0.40000000000E+01  0.51100000000E-03 0.  1.
    9000002   -1    0    0    0    0 -0.00000000000E+00 -0.00000000000E+00  0.00000000000E+00  0.93800000000E+00  0.93800000000E+00 0. -1.
         11    1    1    2    0    0  0.39519054535E-01  0.17375046357E-02  0.21911878308E+00  0.22266135007E+00  0.51100000000E-03 0.  1.
    9000002    1    1    2    0    0 -0.36758336303E+00  0.25376323552E+00  0.13712361795E+00  0.10479313885E+01  0.93800000000E+00 0. -1.
         22    1    1    2    0    0  0.32806430850E+00 -0.25550074016E+00  0.36437575663E+01  0.36674072614E+01  0.00000000000E+00 0.  1.
</event>
<event>
 5    1  0.8240609E+001  0.1599643E+01  0.7818608E-02  0.3353751E+00
         11   -1    0    0    0    0  0.00000000000E+00  0.00000000000E+00  0.39999999674E+01  0.40000000000E+01  0.51100000000E-03 0.  1.
    9000002   -1    0    0    0    0 -0.00000000000E+00 -0.00000000000E+00  0.00000000000E+00  0.93800000000E+00  0.93800000000E+00 0.  1.
         11    1    1    2    0    0  0.46008943804E-01  0.11286459526E+00  0.12709590055E+01  0.12767898396E+01  0.51100000000E-03 0.  1.
    9000002    1    1    2    0    0 -0.12148593159E+00 -0.34970392631E+00  0.92133812242E-01  0.10126126145E+01  0.93800000000E+00 0.  1.
         22    1    1    2    0    0  0.75476987789E-01  0.23683933106E+00  0.26369071496E+01  0.26485975459E+01  0.00000000000E+00 0.  1.
</event>
<event>
 5    1  0.8240609E+001  0.1599670E+01  0.7818608E-02  0.3353721E+00
         11   -1    0    0    0    0  0.00000000000E+00  0.00000000000E+00  0.39999999674E+01  0.40000000000E+01  0.51100000000E-03 0. -1.
    9000002   -1    0    0    0    0 -0.00000000000E+00 -0.00000000000E+00  0.00000000000E+00  0.93800000000E+00  0.93800000000E+00 0. -1.
         11    1    1    2    0    0 -0.86500508734E-01 -0.34119955710E-01  0.82846220820E+00  0.83366444145E+00  0.51100000000E-03 0. -1.
    9000002    1    1    2    0    0  0.40528418993E+00  0.17098055589E+00  0.13122724768E+00  0.10442960383E+01  0.93800000000E+00 0. -1.
         22    1    1    2    0    0 -0.31878368120E+00 -0.13686060018E+00  0.30403105115E+01  0.30600395202E+01  0.00000000000E+00 0. -1.
</event>
<event>
 5    1  0.8240609E+001  0.1596055E+01  0.7818608E-02  0.3357657E+00
         11   -1    0    0    0    0  0.00000000000E+00  0.00000000000E+00  0.39999999674E+01  0.40000000000E+01  0.51100000000E-03 0. -1.
    9000002   -1    0    0    0    0 -0.00000000000E+00 -0.00000000000E+00  0.00000000000E+00  0.93800000000E+00  0.93800000000E+00 0. -1.
         11    1    1    2    0    0 -0.84438265520E-01  0.59535943291E-01  0.50449107865E+00  0.51496199742E+00  0.51100000000E-03 0. -1.
    9000002    1    1    2    0    0  0.50361293793E+00 -0.10212635812E+00  0.18450052626E+00  0.10853295483E+01  0.93800000000E+00 0. -1.
         22    1    1    2    0    0 -0.41917467241E+00  0.42590414825E-01  0.33110083624E+01  0.33377084543E+01  0.00000000000E+00 0. -1.
</event>
<event>
 5    1  0.8240609E+001  0.1599493E+01  0.7818608E-02  0.3353914E+00
         11   -1    0    0    0    0  0.00000000000E+00  0.00000000000E+00  0.39999999674E+01  0.40000000000E+01  0.51100000000E-03 0.  1.
    9000002   -1    0    0    0    0 -0.00000000000E+00 -0.00000000000E+00  0.00000000000E+00  0.93800000000E+00  0.93800000000E+00 0.  1.
         11    1    1    2    0    0  0.49723090049E-01 -0.10990860490E+00  0.99045538480E+00  0.99777473285E+00  0.51100000000E-03 0.  1.
    9000002    1    1    2    0    0 -0.19818744830E+00  0.37445632009E+00  0.12161056299E+00  0.10364019150E+01  0.93800000000E+00 0.  1.
         22    1    1    2    0    0  0.14846435825E+00 -0.26454771519E+00  0.28879340196E+01  0.29038233522E+01  0.00000000000E+00 0.  1.
</event>
<event>
 5    1  0.8240609E+001  0.1594802E+01  0.7818608E-02  0.3359025E+00
         11   -1    0    0    0    0  0.00000000000E+00  0.00000000000E+00  0.39999999674E+01  0.40000000000E+01  0.51100000000E-03 0. -1.
    9000002   -1    0    0    0    0 -0.00000000000E+00 -0.00000000000E+00  0.00000000000E+00  0.93800000000E+00  0.93800000000E+00 0. -1.
         11    1    1    2    0    0 -0.75056511117E-02  0.19013446838E-01  0.11204370292E+01  0.11206235958E+01  0.51100000000E-03 0. -1.
    9000002    1    1    2    0    0 -0.17171503533E+00 -0.24546425057E+00  0.63688135358E-01  0.98673143775E+00  0.93800000000E+00 0. -1.
         22    1    1    2    0    0  0.17922068645E+00  0.22645080373E+00  0.28158748028E+01  0.28306449665E+01  0.00000000000E+00 0. -1.
</event>
<event>
 5    1  0.8240609E+001  0.1599666E+01  0.7818608E-02  0.3353726E+00
         11   -1    0    0    0    0  0.00000000000E+00  0.00000000000E+00  0.39999999674E+01  0.40000000000E+01  0.51100000000E-03 0.  1.
    9000002   -1    0    0    0    0 -0.00000000000E+00 -0.00000000000E+00  0.00000000000E+00  0.93800000000E+00  0.93800000000E+00 0.  1.
         11    1    1    2    0    0 -0.69463386451E-02 -0.67763062015E-01  0.64211534639E+00  0.64571856361E+00  0.51100000000E-03 0.  1.
    9000002    1    1    2    0    0  0.54895506229E-01  0.42192742011E+00  0.12253721999E+00  0.10372538912E+01  0.93800000000E+00 0.  1.
         22    1    1    2    0    0 -0.47949167584E-01 -0.35416435810E+00  0.32353474010E+01  0.32550275452E+01  0.00000000000E+00 0.  1.
</event>
<event>
 5    1  0.8240609E+001  0.1596051E+01  0.7818608E-02  0.3357661E+00
         11   -1    0    0    0    0  0.00000000000E+00  0.00000000000E+00  0.39999999674E+01  0.40000000000E+01  0.51100000000E-03 0.  1.
    9000002   -1    0    0    0    0 -0.00000000000E+00 -0.00000000000E+00  0.00000000000E+00  0.93800000000E+00  0.93800000000E+00 0.  1.
         11    1    1    2    0    0  0.82997890325E-02  0.80561158009E-01  0.39178241760E+00  0.40006588275E+00  0.51100000000E-03 0.  1.
    9000002    1    1    2    0    0  0.82329400798E-01 -0.39478117381E+00  0.11277378499E+00  0.10272255020E+01  0.93800000000E+00 0.  1.
         22    1    1    2    0    0 -0.90629189831E-01  0.31422001580E+00  0.34954437648E+01  0.35107086152E+01  0.00000000000E+00 0.  1.
</event>
<event>
 5    1  0.8240609E+001  0.1598983E+01  0.7818608E-02  0.3354468E+00
         11   -1    0    0    0    0  0.00000000000E+00  0.00000000000E+00  0.39999999674E+01  0.40000000000E+01  0.51100000000E-03 0.  1.
    9000002   -1    0    0    0    0 -0.00000000000E+00 -0.00000000000E+00  0.00000000000E+00  0.93800000000E+00  0.93800000000E+00 0.  1.
         11    1    1    2    0    0  0.46881259639E-01  0.63517868176E-01  0.88203720687E+00  0.88556324874E+00  0.51100000000E-03 0.  1.
    9000002    1    1    2    0    0 -0.29179894501E+00 -0.19935268817E+00  0.84330746148E-01  0.10059044653E+01  0.93800000000E+00 0.  1.
         22    1    1    2    0    0  0.24491768537E+00  0.13583482000E+00  0.30336320143E+01  0.30465322860E+01  0.00000000000E+00 0.  1.
</event>
<event>
 5    1  0.9447050E+001  0.1599677E+01  0.7818608E-02  0.3353714E+00
         11   -1    0    0    0    0  0.00000000000E+00  0.00000000000E+00  0.39999999674E+01  0.40000000000E+01  0.51100000000E-03 0. -1.
    9000002   -1    0    0    0    0 -0.00000000000E+00 -0.00000000000E+00  0.00000000000E+00  0.93800000000E+00  0.93800000000E+00 0. -1.
         11    1    1    2    0    0 -0.11763607873E+00 -0.60943892824E-01  0.13348919069E+01  0.13414503604E+01  0.51100000000E-03 0.  1.
    9000002    1    1    2    0    0  0.34411836102E+00  0.17817920741E+00  0.10113019456E+00  0.10199198952E+01  0.93800000000E+00 0. -1.
         22    1    1    2    0    0 -0.22648228230E+00 -0.11723531458E+00  0.25639778659E+01  0.25766297444E+01  0.00000000000E+00 0. -1.
</event>
<event>
 5    1  0.8240609E+001  0.1556200E+01  0.7818608E-02  0.3402319E+00
         11   -1    0    0    0    0  0.00000000000E+00  0.00000000000E+00  0.39999999674E+01  0.40000000000E+01  0.51100000000E-03 0.  1.
    9000002   -1    0    0    0    0 -0.00000000000E+00 -0.00000000000E+00  0.00000000000E+00  0.93800000000E+00  0.93800000000E+00 0. -1.
         11    1    1    2    0    0  0.60839615719E-01 -0.34137181014E+00  0.13348661428E+01  0.13791678839E+01  0.51100000000E-03 0.  1.
    9000002    1    1    2    0    0  0.45626527214E+00  0.75764400226E+00  0.66336649326E+00  0.14498625925E+01  0.93800000000E+00 0. -1.
         22    1    1    2    0    0 -0.51710488786E+00 -0.41627219212E+00  0.20017673313E+01  0.21089695236E+01  0.00000000000E+00 0.  1.
</event>
<event>
 5    1  0.8240609E+001  0.1567612E+01  0.7818608E-02  0.3389284E+00
         11   -1    0    0    0    0  0.00000000000E+00  0.00000000000E+00  0.39999999674E+01  0.40000000000E+01  0.51100000000E-03 0. -1.
    9000002   -1    0    0    0    0 -0.00000000000E+00 -0.00000000000E+00  0.00000000000E+00  0.93800000000E+00  0.93800000000E+00 0. -1.
         11    1    1    2    0    0  0.73387436275E-01  0.20927318184E-01  0.91344893614E+00  0.91663127183E+00  0.51100000000E-03 0. -1.
    9000002    1    1    2    0    0  0.44094310825E+00  0.96698058768E-01  0.16670550582E+00  0.10542371958E+01  0.93800000000E+00 0. -1.
         22    1    1    2    0    0 -0.51433054452E+00 -0.11762537695E+00  0.29198455254E+01  0.29671315324E+01  0.00000000000E+00 0. -1.
</event>
<event>
 5    1  0.8240609E+001  0.1599677E+01  0.7818608E-02  0.3353714E+00
         11   -1    0    0    0    0  0.00000000000E+00  0.00000000000E+00  0.39999999674E+01  0.40000000000E+01  0.51100000000E-03 0. -1.
    9000002   -1    0    0    0    0 -0.00000000000E+00 -0.00000000000E+00  0.00000000000E+00  0.93800000000E+00  0.93800000000E+00 0.  1.
         11    1    1    2    0    0 -0.96963958793E-01 -0.16419252763E-01  0.10858516828E+01  0.10902961705E+01  0.51100000000E-03 0. -1.
    9000002    1    1    2    0    0  0.34953283029E+00  0.57656047157E-01  0.84187258798E-01  0.10061952662E+01  0.93800000000E+00 0.  1.
         22    1    1    2    0    0 -0.25256887150E+00 -0.41236794394E-01  0.28299610258E+01  0.28415085633E+01  0.00000000000E+00 0. -1.
</event>
<event>
 5    1  0.8240609E+001  0.1599465E+01  0.7818608E-02  0.3353944E+00
         11   -1    0    0    0    0  0.00000000000E+00  0.00000000000E+00  0.39999999674E+01  0.40000000000E+01  0.51100000000E-03 0. -1.
    9000002   -1    0    0    0    0 -0.00000000000E+00 -0.00000000000E+00  0.00000000000E+00  0.93800000000E+00  0.93800000000E+00 0. -1.
         11    1    1    2    0    0  0.38326022571E-02  0.58948045079E-02  0.14354644714E+00  0.14371945299E+00  0.51100000000E-03 0. -1.
    9000002    1    1    2    0    0 -0.12216427957E+00 -0.33909895393E+00  0.87380938215E-01  0.10086583367E+01  0.93800000000E+00 0. -1.
         22    1    1    2    0    0  0.11833167732E+00  0.33320414942E+00  0.37690725820E+01  0.37856222103E+01  0.00000000000E+00 0. -1.
</event>
<event>
 5    1  0.8240609E+001  0.1598710E+01  0.7818608E-02  0.3354765E+00
         11   -1    0    0    0    0  0.00000000000E+00  0.00000000000E+00  0.39999999674E+01  0.40000000000E+01  0.51100000000E-03 0. -1.
    9000002   -1    0    0    0    0 -0.00000000000E+00 -0.00000000000E+00  0.00000000000E+00  0.93800000000E+00  0.93800000000E+00 0. -1.
         11    1    1    2    0    0 -0.59350595522E-02 -0.13709869701E-02  0.25081353557E+00  0.25088801343E+00  0.51100000000E-03 0. -1.
    9000002    1    1    2    0    0  0.30485453193E+00 -0.17109528976E+00  0.82718328197E-01  0.10044382538E+01  0.93800000000E+00 0. -1.
         22    1    1    2    0    0 -0.29891947238E+00  0.17246627673E+00  0.36664681036E+01  0.36826737328E+01  0.00000000000E+00 0. -1.
</event>
<event>
 5    1  0.8240609E+001  0.1551729E+01  0.7818608E-02  0.3407482E+00
         11   -1    0    0    0    0  0.00000000000E+00  0.00000000000E+00  0.39999999674E+01  0.40000000000E+01  0.51100000000E-03 0. -1.
    9000002   -1    0    0    0    0 -0.00000000000E+00 -0.00000000000E+00  0.00000000000E+00  0.93800000000E+00  0.93800000000E+00 0. -1.
         11    1    1    2    0    0  0.42407045057E-01 -0.10199601407E+00  0.14317289832E+00  0.18083219927E+00  0.51100000000E-03 0. -1.
    9000002    1    1    2    0    0  0.39970257395E+00  0.32438232668E+00  0.22702884487E+00  0.10937879767E+01  0.93800000000E+00 0. -1.
         22    1    1    2    0    0 -0.44210961901E+00 -0.22238631261E+00  0.36297982242E+01  0.36633798241E+01  0.00000000000E+00 0. -1.
</event>
<event>
 5    1  0.8240609E+001  0.1599523E+01  0.7818608E-02  0.3353881E+00
         11   -1    0    0    0    0  0.00000000000E+00  0.00000000000E+00  0.39999999674E+01  0.40000000000E+01  0.51100000000E-03 0. -1.
    9000002   -1    0    0    0    0 -0.00000000000E+00 -0.00000000000E+00  0.00000000000E+00  0.93800000000E+00  0.93800000000E+00 0. -1.
         11    1    1    2    0    0 -0.14062363820E+00  0.31521929568E-01  0.10766525355E+01  0.10862548425E+01  0.51100000000E-03 0. -1.
    9000002    1    1    2    0    0  0.49671716169E+00 -0.64457895811E-01  0.17190747480E+00  0.10771624478E+01  0.93800000000E+00 0. -1.
         22    1    1    2    0    0 -0.35609352349E+00  0.32935966242E-01  0.27514399571E+01  0.27745827097E+01  0.00000000000E+00 0. -1.
</event>
<event>
 5    1  0.8240609E+001  0.1599674E+01  0.7818608E-02  0.3353717E+00
         11   -1    0    0    0    0  0.00000000000E+00  0.00000000000E+00  0.39999999674E+01  0.40000000000E+01  0.51100000000E-03 0.  1.
    9000002   -1    0    0    0    0 -0.00000000000E+00 -0.00000000000E+00  0.00000000000E+00  0.93800000000E+00  0.93800000000E+00 0. -1.
         11    1    1    2    0    0 -0.56384022712E-01  0.22345962174E-01  0.67921591683E+00  0.68191863359E+00  0.51100000000E-03 0.  1.
    9000002    1    1    2    0    0  0.33187877793E+00 -0.13440207923E+00  0.86044310450E-01  0.10076979039E+01  0.93800000000E+00 0. -1.
         22    1    1    2    0    0 -0.27549475521E+00  0.11205611706E+00  0.32347397401E+01  0.32483834625E+01  0.00000000000E+00 0.  1.
</event>
<event>
 5    1  0.8240609E+001  0.1599258E+01  0.7818608E-02  0.3354169E+00
         11   -1    0    0    0    0  0.00000000000E+00  0.00000000000E+00  0.39999999674E+01  0.40000000000E+01  0.51100000000E-03 0. -1.
    9000002   -1    0    0    0    0 -0.00000000000E+00 -0.00000000000E+00  0.00000000000E+00  0.93800000000E+00  0.93800000000E+00 0. -1.
         11    1    1    2    0    0  0.11573492783E+00 -0.48680920356E-01  0.13366004182E+01  0.13424847651E+01  0.51100000000E-03 0. -1.
    9000002    1    1    2    0    0 -0.30305636187E+00  0.20077688897E+00  0.89086188702E-01  0.10099182475E+01  0.93800000000E+00 0. -1.
         22    1    1    2    0    0  0.18732143403E+00 -0.15209596862E+00  0.25743133605E+01  0.25855969874E+01  0.00000000000E+00 0.  1.
</event>
<event>
 5    1  0.8240609E+001  0.1599675E+01  0.7818608E-02  0.3353717E+00
         11   -1    0    0    0    0  0.00000000000E+00  0.00000000000E+00  0.39999999674E+01  0.40000000000E+01  0.51100000000E-03 0. -1.
    9000002   -1    0    0    0    0 -0.00000000000E+00 -0.00000000000E+00  0.00000000000E+00  0.93800000000E+00  0.93800000000E+00 0. -1.
         11    1    1    2    0    0 -0.39601583400E-01 -0.28901114995E-01  0.55161593276E+00  0.55379053644E+00  0.51100000000E-03 0. -1.
    9000002    1    1    2    0    0  0.28460287320E+00  0.21304719130E+00  0.84798238309E-01  0.10066889502E+01  0.93800000000E+00 0. -1.
         22    1    1    2    0    0 -0.24500128980E+00 -0.18414607630E+00  0.33635857963E+01  0.33775205134E+01  0.00000000000E+00 0. -1.
</event>
<event>
 5    1  0.8240609E+001  0.1599610E+01  0.7818608E-02  0.3353787E+00
         11   -1    0    0    0    0  0.00000000000E+00  0.00000000000E+00  0.39999999674E+01  0.40000000000E+01  0.51100000000E-03 0. -1.
    9000002   -1    0    0    0    0 -0.00000000000E+00 -0.00000000000E+00  0.00000000000E+00  0.93800000000E+00  0.93800000000E+00 0. -1.
         11    1    1    2    0    0  0.58661698544E-02  0.13048579847E+00  0.13097040557E+01  0.13162013259E+01  0.51100000000E-03 0. -1.
    9000002    1    1    2    0    0 -0.45142752119E-01 -0.38884531176E+00  0.10330604509E+00  0.10216431292E+01  0.93800000000E+00 0. -1.
         22    1    1    2    0    0  0.39276582265E-01  0.25835951329E+00  0.25869898665E+01  0.26001555449E+01  0.00000000000E+00 0. -1.
</event>
<event>
 5    1  0.8240609E+001  0.1599330E+01  0.7818608E-02  0.3354090E+00
         11   -1    0    0    0    0  0.00000000000E+00  0.00000000000E+00  0.39999999674E+01  0.40000000000E+01  0.51100000000E-03 0. -1.
    9000002   -1    0    0    0    0 -0.00000000000E+00 -0.00000000000E+00  0.00000000000E+00  0.93800000000E+00  0.93800000000E+00 0.  1.
         11    1    1    2    0    0  0.14323279850E+00 -0.53877114713E-01  0.13952885219E+01  0.14036554772E+01  0.51100000000E-03 0. -1.
    9000002    1    1    2    0    0 -0.44276607029E+00  0.18360028133E+00  0.15705302090E+00  0.10650166701E+01  0.93800000000E+00 0.  1.
         22    1    1    2    0    0  0.29953327179E+00 -0.12972316662E+00  0.24476584246E+01  0.24693278527E+01  0.00000000000E+00 0.  1.
</event>
<event>
 5    1  0.8240609E+001  0.1575911E+01  0.7818608E-02  0.3379931E+00
         11   -1    0    0    0    0  0.00000000000E+00  0.00000000000E+00  0.39999999674E+01  0.40000000000E+01  0.51100000000E-03 0. -1.
    9000002   -1    0    0    0    0 -0.00000000000E+00 -0.00000000000E+00  0.00000000000E+00  0.93800000000E+00  0.93800000000E+00 0. -1.
         11    1    1    2    0    0 -0.33931604588E-01 -0.45034183896E-02  0.31950481804E-01  0.46826584069E-01  0.51100000000E-03 0. -1.
    9000002    1    1    2    0    0 -0.29875242593E+00  0.19086381528E+00  0.10375785652E+00  0.10081129405E+01  0.93800000000E+00 0. -1.
         22    1    1    2    0    0  0.33268403052E+00 -0.18636039689E+00  0.38642916290E+01  0.38830604754E+01  0.00000000000E+00 0. -1.
</event>
<event>
 5    1  0.8240609E+001  0.1555101E+01  0.7818608E-02  0.3403585E+00
         11   -1    0    0    0    0  0.00000000000E+00  0.00000000000E+00  0.39999999674E+01  0.40000000000E+01  0.51100000000E-03 0.  1.
    9000002   -1    0    0    0    0 -0.00000000000E+00 -0.00000000000E+00  0.00000000000E+00  0.93800000000E+00  0.93800000000E+00 0. -1.
         11    1    1    2    0    0  0.16017210352E+00 -0.19554839570E+00  0.13517304792E+01  0.13751617459E+01  0.51100000000E-03 0.  1.
    9000002    1    1    2    0    0 -0.17853746292E+00 -0.71910143325E-01  0.58606781599E-01  0.95933594180E+00  0.93800000000E+00 0. -1.
         22    1    1    2    0    0  0.18365359400E-01  0.26745853902E+00  0.25896627065E+01  0.26035023123E+01  0.00000000000E+00 0.  1.
</event>
<event>
 5    1  0.8240609E+001  0.1508749E+01  0.7818608E-02  0.3458777E+00
         11   -1    0    0    0    0  0.00000000000E+00  0.00000000000E+00  0.39999999674E+01  0.40000000000E+01  0.51100000000E-03 0.  1.
    9000002   -1    0    0    0    0 -0.00000000000E+00 -0.00000000000E+00  0.00000000000E+00  0.93800000000E+00  0.93800000000E+00 0.  1.
         11    1    1    2    0    0  0.31685706517E+00 -0.46476625499E-01  0.29901680466E+00  0.43814356900E+00  0.51100000000E-03 0.  1.
    9000002    1    1    2    0    0  0.87413730388E-01  0.21635877266E+00  0.21993399392E+00  0.99129573814E+00  0.93800000000E+00 0.  1.
         22    1    1    2    0    0 -0.40427079556E+00 -0.16988214716E+00  0.34810491688E+01  0.35085606929E+01  0.00000000000E+00 0.  1.
</event>
<event>
 5    1  0.8240609E+001  0.1599516E+01  0.7818608E-02  0.3353889E+00
         11   -1    0    0    0    0  0.00000000000E+00  0.00000000000E+00  0.39999999674E+01  0.40000000000E+01  0.51100000000E-03 0.  1.
    9000002   -1    0    0    0    0 -0.00000000000E+00 -0.00000000000E+00  0.00000000000E+00  0.93800000000E+00  0.93800000000E+00 0.  1.
         11    1    1    2    0    0  0.11864188764E-01 -0.12113933334E-02  0.13565343432E+00  0.13617761127E+00  0.51100000000E-03 0.  1.
    9000002    1    1    2    0    0 -0.49161279481E+00  0.66684687141E-01  0.16852515596E+00  0.10744183150E+01  0.93800000000E+00 0.  1.
         22    1    1    2    0    0  0.47974860604E+00 -0.65473293807E-01  0.36958213771E+01  0.37274040737E+01  0.00000000000E+00 0.  1.
</event>
<event>
 5    1  0.8240609E+001  0.1588049E+01  0.7818608E-02  0.3366438E+00
         11   -1    0    0    0    0  0.00000000000E+00  0.00000000000E+00  0.39999999674E+01  0.40000000000E+01  0.51100000000E-03 0. -1.
    9000002   -1    0    0    0    0 -0.00000000000E+00 -0.00000000000E+00  0.00000000000E+00  0.93800000000E+00  0.93800000000E+00 0.  1.
         11    1    1    2    0    0  0.19203417117E+00  0.47249864254E-01  0.96307301820E+00  0.98316813012E+00  0.51100000000E-03 0. -1.
    9000002    1    1    2    0    0 -0.32789679973E+00 -0.28686833573E+00  0.13864815693E+00  0.10434927239E+01  0.93800000000E+00 0.  1.
         22    1    1    2    0    0  0.13586262856E+00  0.23961847148E+00  0.28982787922E+01  0.29113391460E+01  0.00000000000E+00 0. -1.
</event>
<event>
 5    1  0.8240609E+001  0.1593974E+01  0.7818608E-02  0.3359930E+00
         11   -1    0    0    0    0  0.00000000000E+00  0.00000000000E+00  0.39999999674E+01  0.40000000000E+01  0.51100000000E-03 0.  1.
    9000002   -1    0    0    0    0 -0.00000000000E+00 -0.00000000000E+00  0.00000000000E+00  0.93800000000E+00  0.93800000000E+00 0.  1.
         11    1    1    2    0    0  0.21975630527E-01 -0.11783022721E+00  0.68515642744E+00  0.69556199003E+00  0.51100000000E-03 0.  1.
    9000002    1    1    2    0    0  0.22554861446E+00  0.76142187402E+00  0.47097713091E+00  0.13161682664E+01  0.93800000000E+00 0.  1.
         22    1    1    2    0    0 -0.24752424499E+00 -0.64359164681E+00  0.28438664090E+01  0.29262697435E+01  0.00000000000E+00 0.  1.
</event>
<event>
 5    1  0.8240609E+001  0.1560557E+01  0.7818608E-02  0.3397318E+00
         11   -1    0    0    0    0  0.00000000000E+00  0.00000000000E+00  0.39999999674E+01  0.40000000000E+01  0.51100000000E-03 0.  1.
    9000002   -1    0    0    0    0 -0.00000000000E+00 -0.00000000000E+00  0.00000000000E+00  0.93800000000E+00  0.93800000000E+00 0. -1.
         11    1    1    2    0    0  0.18192913907E+00  0.37955591643E-01  0.10815429624E+01  0.10973943135E+01  0.51100000000E-03 0.  1.
    9000002    1    1    2    0    0  0.67932346801E-01  0.11578514116E+00  0.41222841732E-01  0.94845364955E+00  0.93800000000E+00 0. -1.
         22    1    1    2    0    0 -0.24986148587E+00 -0.15374073280E+00  0.28772341632E+01  0.28921520369E+01  0.00000000000E+00 0.  1.
</event>
<event>
 5    1  0.8240609E+001  0.1599670E+01  0.7818608E-02  0.3353722E+00
         11   -1    0    0    0    0  0.00000000000E+00  0.00000000000E+00  0.39999999674E+01  0.40000000000E+01  0.51100000000E-03 0.  1.
    9000002   -1    0    0    0    0 -0.00000000000E+00 -0.00000000000E+00  0.00000000000E+00  0.93800000000E+00  0.93800000000E+00 0.  1.
         11    1    1    2    0    0 -0.22886989366E-01  0.12579758451E-01  0.24491452349E+00  0.24630357192E+00  0.51100000000E-03 0.  1.
    9000002    1    1    2    0    0  0.35851073608E+00 -0.17604663105E+00  0.10759901402E+00  0.10251555550E+01  0.93800000000E+00 0.  1.
         22    1    1    2    0    0 -0.33562374671E+00  0.16346687260E+00  0.36474864299E+01  0.36665408730E+01  0.00000000000E+00 0.  1.
</event>
<event>
 5    1  0.8240609E+001  0.1599673E+01  0.7818608E-02  0.3353718E+00
         11   -1    0    0    0    0  0.00000000000E+00  0.00000000000E+00  0.39999999674E+01  0.40000000000E+01  0.51100000000E-03 0.  1.
    9000002   -1    0    0    0    0 -0.00000000000E+00 -0.00000000000E+00  0.00000000000E+00  0.93800000000E+00  0.93800000000E+00 0. -1.
         11    1    1    2    0    0 -0.69045820155E-01  0.16372862871E-01  0.78942912272E+00  0.79261213518E+00  0.51100000000E-03 0.  1.
    9000002    1    1    2    0    0  0.35043655794E+00 -0.77598817199E-01  0.86469226308E-01  0.10080418070E+01  0.93800000000E+00 0. -1.
         22    1    1    2    0    0 -0.28139073779E+00  0.61225954328E-01  0.31241016183E+01  0.31373460578E+01  0.00000000000E+00 0.  1.
</event>
<event>
 5    1  0.8240609E+001  0.1599637E+01  0.7818608E-02  0.3353757E+00
         11   -1    0    0    0    0  0.00000000000E+00  0.00000000000E+00  0.39999999674E+01  0.40000000000E+01  0.51100000000E-03 0. -1.
    9000002   -1    0    0    0    0 -0.00000000000E+00 -0.00000000000E+00  0.00000000000E+00  0.93800000000E+00  0.93800000000E+00 0.  1.
         11    1    1    2    0    0  0.88479937999E-01 -0.13716869774E+00  0.11634672192E+01  0.11748617716E+01  0.51100000000E-03 0. -1.
    9000002    1    1    2    0    0 -0.29132951306E+00  0.46946145359E+00  0.21098651135E+00  0.11088851381E+01  0.93800000000E+00 0.  1.
         22    1    1    2    0    0  0.20284957506E+00 -0.33229275584E+00  0.26255462368E+01  0.26542530902E+01  0.00000000000E+00 0. -1.
</event>
<event>
 5    1  0.8240609E+001  0.1481488E+01  0.7818608E-02  0.3492972E+00
         11   -1    0    0    0    0  0.00000000000E+00  0.00000000000E+00  0.39999999674E+01  0.40000000000E+01  0.51100000000E-03 0. -1.
    9000002   -1    0    0    0    0 -0.00000000000E+00 -0.00000000000E+00  0.00000000000E+00  0.93800000000E+00  0.93800000000E+00 0. -1.
         11    1    1    2    0    0 -0.25734001351E+00 -0.21601686109E-01  0.17348192450E+00  0.31110569690E+00  0.51100000000E-03 0. -1.
    9000002    1    1    2    0    0  0.56852081770E-01  0.41339461146E+00  0.29516255399E+00  0.10682191710E+01  0.93800000000E+00 0. -1.
         22    1    1    2    0    0  0.20048793174E+00 -0.39179292535E+00  0.35313554889E+01  0.35586751321E+01  0.00000000000E+00 0. -1.
</event>
<event>
 5    1  0.8240609E+001  0.1599353E+01  0.7818608E-02  0.3354066E+00
         11   -1    0    0    0    0  0.00000000000E+00  0.00000000000E+00  0.39999999674E+01  0.40000000000E+01  0.51100000000E-03 0. -1.
    9000002   -1    0    0    0    0 -0.00000000000E+00 -0.00000000000E+00  0.00000000000E+00  0.93800000000E+00  0.93800000000E+00 0.  1.
         11    1    1    2    0    0  0.10040209883E+00  0.52636985808E-01  0.13935329951E+01  0.13981365109E+01  0.51100000000E-03 0. -1.
    9000002    1    1    2    0    0 -0.33053320546E+00 -0.11513947467E+00  0.82404944198E-01  0.10045615329E+01  0.93800000000E+00 0.  1.
         22    1    1    2    0    0  0.23013110663E+00  0.62502488860E-01  0.25240620281E+01  0.25353019562E+01  0.00000000000E+00 0. -1.
</event>
<event>
 5    1  0.8240609E+001  0.1598961E+01  0.7818608E-02  0.3354492E+00
         11   -1    0    0    0    0  0.00000000000E+00  0.00000000000E+00  0.39999999674E+01  0.40000000000E+01  0.51100000000E-03 0.  1.
    9000002   -1    0    0    0    0 -0.00000000000E+00 -0.00000000000E+00  0.00000000000E+00  0.93800000000E+00  0.93800000000E+00 0.  1.
         11    1    1    2    0    0 -0.17769386525E-01 -0.10182937794E+00  0.13498536801E+01  0.13538058177E+01  0.51100000000E-03 0.  1.
    9000002    1    1    2    0    0  0.71982464099E-01  0.38053110347E+00  0.10159704971E+00  0.10198781086E+01  0.93800000000E+00 0.  1.
         22    1    1    2    0    0 -0.54213077575E-01 -0.27870172553E+00  0.25485492376E+01  0.25643160737E+01  0.00000000000E+00 0.  1.
</event>
<event>
 5    1  0.8240609E+001  0.1597664E+01  0.7818608E-02  0.3355903E+00
         11   -1    0    0    0    0  0.00000000000E+00  0.00000000000E+00  0.39999999674E+01  0.40000000000E+01  0.51100000000E-03 0. -1.
    9000002   -1    0    0    0    0 -0.00000000000E+00 -0.00000000000E+00  0.00000000000E+00  0.93800000000E+00  0.93800000000E+00 0.  1.
         11    1    1    2    0    0  0.94052260348E-01  0.14171222113E+00  0.92102572906E+00  0.93659854580E+00  0.51100000000E-03 0. -1.
    9000002    1    1    2    0    0 -0.25758661985E+00 -0.44575796242E+00  0.18374299856E+00  0.10856594850E+01  0.93800000000E+00 0.  1.
         22    1    1    2    0    0  0.16353435951E+00  0.30404574129E+00  0.28952312397E+01  0.29157419692E+01  0.00000000000E+00 0. -1.
</event>
<event>
 5    1  0.8240609E+001  0.1599673E+01  0.7818608E-02  0.3353718E+00
         11   -1    0    0    0    0  0.00000000000E+00  0.00000000000E+00  0.39999999674E+01  0.40000000000E+01  0.51100000000E-03 0.  1.
    9000002   -1    0    0    0    0 -0.00000000000E+00 -0.00000000000E+00  0.00000000000E+00  0.93800000000E+00  0.93800000000E+00 0.  1.
         11    1    1    2    0    0  0.76951340722E-01 -0.63067518618E-01  0.11114540042E+01  0.11158984207E+01  0.51100000000E-03 0.  1.
    9000002    1    1    2    0    0 -0.27037233120E+00  0.22959250184E+00  0.84406708965E-01  0.10063709092E+01  0.93800000000E+00 0.  1.
         22    1    1    2    0    0  0.19342099048E+00 -0.16652498322E+00  0.28041392542E+01  0.28157306701E+01  0.00000000000E+00 0.  1.
</event>
<event>
 5    1  0.8240609E+001  0.1599347E+01  0.7818608E-02  0.3354072E+00
         11   -1    0    0    0    0  0.00000000000E+00  0.00000000000E+00  0.39999999674E+01  0.40000000000E+01  0.51100000000E-03 0.  1.
    9000002   -1    0    0    0    0 -0.00000000000E+00 -0.00000000000E+00  0.00000000000E+00  0.93800000000E+00  0.93800000000E+00 0. -1.
         11    1    1    2    0    0 -0.15735575905E-01  0.77537383245E-01  0.71969098801E+00  0.72402695633E+00  0.51100000000E-03 0.  1.
    9000002    1    1    2    0    0  0.15691054507E+00 -0.36226181734E+00  0.10533073581E+00  0.10231290766E+01  0.93800000000E+00 0. -1.
         22    1    1    2    0    0 -0.14117496916E+00  0.28472443410E+00  0.31749782435E+01  0.31908439671E+01  0.00000000000E+00 0.  1.
</event>
<event>
 5    1  0.8240609E+001  0.1599666E+01  0.7818608E-02  0.3353726E+00
         11   -1    0    0    0    0  0.00000000000E+00  0.00000000000E+00  0.39999999674E+01  0.40000000000E+01  0.51100000000E-03 0.  1.
    9000002   -1    0    0    0    0 -0.00000000000E+00 -0.00000000000E+00  0.00000000000E+00  0.93800000000E+00  0.93800000000E+00 0. -1.
         11    1    1    2    0    0  0.83788124084E-01  0.78544537053E-01  0.94731504398E+00  0.95425140697E+00  0.51100000000E-03 0.  1.
    9000002    1    1    2    0    0 -0.33863304159E+00 -0.33262537614E+00  0.15361423641E+00  0.10624280264E+01  0.93800000000E+00 0. -1.
         22    1    1    2    0    0  0.25484491751E+00  0.25408083909E+00  0.28990706870E+01  0.29213205666E+01  0.00000000000E+00 0.  1.
</event>
<event>
 5    1  0.8240609E+001  0.1599633E+01  0.7818608E-02  0.3353762E+00
         11   -1    0    0    0    0  0.00000000000E+00  0.00000000000E+00  0.39999999674E+01  0.40000000000E+01  0.51100000000E-03 0. -1.
    9000002   -1    0    0    0    0 -0.00000000000E+00 -0.00000000000E+00  0.00000000000E+00  0.93800000000E+00  0.93800000000E+00 0.  1.
         11    1    1    2    0    0 -0.14482590905E-01  0.85615653440E-01  0.77330737520E+00  0.77816729770E+00  0.51100000000E-03 0. -1.
    9000002    1    1    2    0    0  0.94103139295E-01 -0.40593873373E+00  0.11741943329E+00  0.10330890473E+01  0.93800000000E+00 0.  1.
         22    1    1    2    0    0 -0.79620548390E-01  0.32032308029E+00  0.31092731589E+01  0.31267436550E+01  0.00000000000E+00 0. -1.
</event>
<event>
 5    1  0.8240609E+001  0.1599661E+01  0.7818608E-02  0.3353731E+00
         11   -1    0    0    0    0  0.00000000000E+00  0.00000000000E+00  0.39999999674E+01  0.40000000000E+01  0.51100000000E-03 0. -1.
    9000002   -1    0    0    0    0 -0.00000000000E+00 -0.00000000000E+00  0.00000000000E+00  0.93800000000E+00  0.93800000000E+00 0. -1.
         11    1    1    2    0    0  0.13389144520E+00 -0.83811806505E-01  0.13977828098E+01  0.14066799147E+01  0.51100000000E-03 0. -1.
    9000002    1    1    2    0    0 -0.38275501938E+00  0.22896515335E+00  0.13504247641E+00  0.10473809798E+01  0.93800000000E+00 0. -1.
         22    1    1    2    0    0  0.24886357417E+00 -0.14515334684E+00  0.24671746811E+01  0.24839391055E+01  0.00000000000E+00 0. -1.
</event>
<event>
 5    1  0.8240609E+001  0.1598878E+01  0.7818608E-02  0.3354582E+00
         11   -1    0    0    0    0  0.00000000000E+00  0.00000000000E+00  0.39999999674E+01  0.40000000000E+01  0.51100000000E-03 0.  1.
    9000002   -1    0    0    0    0 -0.00000000000E+00 -0.00000000000E+00  0.00000000000E+00  0.93800000000E+00  0.93800000000E+00 0. -1.
         11    1    1    2    0    0 -0.12300235369E-01  0.19609661340E-01  0.16579625716E+00  0.16740518097E+00  0.51100000000E-03 0.  1.
    9000002    1    1    2    0    0  0.56538510698E+00 -0.50842924879E+00  0.42143022226E+00  0.12789089305E+01  0.93800000000E+00 0. -1.
         22    1    1    2    0    0 -0.55308487162E+00  0.48881958745E+00  0.34127734879E+01  0.34916858885E+01  0.00000000000E+00 0.  1.
</event>
<event>
 5    1  0.8240609E+001  0.1571852E+01  0.7818608E-02  0.3384493E+00
         11   -1    0    0    0    0  0.00000000000E+00  0.00000000000E+00  0.39999999674E+01  0.40000000000E+01  0.51100000000E-03 0.  1.
    9000002   -1    0    0    0    0 -0.00000000000E+00 -0.00000000000E+00  0.00000000000E+00  0.93800000000E+00  0.93800000000E+00 0.  1.
         11    1    1    2    0    0 -0.11570398526E+00 -0.11994006601E-01  0.12160723428E+01  0.12216232940E+01  0.51100000000E-03 0.  1.
    9000002    1    1    2    0    0 -0.20181402263E+00 -0.12984261052E+00  0.59707535898E-01  0.97004999514E+00  0.93800000000E+00 0.  1.
         22    1    1    2    0    0  0.31751800789E+00  0.14183661712E+00  0.27242200886E+01  0.27463267108E+01  0.00000000000E+00 0.  1.
</event>
<event>
 5    1  0.8240609E+001  0.1599192E+01  0.7818608E-02  0.3354241E+00
         11   -1    0    0    0    0  0.00000000000E+00  0.00000000000E+00  0.39999999674E+01  0.40000000000E+01  0.51100000000E-03 0.  1.
    9000002   -1    0    0    0    0 -0.00000000000E+00 -0.00000000000E+00  0.00000000000E+00  0.93800000000E+00  0.93800000000E+00 0. -1.
         11    1    1    2    0    0  0.44264363219E-01  0.94554157239E-01  0.89413410192E+00  0.90020879569E+00  0.51100000000E-03 0.  1.
    9000002    1    1    2    0    0 -0.22013943744E+00 -0.31871613410E+00  0.10144502285E+00  0.10198904052E+01  0.93800000000E+00 0. -1.
         22    1    1    2    0    0  0.17587507423E+00  0.22416197687E+00  0.30044208426E+01  0.30179007991E+01  0.00000000000E+00 0.  1.
</event>
<event>
 5    1  0.8240609E+001  0.1595052E+01  0.7818608E-02  0.3358751E+00
         11   -1    0    0    0    0  0.00000000000E+00  0.00000000000E+00  0.39999999674E+01  0.40000000000E+01  0.51100000000E-03 0. -1.
    9000002   -1    0    0    0    0 -0.00000000000E+00 -0.00000000000E+00  0.00000000000E+00  0.93800000000E+00  0.93800000000E+00 0. -1.
         11    1    1    2    0    0 -0.37746234310E-01 -0.11101120563E+00  0.12523920201E+01  0.12578689515E+01  0.51100000000E-03 0. -1.
    9000002    1    1    2    0    0  0.32054826849E+00  0.22171604423E+00  0.10616374986E+00  0.10212854344E+01  0.93800000000E+00 0. -1.
         22    1    1    2    0    0 -0.28280203418E+00 -0.11070483860E+00  0.26414441974E+01  0.26588456141E+01  0.00000000000E+00 0. -1.
</event>
<event>
 5    1  0.8240609E+001  0.1599676E+01  0.7818608E-02  0.3353715E+00
         11   -1    0    0    0    0  0.00000000000E+00  0.00000000000E+00  0.39999999674E+01  0.40000000000E+01  0.51100000000E-03 0. -1.
    9000002   -1    0    0    0    0 -0.00000000000E+00 -0.00000000000E+00  0.00000000000E+00  0.93800000000E+00  0.93800000000E+00 0. -1.
         11    1    1    2    0    0 -0.30647194703E-01  0.10982502166E+00  0.38623575895E+00  0.40271467386E+00  0.51100000000E-03 0. -1.
    9000002    1    1    2    0    0  0.26279411452E+00 -0.92984448754E+00  0.73744656727E+00  0.15353641123E+01  0.93800000000E+00 0. -1.
         22    1    1    2    0    0 -0.23214691981E+00  0.82001946587E+00  0.28763176411E+01  0.29999212139E+01  0.00000000000E+00 0. -1.
</event>
<event>
 5    1  0.8240609E+001  0.1546962E+01  0.7818608E-02  0.3413020E+00
         11   -1    0    0    0    0  0.00000000000E+00  0.00000000000E+00  0.39999999674E+01  0.40000000000E+01  0.51100000000E-03 0.  1.
    9000002   -1    0    0    0    0 -0.00000000000E+00 -0.00000000000E+00  0.00000000000E+00  0.93800000000E+00  0.93800000000E+00 0. -1.
         11    1    1    2    0    0 -0.21954527149E-01 -0.62547800804E-01  0.32796022146E-01  0.73959913720E-01  0.51100000000E-03 0.  1.
    9000002    1    1    2    0    0 -0.43626580449E+00  0.28015388232E+00  0.23460721422E+00  0.10971319861E+01  0.93800000000E+00 0. -1.
         22    1    1    2    0    0  0.45822033164E+00 -0.21760608152E+00  0.37325967310E+01  0.37669081002E+01  0.00000000000E+00 0.  1.
</event>
<event>
 5    1  0.8240609E+001  0.1599676E+01  0.7818608E-02  0.3353715E+00
         11   -1    0    0    0    0  0.00000000000E+00  0.00000000000E+00  0.39999999674E+01  0.40000000000E+01  0.51100000000E-03 0. -1.
    9000002   -1    0    0    0    0 -0.00000000000E+00 -0.00000000000E+00  0.00000000000E+00  0.93800000000E+00  0.93800000000E+00 0. -1.
         11    1    1    2    0    0  0.64446621144E-01 -0.20104623369E-02  0.62865837000E+00  0.63195649868E+00  0.51100000000E-03 0. -1.
    9000002    1    1    2    0    0 -0.39616081587E+00  0.15027516717E-01  0.10596624140E+00  0.10238369316E+01  0.93800000000E+00 0. -1.
         22    1    1    2    0    0  0.33171419473E+00 -0.13017054380E-01  0.32653753560E+01  0.32822065697E+01  0.00000000000E+00 0. -1.
</event>
<event>
 5    1  0.8240609E+001  0.1583267E+01  0.7818608E-02  0.3371727E+00
         11   -1    0    0    0    0  0.00000000000E+00  0.00000000000E+00  0.39999999674E+01  0.40000000000E+01  0.51100000000E-03 0.  1.
    9000002   -1    0    0    0    0 -0.00000000000E+00 -0.00000000000E+00  0.00000000000E+00  0.93800000000E+00  0.93800000000E+00 0.  1.
         11    1    1    2    0    0 -0.24807462253E-01  0.92929401601E-01  0.11767511716E+01  0.11806755968E+01  0.51100000000E-03 0.  1.
    9000002    1    1    2    0    0  0.57684509891E-01  0.16070991107E+00  0.31552121509E-01  0.95393643109E+00  0.93800000000E+00 0.  1.
         22    1    1    2    0    0 -0.32877047639E-01 -0.25363931267E+00  0.27916966742E+01  0.28033879721E+01  0.00000000000E+00 0.  1.
</event>
<event>
 5    1  0.8240609E+001  0.1599677E+01  0.7818608E-02  0.3353715E+00
         11   -1    0    0    0    0  0.00000000000E+00  0.00000000000E+00  0.39999999674E+01  0.40000000000E+01  0.51100000000E-03 0.  1.
    9000002   -1    0    0    0    0 -0.00000000000E+00 -0.00000000000E+00  0.00000000000E+00  0.93800000000E+00  0.93800000000E+00 0.  1.
         11    1    1    2    0    0  0.48854924103E-01 -0.15578640005E+00  0.14395251449E+01  0.14487543305E+01  0.51100000000E-03 0.  1.
    9000002    1    1    2    0    0 -0.13127021097E+00  0.42078539851E+00  0.13178361621E+00  0.10447502770E+01  0.93800000000E+00 0.  1.
         22    1    1    2    0    0  0.82415286866E-01 -0.26499899846E+00  0.24286912062E+01  0.24444953925E+01  0.00000000000E+00 0.  1.
</event>
<event>
 5    1  0.8240609E+001  0.1598109E+01  0.7818608E-02  0.3355418E+00
         11   -1    0    0    0    0  0.00000000000E+00  0.00000000000E+00  0.39999999674E+01  0.40000000000E+01  0.51100000000E-03 0. -1.
    9000002   -1    0    0    0    0 -0.00000000000E+00 -0.00000000000E+00  0.00000000000E+00  0.93800000000E+00  0.93800000000E+00 0.  1.
         11    1    1    2    0    0  0.60206264626E-01 -0.13995724872E+00  0.10252758650E+01  0.10365344597E+01  0.51100000000E-03 0. -1.
    9000002    1    1    2    0    0 -0.17596204584E+00  0.37827884010E+00  0.11899300004E+00  0.10334702978E+01  0.93800000000E+00 0.  1.
         22    1    1    2    0    0  0.11575578122E+00 -0.23832159138E+00  0.28557311023E+01  0.28679952424E+01  0.00000000000E+00 0. -1.
</event>
<event>
 5    1  0.8240609E+001  0.1599468E+01  0.7818608E-02  0.3353941E+00
         11   -1    0    0    0    0  0.00000000000E+00  0.00000000000E+00  0.39999999674E+01  0.40000000000E+01  0.51100000000E-03 0. -1.
    9000002   -1    0    0    0    0 -0.00000000000E+00 -0.00000000000E+00  0.00000000000E+00  0.93800000000E+00  0.93800000000E+00 0.  1.
         11    1    1    2    0    0 -0.27233147181E+00  0.33362704966E-01  0.14719560545E+01  0.14973083811E+01  0.51100000000E-03 0. -1.
    9000002    1    1    2    0    0  0.65591800278E+00 -0.50526896508E-01  0.30619571336E+00  0.11859094436E+01  0.93800000000E+00 0.  1.
         22    1    1    2    0    0 -0.38358653097E+00  0.17164191542E-01  0.22218481995E+01  0.22547821753E+01  0.00000000000E+00 0. -1.
</event>
<event>
 5    1  0.8240609E+001  0.1555570E+01  0.7818608E-02  0.3403044E+00
         11   -1    0    0    0    0  0.00000000000E+00  0.00000000000E+00  0.39999999674E+01  0.40000000000E+01  0.51100000000E-03 0. -1.
    9000002   -1    0    0    0    0 -0.00000000000E+00 -0.00000000000E+00  0.00000000000E+00  0.93800000000E+00  0.93800000000E+00 0.  1.
         11    1    1    2    0    0 -0.73099029254E-01  0.22677633769E+00  0.53281358718E+00  0.58366219273E+00  0.51100000000E-03 0. -1.
    9000002    1    1    2    0    0  0.84023168788E+00 -0.31059639763E+00  0.68439219318E+00  0.14665251739E+01  0.93800000000E+00 0.  1.
         22    1    1    2    0    0 -0.76713265862E+00  0.83820059944E-01  0.27827941870E+01  0.28878126334E+01  0.00000000000E+00 0. -1.
</event>
<event>
 5    1  0.8240609E+001  0.1599642E+01  0.7818608E-02  0.3353752E+00
         11   -1    0    0    0    0  0.00000000000E+00  0.00000000000E+00  0.39999999674E+01  0.40000000000E+01  0.51100000000E-03 0. -1.
    9000002   -1    0    0    0    0 -0.00000000000E+00 -0.00000000000E+00  0.00000000000E+00  0.93800000000E+00  0.93800000000E+00 0. -1.
         11    1    1    2    0    0 -0.35995643714E-01  0.89160278664E-01  0.94642938003E+00  0.95130125311E+00  0.51100000000E-03 0. -1.
    9000002    1    1    2    0    0  0.12329484323E+00 -0.36518214922E+00  0.10005196935E+00  0.10190260139E+01  0.93800000000E+00 0. -1.
         22    1    1    2    0    0 -0.87299199515E-01  0.27602187056E+00  0.29535186180E+01  0.29676727330E+01  0.00000000000E+00 0. -1.
</event>
<event>
 5    1  0.8240609E+001  0.1598033E+01  0.7818608E-02  0.3355501E+00
         11   -1    0    0    0    0  0.00000000000E+00  0.00000000000E+00  0.39999999674E+01  0.40000000000E+01  0.51100000000E-03 0. -1.
    9000002   -1    0    0    0    0 -0.00000000000E+00 -0.00000000000E+00  0.00000000000E+00  0.93800000000E+00  0.93800000000E+00 0. -1.
         11    1    1    2    0    0 -0.22468130043E+00  0.10921713955E-02  0.87779242941E+00  0.90609198752E+00  0.51100000000E-03 0. -1.
    9000002    1    1    2    0    0  0.77798236390E+00  0.10910847431E+00  0.45452111529E+00  0.13052182430E+01  0.93800000000E+00 0. -1.
         22    1    1    2    0    0 -0.55330106348E+00 -0.11020064571E+00  0.26676864227E+01  0.27266897694E+01  0.00000000000E+00 0. -1.
</event>
<event>
 5    1  0.8240609E+001  0.1599672E+01  0.7818608E-02  0.3353719E+00
         11   -1    0    0    0    0  0.00000000000E+00  0.00000000000E+00  0.39999999674E+01  0.40000000000E+01  0.51100000000E-03 0. -1.
    9000002   -1    0    0    0    0 -0.00000000000E+00 -0.00000000000E+00  0.00000000000E+00  0.93800000000E+00  0.93800000000E+00 0.  1.
         11    1    1    2    0    0 -0.86466444561E-01  0.21412549149E-01  0.80265994861E+00  0.80758788842E+00  0.51100000000E-03 0. -1.
    9000002    1    1    2    0    0  0.42252573141E+00 -0.11176701036E+00  0.12949859528E+00  0.10428968043E+01  0.93800000000E+00 0.  1.
         22    1    1    2    0    0 -0.33605928685E+00  0.90354461214E-01  0.30678414235E+01  0.30875153072E+01  0.00000000000E+00 0. -1.
</event>
<event>
 5    1  0.8240609E+001  0.1585371E+01  0.7818608E-02  0.3369396E+00
         11   -1    0    0    0    0  0.00000000000E+00  0.00000000000E+00  0.39999999674E+01  0.40000000000E+01  0.51100000000E-03 0. -1.
    9000002   -1    0    0    0    0 -0.00000000000E+00 -0.00000000000E+00  0.00000000000E+00  0.93800000000E+00  0.93800000000E+00 0.  1.
         11    1    1    2    0    0 -0.13021549305E-01  0.41684105964E-01  0.56272402321E+00  0.56441625849E+00  0.51100000000E-03 0. -1.
    9000002    1    1    2    0    0  0.33176542250E+00  0.36609703142E+00  0.17986442774E+00  0.10753095110E+01  0.93800000000E+00 0.  1.
         22    1    1    2    0    0 -0.31874387320E+00 -0.40778113738E+00  0.32574115164E+01  0.32982742306E+01  0.00000000000E+00 0. -1.
</event>
<event>
 5    1  0.8240609E+001  0.1597871E+01  0.7818608E-02  0.3355677E+00
         11   -1    0    0    0    0  0.00000000000E+00  0.00000000000E+00  0.39999999674E+01  0.40000000000E+01  0.51100000000E-03 0. -1.
    9000002   -1    0    0    0    0 -0.00000000000E+00 -0.00000000000E+00  0.00000000000E+00  0.93800000000E+00  0.93800000000E+00 0.  1.
         11    1    1    2    0    0 -0.10001886985E+00 -0.87417473259E-02  0.83821033199E+00  0.84420199849E+00  0.51100000000E-03 0. -1.
    9000002    1    1    2    0    0  0.35224442259E+00 -0.11865152443E+00  0.94339162891E-01  0.10133598547E+01  0.93800000000E+00 0.  1.
         22    1    1    2    0    0 -0.25222555274E+00  0.12739327175E+00  0.30674504725E+01  0.30804381468E+01  0.00000000000E+00 0. -1.
</event>
<event>
 5    1  0.8240609E+001  0.1599510E+01  0.7818608E-02  0.3353896E+00
         11   -1    0    0    0    0  0.00000000000E+00  0.00000000000E+00  0.39999999674E+01  0.40000000000E+01  0.51100000000E-03 0. -1.
    9000002   -1    0    0    0    0 -0.00000000000E+00 -0.00000000000E+00  0.00000000000E+00  0.93800000000E+00  0.93800000000E+00 0. -1.
         11    1    1    2    0    0 -0.97905055839E-01 -0.71418768866E-01  0.13866806476E+01  0.13919660629E+01  0.51100000000E-03 0. -1.
    9000002    1    1    2    0    0  0.31607137315E+00  0.21232598726E+00  0.97697249439E-01  0.10170408990E+01  0.93800000000E+00 0. -1.
         22    1    1    2    0    0 -0.21816631731E+00 -0.14090721839E+00  0.25156220703E+01  0.25289930381E+01  0.00000000000E+00 0.  1.
</event>
<event>
 5    1  0.8240609E+001  0.1599668E+01  0.7818608E-02  0.3353724E+00
         11   -1    0    0    0    0  0.00000000000E+00  0.00000000000E+00  0.39999999674E+01  0.40000000000E+01  0.51100000000E-03 0.  1.
    9000002   -1    0    0    0    0 -0.00000000000E+00 -0.00000000000E+00  0.00000000000E+00  0.93800000000E+00  0.93800000000E+00 0. -1.
         11    1    1    2    0    0  0.45953588139E-01  0.13113423665E+00  0.93299948384E+00  0.94329010291E+00  0.51100000000E-03 0.  1.
    9000002    1    1    2    0    0 -0.19513138484E+00 -0.52249306309E+00  0.21518783582E+00  0.11123061912E+01  0.93800000000E+00 0. -1.
         22    1    1    2    0    0  0.14917779670E+00  0.39135882644E+00  0.28518126477E+01  0.28824037059E+01  0.00000000000E+00 0.  1.
</event>
<event>
 5    1  0.8240609E+001  0.1593659E+01  0.7818608E-02  0.3360275E+00
         11   -1    0    0    0    0  0.00000000000E+00  0.00000000000E+00  0.39999999674E+01  0.40000000000E+01  0.51100000000E-03 0. -1.
    9000002   -1    0    0    0    0 -0.00000000000E+00 -0.00000000000E+00  0.00000000000E+00  0.93800000000E+00  0.93800000000E+00 0.  1.
         11    1    1    2    0    0 -0.27002563407E-01 -0.45101869853E-02  0.37417312423E+00  0.37517365078E+00  0.51100000000E-03 0. -1.
    9000002    1    1    2    0    0 -0.20922608745E+00 -0.24971317299E+00  0.75772614706E-01  0.99585024656E+00  0.93800000000E+00 0.  1.
         22    1    1    2    0    0  0.23622865086E+00  0.25422335998E+00  0.35500542284E+01  0.35669761027E+01  0.00000000000E+00 0. -1.
</event>
<event>
 5    1  0.8240609E+001  0.1599663E+01  0.7818608E-02  0.3353730E+00
         11   -1    0    0    0    0  0.00000000000E+00  0.00000000000E+00  0.39999999674E+01  0.40000000000E+01  0.51100000000E-03 0.  1.
    9000002   -1    0    0    0    0 -0.00000000000E+00 -0.00000000000E+00  0.00000000000E+00  0.93800000000E+00  0.93800000000E+00 0. -1.
         11    1    1    2    0    0  0.98222980983E-01 -0.38079066996E-01  0.10220359078E+01  0.10274509367E+01  0.51100000000E-03 0.  1.
    9000002    1    1    2    0    0 -0.38754489265E+00  0.15008764941E+00  0.11675211011E+00  0.10325659308E+01  0.93800000000E+00 0. -1.
         22    1    1    2    0    0  0.28932191167E+00 -0.11200858241E+00  0.28612119494E+01  0.28779831324E+01  0.00000000000E+00 0.  1.
</event>
<event>
 5    1  0.8240609E+001  0.1599495E+01  0.7818608E-02  0.3353912E+00
         11   -1    0    0    0    0  0.00000000000E+00  0.00000000000E+00  0.39999999674E+01  0.40000000000E+01  0.51100000000E-03 0.  1.
    9000002   -1    0    0    0    0 -0.00000000000E+00 -0.00000000000E+00  0.00000000000E+00  0.93800000000E+00  0.93800000000E+00 0.  1.
         11    1    1    2    0    0 -0.44446850057E-01  0.21775245107E+00  0.12997453577E+01  0.13186090809E+01  0.51100000000E-03 0.  1.
    9000002    1    1    2    0    0  0.13299019639E+00 -0.58342516286E+00  0.24992070915E+00  0.11403401571E+01  0.93800000000E+00 0.  1.
         22    1    1    2    0    0 -0.88543346331E-01  0.36567271179E+00  0.24503339005E+01  0.24790507620E+01  0.00000000000E+00 0.  1.
</event>
<event>
 5    1  0.8240609E+001  0.1599676E+01  0.7818608E-02  0.3353715E+00
         11   -1    0    0    0    0  0.00000000000E+00  0.00000000000E+00  0.39999999674E+01  0.40000000000E+01  0.51100000000E-03 0. -1.
    9000002   -1    0    0    0    0 -0.00000000000E+00 -0.00000000000E+00  0.00000000000E+00  0.93800000000E+00  0.93800000000E+00 0. -1.
         11    1    1    2    0    0  0.14254646537E+00 -0.14154208505E+00  0.91940585104E+00  0.94109565756E+00  0.51100000000E-03 0. -1.
    9000002    1    1    2    0    0 -0.54968740670E+00  0.54561227383E+00  0.43817057795E+00  0.12929371423E+01  0.93800000000E+00 0. -1.
         22    1    1    2    0    0  0.40714094134E+00 -0.40407018878E+00  0.26424235384E+01  0.27039672002E+01  0.00000000000E+00 0. -1.
</event>
<event>
 5    1  0.8240609E+001  0.1599677E+01  0.7818608E-02  0.3353714E+00
         11   -1    0    0    0    0  0.00000000000E+00  0.00000000000E+00  0.39999999674E+01  0.40000000000E+01  0.51100000000E-03 0.  1.
    9000002   -1    0    0    0    0 -0.00000000000E+00 -0.00000000000E+00  0.00000000000E+00  0.93800000000E+00  0.93800000000E+00 0.  1.
         11    1    1    2    0    0  0.11147787698E+00 -0.67208830785E-01  0.12041272523E+01  0.12111428672E+01  0.51100000000E-03 0. -1.
    9000002    1    1    2    0    0 -0.36057400300E+00  0.21565928866E+00  0.11938552889E+00  0.10347074200E+01  0.93800000000E+00 0.  1.
         22    1    1    2    0    0  0.24909612602E+00 -0.14845045787E+00  0.26764871862E+01  0.26921497128E+01  0.00000000000E+00 0.  1.
</event>
<event>
 5    1  0.8240609E+001  0.1599671E+01  0.7818608E-02  0.3353720E+00
         11   -1    0    0    0    0  0.00000000000E+00  0.00000000000E+00  0.39999999674E+01  0.40000000000E+01  0.51100000000E-03 0.  1.
    9000002   -1    0    0    0    0 -0.00000000000E+00 -0.00000000000E+00  0.00000000000E+00  0.93800000000E+00  0.93800000000E+00 0. -1.
         11    1    1    2    0    0  0.33553374098E-02 -0.12294817876E+00  0.13156031635E+01  0.13213400235E+01  0.51100000000E-03 0.  1.
    9000002    1    1    2    0    0 -0.17367111256E-01  0.36878766512E+00  0.91599038709E-01  0.10121958024E+01  0.93800000000E+00 0. -1.
         22    1    1    2    0    0  0.14011773847E-01 -0.24583948636E+00  0.25927977652E+01  0.26044641741E+01  0.00000000000E+00 0.  1.
</event>
<event>
 5    1  0.8240609E+001  0.1595868E+01  0.7818608E-02  0.3357860E+00
         11   -1    0    0    0    0  0.00000000000E+00  0.00000000000E+00  0.39999999674E+01  0.40000000000E+01  0.51100000000E-03 0.  1.
    9000002   -1    0    0    0    0 -0.00000000000E+00 -0.00000000000E+00  0.00000000000E+00  0.93800000000E+00  0.93800000000E+00 0.  1.
         11    1    1    2    0    0  0.73231114389E-01  0.30364462992E-01  0.45074354821E+00  0.45766232541E+00  0.51100000000E-03 0.  1.
    9000002    1    1    2    0    0 -0.39043919277E+00  0.71478536358E-01  0.10939921265E+00  0.10243847579E+01  0.93800000000E+00 0.  1.
         22    1    1    2    0    0  0.31720807838E+00 -0.10184299935E+00  0.34398572065E+01  0.34559529167E+01  0.00000000000E+00 0.  1.
</event>
<event>
 5    1  0.8240609E+001  0.1599676E+01  0.7818608E-02  0.3353715E+00
         11   -1    0    0    0    0  0.00000000000E+00  0.00000000000E+00  0.39999999674E+01  0.40000000000E+01  0.51100000000E-03 0. -1.
    9000002   -1    0    0    0    0 -0.00000000000E+00 -0.00000000000E+00  0.00000000000E+00  0.93800000000E+00  0.93800000000E+00 0.  1.
         11    1    1    2    0    0 -0.15845825123E+00  0.32152712282E-01  0.13631498723E+01  0.13727055947E+01  0.51100000000E-03 0. -1.
    9000002    1    1    2    0    0  0.44617701495E+00 -0.93266396561E-01  0.14123885321E+00  0.10524091234E+01  0.93800000000E+00 0.  1.
         22    1    1    2    0    0 -0.28771876372E+00  0.61113684279E-01  0.24956112419E+01  0.25128852819E+01  0.00000000000E+00 0. -1.
</event>
<event>
 5    1  0.8240609E+001  0.1550473E+01  0.7818608E-02  0.3408938E+00
         11   -1    0    0    0    0  0.00000000000E+00  0.00000000000E+00  0.39999999674E+01  0.40000000000E+01  0.51100000000E-03 0. -1.
    9000002   -1    0    0    0    0 -0.00000000000E+00 -0.00000000000E+00  0.00000000000E+00  0.93800000000E+00  0.93800000000E+00 0.  1.
         11    1    1    2    0    0 -0.22313466514E-01  0.17038286777E+00  0.13714563960E+01  0.13821798434E+01  0.51100000000E-03 0. -1.
    9000002    1    1    2    0    0  0.36649129170E+00  0.17226267464E+00  0.15298467636E+00  0.10330724114E+01  0.93800000000E+00 0.  1.
         22    1    1    2    0    0 -0.34417782518E+00 -0.34264554241E+00  0.24755588950E+01  0.25227477452E+01  0.00000000000E+00 0. -1.
</event>
<event>
 5    1  0.8240609E+001  0.1562880E+01  0.7818608E-02  0.3394665E+00
         11   -1    0    0    0    0  0.00000000000E+00  0.00000000000E+00  0.39999999674E+01  0.40000000000E+01  0.51100000000E-03 0.  1.
    9000002   -1    0    0    0    0 -0.00000000000E+00 -0.00000000000E+00  0.00000000000E+00  0.93800000000E+00  0.93800000000E+00 0. -1.
         11    1    1    2    0    0  0.66905533072E-01  0.14275442364E+00  0.78600186227E+00  0.80165726120E+00  0.51100000000E-03 0.  1.
    9000002    1    1    2    0    0 -0.15181614020E-01  0.15233117688E+00  0.43166324091E-01  0.95138982567E+00  0.93800000000E+00 0. -1.
         22    1    1    2    0    0 -0.51723919052E-01 -0.29508560053E+00  0.31708317810E+01  0.31849529131E+01  0.00000000000E+00 0.  1.
</event>
<event>
 5    1  0.8240609E+001  0.1599677E+01  0.7818608E-02  0.3353714E+00
         11   -1    0    0    0    0  0.00000000000E+00  0.00000000000E+00  0.39999999674E+01  0.40000000000E+01  0.51100000000E-03 0. -1.
    9000002   -1    0    0    0    0 -0.00000000000E+00 -0.00000000000E+00  0.00000000000E+00  0.93800000000E+00  0.93800000000E+00 0.  1.
         11    1    1    2    0    0  0.91696054112E-01  0.72515290695E-01  0.10467417165E+01  0.10532497880E+01  0.51100000000E-03 0. -1.
    9000002    1    1    2    0    0 -0.34069534484E+00 -0.26785113207E+00  0.12725745819E+00  0.10410840541E+01  0.93800000000E+00 0.  1.
         22    1    1    2    0    0  0.24899929073E+00  0.19533584137E+00  0.28260007927E+01  0.28436661580E+01  0.00000000000E+00 0. -1.
</event>
<event>
 5    1  0.8240609E+001  0.1599489E+01  0.7818608E-02  0.3353918E+00
         11   -1    0    0    0    0  0.00000000000E+00  0.00000000000E+00  0.39999999674E+01  0.40000000000E+01  0.51100000000E-03 0.  1.
    9000002   -1    0    0    0    0 -0.00000000000E+00 -0.00000000000E+00  0.00000000000E+00  0.93800000000E+00  0.93800000000E+00 0. -1.
         11    1    1    2    0    0 -0.10349279769E+00 -0.93238842615E-01  0.12916796453E+01  0.12991692762E+01  0.51100000000E-03 0.  1.
    9000002    1    1    2    0    0  0.30058574156E+00  0.23617300063E+00  0.98503160001E-01  0.10176818495E+01  0.93800000000E+00 0. -1.
         22    1    1    2    0    0 -0.19709294387E+00 -0.14293415802E+00  0.26098171621E+01  0.26211488743E+01  0.00000000000E+00 0.  1.
</event>
<event>
 5    1  0.8240609E+001  0.1596769E+01  0.7818608E-02  0.3356877E+00
         11   -1    0    0    0    0  0.00000000000E+00  0.00000000000E+00  0.39999999674E+01  0.40000000000E+01  0.51100000000E-03 0. -1.
    9000002   -1    0    0    0    0 -0.00000000000E+00 -0.00000000000E+00  0.00000000000E+00  0.93800000000E+00  0.93800000000E+00 0.  1.
         11    1    1    2    0    0  0.27459992542E-01 -0.33565013651E-02  0.62350873855E+00  0.62412236417E+00  0.51100000000E-03 0. -1.
    9000002    1    1    2    0    0 -0.43974529622E+00 -0.10249419769E+00  0.14102262442E+00  0.10505295649E+01  0.93800000000E+00 0.  1.
         22    1    1    2    0    0  0.41228530368E+00  0.10585069905E+00  0.32354686044E+01  0.32633480709E+01  0.00000000000E+00 0. -1.
</event>
<event>
 5    1  0.8240609E+001  0.1599661E+01  0.7818608E-02  0.3353731E+00
         11   -1    0    0    0    0  0.00000000000E+00  0.00000000000E+00  0.39999999674E+01  0.40000000000E+01  0.51100000000E-03 0. -1.
    9000002   -1    0    0    0    0 -0.00000000000E+00 -0.00000000000E+00  0.00000000000E+00  0.93800000000E+00  0.93800000000E+00 0. -1.
         11    1    1    2    0    0  0.96918413674E-01 -0.69049362110E-01  0.82089273561E+00  0.82947340995E+00  0.51100000000E-03 0. -1.
    9000002    1    1    2    0    0 -0.43096971604E+00  0.31628090924E+00  0.19682874774E+00  0.10974306655E+01  0.93800000000E+00 0. -1.
         22    1    1    2    0    0  0.33405130237E+00 -0.24723154713E+00  0.29822784840E+01  0.30110959245E+01  0.00000000000E+00 0. -1.
</event>
<event>
 5    1  0.8240609E+001  0.1556801E+01  0.7818608E-02  0.3401627E+00
         11   -1    0    0    0    0  0.00000000000E+00  0.00000000000E+00  0.39999999674E+01  0.40000000000E+01  0.51100000000E-03 0. -1.
    9000002   -1    0    0    0    0 -0.00000000000E+00 -0.00000000000E+00  0.00000000000E+00  0.93800000000E+00  0.93800000000E+00 0.  1.
         11    1    1    2    0    0  0.21398914293E-01  0.16277786630E+00  0.79765539800E+00  0.81437641320E+00  0.51100000000E-03 0. -1.
    9000002    1    1    2    0    0  0.16996676013E-01  0.17816927444E+00  0.53796770508E-01  0.95643675686E+00  0.93800000000E+00 0.  1.
         22    1    1    2    0    0 -0.38395590306E-01 -0.34094714074E+00  0.31485477988E+01  0.31671868299E+01  0.00000000000E+00 0. -1.
</event>
<event>
 5    1  0.8240609E+001  0.1599513E+01  0.7818608E-02  0.3353892E+00
         11   -1    0    0    0    0  0.00000000000E+00  0.00000000000E+00  0.39999999674E+01  0.40000000000E+01  0.51100000000E-03 0. -1.
    9000002   -1    0    0    0    0 -0.00000000000E+00 -0.00000000000E+00  0.00000000000E+00  0.93800000000E+00  0.93800000000E+00 0. -1.
         11    1    1    2    0    0  0.63904524469E-01  0.15509578508E+00  0.11682706368E+01  0.11802521056E+01  0.51100000000E-03 0. -1.
    9000002    1    1    2    0    0 -0.16814282530E+00 -0.48434019469E+00  0.18048034765E+00  0.10841008209E+01  0.93800000000E+00 0. -1.
         22    1    1    2    0    0  0.10423830083E+00  0.32924440961E+00  0.26512489829E+01  0.26736470735E+01  0.00000000000E+00 0. -1.
</event>
<event>
 5    1  0.8240609E+001  0.1538118E+01  0.7818608E-02  0.3423395E+00
         11   -1    0    0    0    0  0.00000000000E+00  0.00000000000E+00  0.39999999674E+01  0.40000000000E+01  0.51100000000E-03 0. -1.
    9000002   -1    0    0    0    0 -0.00000000000E+00 -0.00000000000E+00  0.00000000000E+00  0.93800000000E+00  0.93800000000E+00 0.  1.
         11    1    1    2    0    0 -0.23339748445E-01 -0.19973399217E-01 -0.15433091751E-01  0.34382000753E-01  0.51100000000E-03 0. -1.
    9000002    1    1    2    0    0  0.36397475999E+00  0.26813391024E+00  0.19419744583E+00  0.10592120032E+01  0.93800000000E+00 0.  1.
         22    1    1    2    0    0 -0.34063501154E+00 -0.24816051102E+00  0.38212356133E+01  0.38444059961E+01  0.00000000000E+00 0. -1.
</event>
<event>
 5    1  0.8240609E+001  0.1599674E+01  0.7818608E-02  0.3353717E+00
         11   -1    0    0    0    0  0.00000000000E+00  0.00000000000E+00  0.39999999674E+01  0.40000000000E+01  0.51100000000E-03 0. -1.
    9000002   -1    0    0    0    0 -0.00000000000E+00 -0.00000000000E+00  0.00000000000E+00  0.93800000000E+00  0.93800000000E+00 0.  1.
         11    1    1    2    0    0  0.17042145051E+00 -0.11401305736E-01  0.11275340971E+01  0.11403976770E+01  0.51100000000E-03 0. -1.
    9000002    1    1    2    0    0 -0.57580663210E+00  0.37343047774E-01  0.23119175734E+00  0.11252739264E+01  0.93800000000E+00 0.  1.
         22    1    1    2    0    0  0.40538518159E+00 -0.25941742038E-01  0.26412741129E+01  0.26723283966E+01  0.00000000000E+00 0. -1.
</event>
<event>
 5    1  0.8240609E+001  0.1482218E+01  0.7818608E-02  0.3492039E+00
         11   -1    0    0    0    0  0.00000000000E+00  0.00000000000E+00  0.39999999674E+01  0.40000000000E+01  0.51100000000E-03 0. -1.
    9000002   -1    0    0    0    0 -0.00000000000E+00 -0.00000000000E+00  0.00000000000E+00  0.93800000000E+00  0.93800000000E+00 0.  1.
         11    1    1    2    0    0  0.15115910167E+00  0.47344950688E+00  0.13623439495E+01  0.14501671653E+01  0.51100000000E-03 0. -1.
    9000002    1    1    2    0    0  0.32976703227E+00 -0.48447300297E+00  0.36481786348E+00  0.11646443490E+01  0.93800000000E+00 0.  1.
         22    1    1    2    0    0 -0.48092613394E+00  0.11023496088E-01  0.22728381544E+01  0.23231884857E+01  0.00000000000E+00 0. -1.
</event>
<event>
 5    1  0.8240609E+001  0.1599676E+01  0.7818608E-02  0.3353715E+00
         11   -1    0    0    0    0  0.00000000000E+00  0.00000000000E+00  0.39999999674E+01  0.40000000000E+01  0.51100000000E-03 0. -1.
    9000002   -1    0    0    0    0 -0.00000000000E+00 -0.00000000000E+00  0.00000000000E+00  0.93800000000E+00  0.93800000000E+00 0. -1.
         11    1    1    2    0    0 -0.61706303056E-01  0.74086148608E-01  0.94943410497E+00  0.95431745559E+00  0.51100000000E-03 0. -1.
    9000002    1    1    2    0    0  0.25694380945E+00 -0.30250462200E+00  0.10621531341E+00  0.10240385053E+01  0.93800000000E+00 0. -1.
         22    1    1    2    0    0 -0.19523750640E+00  0.22841847339E+00  0.29443505490E+01  0.29596440391E+01  0.00000000000E+00 0. -1.
</event>
<event>
 5    1  0.8240609E+001  0.1460951E+01  0.7818608E-02  0.3519646E+00
         11   -1    0    0    0    0  0.00000000000E+00  0.00000000000E+00  0.39999999674E+01  0.40000000000E+01  0.51100000000E-03 0.  1.
    9000002   -1    0    0    0    0 -0.00000000000E+00 -0.00000000000E+00  0.00000000000E+00  0.93800000000E+00  0.93800000000E+00 0. -1.
         11    1    1    2    0    0 -0.14859652620E+00  0.13873372909E+00  0.16817175532E+00  0.26383702469E+00  0.51100000000E-03 0.  1.
    9000002    1    1    2    0    0  0.16568620122E+00  0.21391955809E+00  0.16465742696E+00  0.99003513213E+00  0.93800000000E+00 0. -1.
         22    1    1    2    0    0 -0.17089675016E-01 -0.35265328718E+00  0.36671707851E+01  0.36841278432E+01  0.00000000000E+00 0.  1.
</event>
<event>
 5    1  0.8240609E+001  0.1599638E+01  0.7818608E-02  0.3353757E+00
         11   -1    0    0    0    0  0.00000000000E+00  0.00000000000E+00  0.39999999674E+01  0.40000000000E+01  0.51100000000E-03 0.  1.
    9000002   -1    0    0    0    0 -0.00000000000E+00 -0.00000000000E+00  0.00000000000E+00  0.93800000000E+00  0.93800000000E+00 0.  1.
         11    1    1    2    0    0 -0.12656173399E+00 -0.18318958971E-01  0.13725999153E+01  0.13785442486E+01  0.51100000000E-03 0.  1.
    9000002    1    1    2    0    0  0.37946212041E+00  0.46092531501E-01  0.98372044611E-01  0.10176625578E+01  0.93800000000E+00 0.  1.
         22    1    1    2    0    0 -0.25290038642E+00 -0.27773572530E-01  0.25290280075E+01  0.25417931936E+01  0.00000000000E+00 0.  1.
</event>
<event>
 5    1  0.8240609E+001  0.1599677E+01  0.7818608E-02  0.3353715E+00
         11   -1    0    0    0    0  0.00000000000E+00  0.00000000000E+00  0.39999999674E+01  0.40000000000E+01  0.51100000000E-03 0. -1.
    9000002   -1    0    0    0    0 -0.00000000000E+00 -0.00000000000E+00  0.00000000000E+00  0.93800000000E+00  0.93800000000E+00 0.  1.
         11    1    1    2    0    0  0.75868494605E-01 -0.27307186589E+00  0.14686158562E+01  0.14957128958E+01  0.51100000000E-03 0. -1.
    9000002    1    1    2    0    0 -0.18998549219E+00  0.67675151180E+00  0.35338985933E+00  0.12242612011E+01  0.93800000000E+00 0.  1.
         22    1    1    2    0    0  0.11411699758E+00 -0.40367964591E+00  0.21779942518E+01  0.22180259030E+01  0.00000000000E+00 0. -1.
</event>
<event>
 5    1  0.8240609E+001  0.1599555E+01  0.7818608E-02  0.3353846E+00
         11   -1    0    0    0    0  0.00000000000E+00  0.00000000000E+00  0.39999999674E+01  0.40000000000E+01  0.51100000000E-03 0.  1.
    9000002   -1    0    0    0    0 -0.00000000000E+00 -0.00000000000E+00  0.00000000000E+00  0.93800000000E+00  0.93800000000E+00 0. -1.
         11    1    1    2    0    0  0.27736697412E-02  0.73085223276E-05  0.13534373414E-01  0.13825110559E-01  0.51100000000E-03 0.  1.
    9000002    1    1    2    0    0 -0.37497411853E+00  0.70161516053E-01  0.98034962572E-01  0.10173411826E+01  0.93800000000E+00 0. -1.
         22    1    1    2    0    0  0.37220044878E+00 -0.70168824575E-01  0.38884306314E+01  0.39068337069E+01  0.00000000000E+00 0.  1.
</event>
<event>
 5    1  0.8240609E+001  0.1599654E+01  0.7818608E-02  0.3353738E+00
         11   -1    0    0    0    0  0.00000000000E+00  0.00000000000E+00  0.39999999674E+01  0.40000000000E+01  0.51100000000E-03 0. -1.
    9000002   -1    0    0    0    0 -0.00000000000E+00 -0.00000000000E+00  0.00000000000E+00  0.93800000000E+00  0.93800000000E+00 0.  1.
         11    1    1    2    0    0 -0.44967156955E-01 -0.73682070538E-02  0.46714746291E+00  0.46936483561E+00  0.51100000000E-03 0. -1.
    9000002    1    1    2    0    0  0.35624661714E+00  0.85081486782E-01  0.90133360097E-01  0.10109987805E+01  0.93800000000E+00 0.  1.
         22    1    1    2    0    0 -0.31127946018E+00 -0.77713279728E-01  0.34427191444E+01  0.34576363839E+01  0.00000000000E+00 0. -1.
</event>
<event>
 5    1  0.8240609E+001  0.1491886E+01  0.7818608E-02  0.3479770E+00
         11   -1    0    0    0    0  0.00000000000E+00  0.00000000000E+00  0.39999999674E+01  0.40000000000E+01  0.51100000000E-03 0. -1.
    9000002   -1    0    0    0    0 -0.00000000000E+00 -0.00000000000E+00  0.00000000000E+00  0.93800000000E+00  0.93800000000E+00 0. -1.
         11    1    1    2    0    0  0.29389556351E+00  0.87025605667E-01  0.11096785748E+01  0.11512318875E+01  0.51100000000E-03 0. -1.
    9000002    1    1    2    0    0  0.20548670493E+00 -0.10061641501E+00  0.12135542769E+00  0.97309793377E+00  0.93800000000E+00 0. -1.
         22    1    1    2    0    0 -0.49938226844E+00  0.13590809347E-01  0.27689659649E+01  0.28136701788E+01  0.00000000000E+00 0. -1.
</event>
<event>
 5    1  0.8240609E+001  0.1599591E+01  0.7818608E-02  0.3353807E+00
         11   -1    0    0    0    0  0.00000000000E+00  0.00000000000E+00  0.39999999674E+01  0.40000000000E+01  0.51100000000E-03 0.  1.
    9000002   -1    0    0    0    0 -0.00000000000E+00 -0.00000000000E+00  0.00000000000E+00  0.93800000000E+00  0.93800000000E+00 0. -1.
         11    1    1    2    0    0  0.64114077205E-01  0.17239402050E-01  0.46105540807E+00  0.46581129475E+00  0.51100000000E-03 0.  1.
    9000002    1    1    2    0    0 -0.47747598895E+00 -0.11924406335E+00  0.16566141414E+00  0.10721427940E+01  0.93800000000E+00 0. -1.
         22    1    1    2    0    0  0.41336191175E+00  0.10200466130E+00  0.33732831452E+01  0.34000459112E+01  0.00000000000E+00 0.  1.
</event>
<event>
 5    1  0.8240609E+001  0.1490189E+01  0.7818608E-02  0.3481911E+00
         11   -1    0    0    0    0  0.00000000000E+00  0.00000000000E+00  0.39999999674E+01  0.40000000000E+01  0.51100000000E-03 0.  1.
    9000002   -1    0    0    0    0 -0.00000000000E+00 -0.00000000000E+00  0.00000000000E+00  0.93800000000E+00  0.93800000000E+00 0.  1.
         11    1    1    2    0    0  0.31393294872E+00 -0.43390250489E+00  0.99804440069E+00  0.11326597754E+01  0.51100000000E-03 0.  1.
    9000002    1    1    2    0    0 -0.18089685931E+00  0.14796992949E+00  0.20184240426E+00  0.98752373637E+00  0.93800000000E+00 0.  1.
         22    1    1    2    0    0 -0.13303608941E+00  0.28593257540E+00  0.28001131624E+01  0.28178164882E+01  0.00000000000E+00 0.  1.
</event>
<event>
 5    1  0.8240609E+001  0.1595129E+01  0.7818608E-02  0.3358667E+00
         11   -1    0    0    0    0  0.00000000000E+00  0.00000000000E+00  0.39999999674E+01  0.40000000000E+01  0.51100000000E-03 0.  1.
    9000002   -1    0    0    0    0 -0.00000000000E+00 -0.00000000000E+00  0.00000000000E+00  0.93800000000E+00  0.93800000000E+00 0. -1.
         11    1    1    2    0    0  0.78822205189E-01  0.15446710865E+00  0.93911503045E+00  0.95499231894E+00  0.51100000000E-03 0.  1.
    9000002    1    1    2    0    0 -0.29315523276E+00 -0.34764228668E+00  0.14450429815E+00  0.10523880663E+01  0.93800000000E+00 0. -1.
         22    1    1    2    0    0  0.21433302758E+00  0.19317517802E+00  0.29163806388E+01  0.29306196147E+01  0.00000000000E+00 0.  1.
</event>
<event>
 5    1  0.8240609E+001  0.1599676E+01  0.7818608E-02  0.3353715E+00
         11   -1    0    0    0    0  0.00000000000E+00  0.00000000000E+00  0.39999999674E+01  0.40000000000E+01  0.51100000000E-03 0.  1.
    9000002   -1    0    0    0    0 -0.00000000000E+00 -0.00000000000E+00  0.00000000000E+00  0.93800000000E+00  0.93800000000E+00 0.  1.
         11    1    1    2    0    0  0.22636827607E+00  0.12724690496E+00  0.71943756857E+00  0.76486930088E+00  0.51100000000E-03 0.  1.
    9000002    1    1    2    0    0 -0.94774603107E+00 -0.53009146575E+00  0.10041016151E+01  0.17513661967E+01  0.93800000000E+00 0.  1.
         22    1    1    2    0    0  0.72137775500E+00  0.40284456079E+00  0.22764607837E+01  0.24217645024E+01  0.00000000000E+00 0.  1.
</event>
<event>
 5    1  0.8240609E+001  0.1569144E+01  0.7818608E-02  0.3387550E+00
         11   -1    0    0    0    0  0.00000000000E+00  0.00000000000E+00  0.39999999674E+01  0.40000000000E+01  0.51100000000E-03 0.  1.
    9000002   -1    0    0    0    0 -0.00000000000E+00 -0.00000000000E+00  0.00000000000E+00  0.93800000000E+00  0.93800000000E+00 0.  1.
         11    1    1    2    0    0 -0.84029540482E-01 -0.18217687310E+00  0.10978458464E+01  0.11160264962E+01  0.51100000000E-03 0.  1.
    9000002    1    1    2    0    0 -0.21523549515E+00  0.21421741967E+00  0.85881721655E-01  0.98966413059E+00  0.93800000000E+00 0.  1.
         22    1    1    2    0    0  0.29926503563E+00 -0.32040546578E-01  0.28162723993E+01  0.28323093732E+01  0.00000000000E+00 0. -1.
</event>
<event>
 5    1  0.8240609E+001  0.1598416E+01  0.7818608E-02  0.3355084E+00
         11   -1    0    0    0    0  0.00000000000E+00  0.00000000000E+00  0.39999999674E+01  0.40000000000E+01  0.51100000000E-03 0. -1.
    9000002   -1    0    0    0    0 -0.00000000000E+00 -0.00000000000E+00  0.00000000000E+00  0.93800000000E+00  0.93800000000E+00 0. -1.
         11    1    1    2    0    0 -0.82260613989E-01  0.41114885170E-02  0.11254037411E+01  0.11284137338E+01  0.51100000000E-03 0. -1.
    9000002    1    1    2    0    0  0.39533003382E+00  0.61673916253E-01  0.10903487184E+00  0.10255837903E+01  0.93800000000E+00 0. -1.
         22    1    1    2    0    0 -0.31306941983E+00 -0.65785404770E-01  0.27655613544E+01  0.27840024759E+01  0.00000000000E+00 0. -1.
</event>
<event>
 5    1  0.8240609E+001  0.1599666E+01  0.7818608E-02  0.3353726E+00
         11   -1    0    0    0    0  0.00000000000E+00  0.00000000000E+00  0.39999999674E+01  0.40000000000E+01  0.51100000000E-03 0.  1.
    9000002   -1    0    0    0    0 -0.00000000000E+00 -0.00000000000E+00  0.00000000000E+00  0.93800000000E+00  0.93800000000E+00 0.  1.
         11    1    1    2    0    0 -0.64065240587E-02  0.21867692522E-01  0.14906660311E+00  0.15079904778E+00  0.51100000000E-03 0.  1.
    9000002    1    1    2    0    0  0.14204783943E+00 -0.52463706840E+00  0.20380993533E+00  0.11030884516E+01  0.93800000000E+00 0.  1.
         22    1    1    2    0    0 -0.13564131537E+00  0.50276937588E+00  0.36471234289E+01  0.36841125007E+01  0.00000000000E+00 0.  1.
</event>
<event>
 5    1  0.8240609E+001  0.1599670E+01  0.7818608E-02  0.3353722E+00
         11   -1    0    0    0    0  0.00000000000E+00  0.00000000000E+00  0.39999999674E+01  0.40000000000E+01  0.51100000000E-03 0.  1.
    9000002   -1    0    0    0    0 -0.00000000000E+00 -0.00000000000E+00  0.00000000000E+00  0.93800000000E+00  0.93800000000E+00 0. -1.
         11    1    1    2    0    0 -0.48401405638E-01 -0.18399101719E+00  0.14750070127E+01  0.14872260552E+01  0.51100000000E-03 0.  1.
    9000002    1    1    2    0    0  0.11841571438E+00  0.48154435347E+00  0.16822822999E+00  0.10742681151E+01  0.93800000000E+00 0. -1.
         22    1    1    2    0    0 -0.70014308743E-01 -0.29755333627E+00  0.23567647246E+01  0.23765058297E+01  0.00000000000E+00 0. -1.
</event>
<event>
 5    1  0.8240609E+001  0.1599408E+01  0.7818608E-02  0.3354006E+00
         11   -1    0    0    0    0  0.00000000000E+00  0.00000000000E+00  0.39999999674E+01  0.40000000000E+01  0.51100000000E-03 0.  1.
    9000002   -1    0    0    0    0 -0.00000000000E+00 -0.00000000000E+00  0.00000000000E+00  0.93800000000E+00  0.93800000000E+00 0.  1.
         11    1    1    2    0    0  0.17664643589E+00 -0.36944672644E-01  0.12068360355E+01  0.12202550348E+01  0.51100000000E-03 0.  1.
    9000002    1    1    2    0    0 -0.52372379601E+00  0.16474026398E+00  0.20841054489E+00  0.11066638714E+01  0.93800000000E+00 0.  1.
         22    1    1    2    0    0  0.34707736012E+00 -0.12779559134E+00  0.25847533870E+01  0.26110810938E+01  0.00000000000E+00 0.  1.
</event>
<event>
 5    1  0.8240609E+001  0.1599662E+01  0.7818608E-02  0.3353731E+00
         11   -1    0    0    0    0  0.00000000000E+00  0.00000000000E+00  0.39999999674E+01  0.40000000000E+01  0.51100000000E-03 0. -1.
    9000002   -1    0    0    0    0 -0.00000000000E+00 -0.00000000000E+00  0.00000000000E+00  0.93800000000E+00  0.93800000000E+00 0.  1.
         11    1    1    2    0    0  0.33959785485E-01 -0.55395695165E-02  0.32321612821E+00  0.32504289027E+00  0.51100000000E-03 0. -1.
    9000002    1    1    2    0    0 -0.42185828301E+00  0.93312383641E-01  0.12647025437E+00  0.10404375700E+01  0.93800000000E+00 0.  1.
         22    1    1    2    0    0  0.38789849752E+00 -0.87772814125E-01  0.35503135848E+01  0.35725195397E+01  0.00000000000E+00 0. -1.
</event>
<event>
 5    1  0.8240609E+001  0.1599518E+01  0.7818608E-02  0.3353886E+00
         11   -1    0    0    0    0  0.00000000000E+00  0.00000000000E+00  0.39999999674E+01  0.40000000000E+01  0.51100000000E-03 0.  1.
    9000002   -1    0    0    0    0 -0.00000000000E+00 -0.00000000000E+00  0.00000000000E+00  0.93800000000E+00  0.93800000000E+00 0. -1.
         11    1    1    2    0    0  0.53474202651E-01 -0.67618842821E-01  0.44782330301E+00  0.45604579824E+00  0.51100000000E-03 0.  1.
    9000002    1    1    2    0    0 -0.43823340722E+00  0.47685717140E+00  0.29597795151E+00  0.11776621879E+01  0.93800000000E+00 0. -1.
         22    1    1    2    0    0  0.38475920457E+00 -0.40923832858E+00  0.32561987128E+01  0.33042920138E+01  0.00000000000E+00 0.  1.
</event>
<event>
 5    1  0.8240609E+001  0.1599676E+01  0.7818608E-02  0.3353715E+00
         11   -1    0    0    0    0  0.00000000000E+00  0.00000000000E+00  0.39999999674E+01  0.40000000000E+01  0.51100000000E-03 0. -1.
    9000002   -1    0    0    0    0 -0.00000000000E+00 -0.00000000000E+00  0.00000000000E+00  0.93800000000E+00  0.93800000000E+00 0. -1.
         11    1    1    2    0    0  0.36954606203E-01  0.10461587702E+00  0.10677781880E+01  0.10735271978E+01  0.51100000000E-03 0. -1.
    9000002    1    1    2    0    0 -0.13530696841E+00 -0.38373129105E+00  0.11177220968E+00  0.10285400849E+01  0.93800000000E+00 0. -1.
         22    1    1    2    0    0  0.98352362207E-01  0.27911541403E+00  0.28204495697E+01  0.28359327172E+01  0.00000000000E+00 0. -1.
</event>
<event>
 5    1  0.8240609E+001  0.1599677E+01  0.7818608E-02  0.3353714E+00
         11   -1    0    0    0    0  0.00000000000E+00  0.00000000000E+00  0.39999999674E+01  0.40000000000E+01  0.51100000000E-03 0.  1.
    9000002   -1    0    0    0    0 -0.00000000000E+00 -0.00000000000E+00  0.00000000000E+00  0.93800000000E+00  0.93800000000E+00 0.  1.
         11    1    1    2    0    0 -0.33061289474E-01 -0.10521051990E+00  0.11624821894E+01  0.11677017617E+01  0.51100000000E-03 0.  1.
    9000002    1    1    2    0    0  0.11280425712E+00  0.35217163930E+00  0.91899192173E-01  0.10124421591E+01  0.93800000000E+00 0.  1.
         22    1    1    2    0    0 -0.79742967649E-01 -0.24696111941E+00  0.27456185858E+01  0.27578560793E+01  0.00000000000E+00 0.  1.
</event>
<event>
 5    1  0.8240609E+001  0.1598288E+01  0.7818608E-02  0.3355224E+00
         11   -1    0    0    0    0  0.00000000000E+00  0.00000000000E+00  0.39999999674E+01  0.40000000000E+01  0.51100000000E-03 0.  1.
    9000002   -1    0    0    0    0 -0.00000000000E+00 -0.00000000000E+00  0.00000000000E+00  0.93800000000E+00  0.93800000000E+00 0. -1.
         11    1    1    2    0    0 -0.48457469857E-01  0.52061586676E-01  0.12467373484E+01  0.12487645143E+01  0.51100000000E-03 0.  1.
    9000002    1    1    2    0    0  0.25242011430E+00 -0.24875345499E+00  0.85375610924E-01  0.10063434754E+01  0.93800000000E+00 0. -1.
         22    1    1    2    0    0 -0.20396264444E+00  0.19669186832E+00  0.26678870081E+01  0.26828920103E+01  0.00000000000E+00 0.  1.
</event>
<event>
 5    1  0.8240609E+001  0.1599673E+01  0.7818608E-02  0.3353718E+00
         11   -1    0    0    0    0  0.00000000000E+00  0.00000000000E+00  0.39999999674E+01  0.40000000000E+01  0.51100000000E-03 0. -1.
    9000002   -1    0    0    0    0 -0.00000000000E+00 -0.00000000000E+00  0.00000000000E+00  0.93800000000E+00  0.93800000000E+00 0. -1.
         11    1    1    2    0    0  0.11919753899E+00 -0.48858822943E-01  0.14097599684E+01  0.14156336628E+01  0.51100000000E-03 0. -1.
    9000002    1    1    2    0    0 -0.32778541209E+00  0.14114472623E+00  0.85468348522E-01  0.10072308319E+01  0.93800000000E+00 0. -1.
         22    1    1    2    0    0  0.20858787310E+00 -0.92285903288E-01  0.25047716505E+01  0.25151355053E+01  0.00000000000E+00 0. -1.
</event>
<event>
 5    1  0.8240609E+001  0.1599670E+01  0.7818608E-02  0.3353722E+00
         11   -1    0    0    0    0  0.00000000000E+00  0.00000000000E+00  0.39999999674E+01  0.40000000000E+01  0.51100000000E-03 0.  1.
    9000002   -1    0    0    0    0 -0.00000000000E+00 -0.00000000000E+00  0.00000000000E+00  0.93800000000E+00  0.93800000000E+00 0.  1.
         11    1    1    2    0    0 -0.11434594635E-01 -0.14099355222E+00  0.11999368354E+01  0.12082460850E+01  0.51100000000E-03 0.  1.
    9000002    1    1    2    0    0  0.40806837132E-01  0.44539922877E+00  0.13581929571E+00  0.10480155304E+01  0.93800000000E+00 0.  1.
         22    1    1    2    0    0 -0.29372242497E-01 -0.30440567655E+00  0.26642438362E+01  0.26817383846E+01  0.00000000000E+00 0.  1.
</event>
<event>
 5    1  0.8240609E+001  0.1599677E+01  0.7818608E-02  0.3353714E+00
         11   -1    0    0    0    0  0.00000000000E+00  0.00000000000E+00  0.39999999674E+01  0.40000000000E+01  0.51100000000E-03 0.  1.
    9000002   -1    0    0    0    0 -0.00000000000E+00 -0.00000000000E+00  0.00000000000E+00  0.93800000000E+00  0.93800000000E+00 0. -1.
         11    1    1    2    0    0 -0.14419665216E+00  0.19758237233E+00  0.14239531710E+01  0.14448094555E+01  0.51100000000E-03 0.  1.
    9000002    1    1    2    0    0  0.37661555353E+00 -0.51384164644E+00  0.28553041984E+00  0.11692921506E+01  0.93800000000E+00 0. -1.
         22    1    1    2    0    0 -0.23241890137E+00  0.31625927411E+00  0.22905163765E+01  0.23238983939E+01  0.00000000000E+00 0.  1.
</event>
<event>
 5    1  0.8240609E+001  0.1599580E+01  0.7818608E-02  0.3353819E+00
         11   -1    0    0    0    0  0.00000000000E+00  0.00000000000E+00  0.39999999674E+01  0.40000000000E+01  0.51100000000E-03 0. -1.
    9000002   -1    0    0    0    0 -0.00000000000E+00 -0.00000000000E+00  0.00000000000E+00  0.93800000000E+00  0.93800000000E+00 0. -1.
         11    1    1    2    0    0 -0.14866202919E+00 -0.54363667164E-01  0.99503349325E+00  0.10075453940E+01  0.51100000000E-03 0. -1.
    9000002    1    1    2    0    0  0.55496621679E+00  0.24369939048E+00  0.25675313877E+00  0.11459245477E+01  0.93800000000E+00 0. -1.
         22    1    1    2    0    0 -0.40630418760E+00 -0.18933572331E+00  0.27482133353E+01  0.27845300583E+01  0.00000000000E+00 0. -1.
</event>
<event>
 5    1  0.8240609E+001  0.1599676E+01  0.7818608E-02  0.3353716E+00
         11   -1    0    0    0    0  0.00000000000E+00  0.00000000000E+00  0.39999999674E+01  0.40000000000E+01  0.51100000000E-03 0.  1.
    9000002   -1    0    0    0    0 -0.00000000000E+00 -0.00000000000E+00  0.00000000000E+00  0.93800000000E+00  0.93800000000E+00 0. -1.
         11    1    1    2    0    0  0.17841770906E+00 -0.65166992510E-01  0.12695339935E+01  0.12836652358E+01  0.51100000000E-03 0.  1.
    9000002    1    1    2    0    0 -0.52836749715E+00  0.19150351823E+00  0.21866118846E+00  0.11151244437E+01  0.93800000000E+00 0. -1.
         22    1    1    2    0    0  0.34994978810E+00 -0.12633652572E+00  0.25118047854E+01  0.25392103206E+01  0.00000000000E+00 0.  1.
</event>
<event>
 5    1  0.8240609E+001  0.1599677E+01  0.7818608E-02  0.3353714E+00
         11   -1    0    0    0    0  0.00000000000E+00  0.00000000000E+00  0.39999999674E+01  0.40000000000E+01  0.51100000000E-03 0. -1.
    9000002   -1    0    0    0    0 -0.00000000000E+00 -0.00000000000E+00  0.00000000000E+00  0.93800000000E+00  0.93800000000E+00 0. -1.
         11    1    1    2    0    0  0.83814677542E-02  0.15136176775E+00  0.11157234637E+01  0.11259750185E+01  0.51100000000E-03 0.  1.
    9000002    1    1    2    0    0 -0.27926024860E-01 -0.51745887763E+00  0.18440916966E+00  0.10873795541E+01  0.93800000000E+00 0. -1.
         22    1    1    2    0    0  0.19544557106E-01  0.36609710988E+00  0.26998673340E+01  0.27246454273E+01  0.00000000000E+00 0. -1.
</event>
<event>
 5    1  0.8240609E+001  0.1598461E+01  0.7818608E-02  0.3355035E+00
         11   -1    0    0    0    0  0.00000000000E+00  0.00000000000E+00  0.39999999674E+01  0.40000000000E+01  0.51100000000E-03 0. -1.
    9000002   -1    0    0    0    0 -0.00000000000E+00 -0.00000000000E+00  0.00000000000E+00  0.93800000000E+00  0.93800000000E+00 0.  1.
         11    1    1    2    0    0  0.15651415067E+00  0.87177886474E-01  0.13948994826E+01  0.14063575260E+01  0.51100000000E-03 0. -1.
    9000002    1    1    2    0    0 -0.45802251047E+00 -0.13230794301E+00  0.15607803684E+00  0.10637172394E+01  0.93800000000E+00 0.  1.
         22    1    1    2    0    0  0.30150835980E+00  0.45130056534E-01  0.24490224479E+01  0.24679252345E+01  0.00000000000E+00 0. -1.
</event>
<event>
 5    1  0.8240609E+001  0.1599605E+01  0.7818608E-02  0.3353793E+00
         11   -1    0    0    0    0  0.00000000000E+00  0.00000000000E+00  0.39999999674E+01  0.40000000000E+01  0.51100000000E-03 0. -1.
    9000002   -1    0    0    0    0 -0.00000000000E+00 -0.00000000000E+00  0.00000000000E+00  0.93800000000E+00  0.93800000000E+00 0. -1.
         11    1    1    2    0    0  0.35192516257E-02  0.22864351023E-01  0.27263578953E+00  0.27361596907E+00  0.51100000000E-03 0. -1.
    9000002    1    1    2    0    0 -0.57500610740E-01 -0.40050456383E+00  0.11055212313E+00  0.10275096096E+01  0.93800000000E+00 0. -1.
         22    1    1    2    0    0  0.53981359114E-01  0.37764021281E+00  0.36168120547E+01  0.36368744213E+01  0.00000000000E+00 0. -1.
</event>
<event>
 5    1  0.8240609E+001  0.1599640E+01  0.7818608E-02  0.3353754E+00
         11   -1    0    0    0    0  0.00000000000E+00  0.00000000000E+00  0.39999999674E+01  0.40000000000E+01  0.51100000000E-03 0. -1.
    9000002   -1    0    0    0    0 -0.00000000000E+00 -0.00000000000E+00  0.00000000000E+00  0.93800000000E+00  0.93800000000E+00 0.  1.
         11    1    1    2    0    0 -0.14167728284E+00 -0.21187652151E-02  0.11382509088E+01  0.11470363264E+01  0.51100000000E-03 0. -1.
    9000002    1    1    2    0    0  0.48705523110E+00 -0.13237026581E-01  0.16220247360E+00  0.10693697487E+01  0.93800000000E+00 0.  1.
         22    1    1    2    0    0 -0.34537794826E+00  0.15355791796E-01  0.26995465849E+01  0.27215939248E+01  0.00000000000E+00 0. -1.
</event>
<event>
 5    1  0.8240609E+001  0.1599655E+01  0.7818608E-02  0.3353738E+00
         11   -1    0    0    0    0  0.00000000000E+00  0.00000000000E+00  0.39999999674E+01  0.40000000000E+01  0.51100000000E-03 0.  1.
    9000002   -1    0    0    0    0 -0.00000000000E+00 -0.00000000000E+00  0.00000000000E+00  0.93800000000E+00  0.93800000000E+00 0.  1.
         11    1    1    2    0    0  0.13155146698E+00  0.78665067329E-01  0.10336652427E+01  0.10449679786E+01  0.51100000000E-03 0.  1.
    9000002    1    1    2    0    0 -0.46697935576E+00 -0.27910405695E+00  0.20421709714E+00  0.11034117165E+01  0.93800000000E+00 0.  1.
         22    1    1    2    0    0  0.33542788878E+00  0.20043898962E+00  0.27621176275E+01  0.27896203049E+01  0.00000000000E+00 0.  1.
</event>
<event>
 5    1  0.8240609E+001  0.1599657E+01  0.7818608E-02  0.3353736E+00
         11   -1    0    0    0    0  0.00000000000E+00  0.00000000000E+00  0.39999999674E+01  0.40000000000E+01  0.51100000000E-03 0. -1.
    9000002   -1    0    0    0    0 -0.00000000000E+00 -0.00000000000E+00  0.00000000000E+00  0.93800000000E+00  0.93800000000E+00 0.  1.
         11    1    1    2    0    0 -0.87797026022E-02 -0.78865916967E-01  0.56280596367E+00  0.56837287928E+00  0.51100000000E-03 0. -1.
    9000002    1    1    2    0    0  0.74880513067E-01  0.51362917781E+00  0.18505839006E+00  0.10878936673E+01  0.93800000000E+00 0.  1.
         22    1    1    2    0    0 -0.66100810465E-01 -0.43476326084E+00  0.32521356136E+01  0.32817334535E+01  0.00000000000E+00 0. -1.
</event>
<event>
 5    1  0.8240609E+001  0.1599676E+01  0.7818608E-02  0.3353715E+00
         11   -1    0    0    0    0  0.00000000000E+00  0.00000000000E+00  0.39999999674E+01  0.40000000000E+01  0.51100000000E-03 0. -1.
    9000002   -1    0    0    0    0 -0.00000000000E+00 -0.00000000000E+00  0.00000000000E+00  0.93800000000E+00  0.93800000000E+00 0. -1.
         11    1    1    2    0    0  0.18444127385E-01  0.18441716756E-01  0.18631049540E+00  0.18812800049E+00  0.51100000000E-03 0.  1.
    9000002    1    1    2    0    0 -0.37345150974E+00 -0.37409527348E+00  0.19222915299E+00  0.10937135599E+01  0.93800000000E+00 0. -1.
         22    1    1    2    0    0  0.35500738235E+00  0.35565355672E+00  0.36214603190E+01  0.36561584397E+01  0.00000000000E+00 0. -1.
</event>
<event>
 5    1  0.8240609E+001  0.1599675E+01  0.7818608E-02  0.3353717E+00
         11   -1    0    0    0    0  0.00000000000E+00  0.00000000000E+00  0.39999999674E+01  0.40000000000E+01  0.51100000000E-03 0. -1.
    9000002   -1    0    0    0    0 -0.00000000000E+00 -0.00000000000E+00  0.00000000000E+00  0.93800000000E+00  0.93800000000E+00 0.  1.
         11    1    1    2    0    0 -0.23062944378E-01 -0.13498569812E-01  0.19796688166E+00  0.19976300495E+00  0.51100000000E-03 0. -1.
    9000002    1    1    2    0    0  0.45357085615E+00  0.25019177615E+00  0.18425261568E+00  0.10872513384E+01  0.93800000000E+00 0.  1.
         22    1    1    2    0    0 -0.43050791177E+00 -0.23669320634E+00  0.36177804700E+01  0.36509856567E+01  0.00000000000E+00 0. -1.
</event>
<event>
 5    1  0.8240609E+001  0.1591062E+01  0.7818608E-02  0.3363122E+00
         11   -1    0    0    0    0  0.00000000000E+00  0.00000000000E+00  0.39999999674E+01  0.40000000000E+01  0.51100000000E-03 0. -1.
    9000002   -1    0    0    0    0 -0.00000000000E+00 -0.00000000000E+00  0.00000000000E+00  0.93800000000E+00  0.93800000000E+00 0. -1.
         11    1    1    2    0    0 -0.16356479568E-01  0.27990606423E+00  0.10651124604E+01  0.11013989984E+01  0.51100000000E-03 0. -1.
    9000002    1    1    2    0    0 -0.26063722405E-01 -0.62726880389E+00  0.28557631649E+00  0.11642780177E+01  0.93800000000E+00 0. -1.
         22    1    1    2    0    0  0.42420201973E-01  0.34736273965E+00  0.26493111905E+01  0.26723229840E+01  0.00000000000E+00 0. -1.
</event>
<event>
 5    1  0.8240609E+001  0.1596649E+01  0.7818608E-02  0.3357008E+00
         11   -1    0    0    0    0  0.00000000000E+00  0.00000000000E+00  0.39999999674E+01  0.40000000000E+01  0.51100000000E-03 0.  1.
    9000002   -1    0    0    0    0 -0.00000000000E+00 -0.00000000000E+00  0.00000000000E+00  0.93800000000E+00  0.93800000000E+00 0. -1.
         11    1    1    2    0    0  0.22367069424E+00 -0.17428320494E-01  0.10810709659E+01  0.11041046238E+01  0.51100000000E-03 0.  1.
    9000002    1    1    2    0    0 -0.74831763242E+00 -0.14336829005E+00  0.42609395173E+00  0.12813796476E+01  0.93800000000E+00 0. -1.
         22    1    1    2    0    0  0.52464693819E+00  0.16079661055E+00  0.24928350497E+01  0.25525157286E+01  0.00000000000E+00 0.  1.
</event>
<event>
 5    1  0.8240609E+001  0.1598942E+01  0.7818608E-02  0.3354513E+00
         11   -1    0    0    0    0  0.00000000000E+00  0.00000000000E+00  0.39999999674E+01  0.40000000000E+01  0.51100000000E-03 0.  1.
    9000002   -1    0    0    0    0 -0.00000000000E+00 -0.00000000000E+00  0.00000000000E+00  0.93800000000E+00  0.93800000000E+00 0.  1.
         11    1    1    2    0    0  0.28946721835E-01 -0.20323902179E-01  0.52162697030E+00  0.52282495251E+00  0.51100000000E-03 0.  1.
    9000002    1    1    2    0    0 -0.16835569958E+00  0.31176328765E+00  0.84809871949E-01  0.10062687034E+01  0.93800000000E+00 0.  1.
         22    1    1    2    0    0  0.13940897775E+00 -0.29143938547E+00  0.33935631251E+01  0.34089063441E+01  0.00000000000E+00 0.  1.
</event>
<event>
 5    1  0.8240609E+001  0.1599638E+01  0.7818608E-02  0.3353756E+00
         11   -1    0    0    0    0  0.00000000000E+00  0.00000000000E+00  0.39999999674E+01  0.40000000000E+01  0.51100000000E-03 0.  1.
    9000002   -1    0    0    0    0 -0.00000000000E+00 -0.00000000000E+00  0.00000000000E+00  0.93800000000E+00  0.93800000000E+00 0.  1.
         11    1    1    2    0    0  0.38760883843E-01  0.72833290562E-01  0.72516945805E+00  0.72984799674E+00  0.51100000000E-03 0.  1.
    9000002    1    1    2    0    0 -0.23612099458E+00 -0.37846551595E+00  0.13510599534E+00  0.10474191620E+01  0.93800000000E+00 0.  1.
         22    1    1    2    0    0  0.19736011073E+00  0.30563222539E+00  0.31397245140E+01  0.31607328413E+01  0.00000000000E+00 0.  1.
</event>
<event>
 5    1  0.8240609E+001  0.1566476E+01  0.7818608E-02  0.3390572E+00
         11   -1    0    0    0    0  0.00000000000E+00  0.00000000000E+00  0.39999999674E+01  0.40000000000E+01  0.51100000000E-03 0.  1.
    9000002   -1    0    0    0    0 -0.00000000000E+00 -0.00000000000E+00  0.00000000000E+00  0.93800000000E+00  0.93800000000E+00 0. -1.
         11    1    1    2    0    0 -0.49799321839E-01 -0.37386773489E-01  0.64199429055E-01  0.89440321441E-01  0.51100000000E-03 0.  1.
    9000002    1    1    2    0    0  0.47190160398E+00 -0.54364964129E+00  0.41171174616E+00  0.12520369876E+01  0.93800000000E+00 0. -1.
         22    1    1    2    0    0 -0.42210228214E+00  0.58103641478E+00  0.35240887921E+01  0.35965226910E+01  0.00000000000E+00 0.  1.
</event>
<event>
 5    1  0.8240609E+001  0.1596143E+01  0.7818608E-02  0.3357560E+00
         11   -1    0    0    0    0  0.00000000000E+00  0.00000000000E+00  0.39999999674E+01  0.40000000000E+01  0.51100000000E-03 0.  1.
    9000002   -1    0    0    0    0 -0.00000000000E+00 -0.00000000000E+00  0.00000000000E+00  0.93800000000E+00  0.93800000000E+00 0. -1.
         11    1    1    2    0    0  0.32289795717E-01 -0.83208620747E-01  0.87247227132E+00  0.87702590088E+00  0.51100000000E-03 0.  1.
    9000002    1    1    2    0    0 -0.33490110295E+00  0.18567733994E+00  0.10160867934E+00  0.10182353102E+01  0.93800000000E+00 0. -1.
         22    1    1    2    0    0  0.30261130723E+00 -0.10246871919E+00  0.30259190167E+01  0.30427387889E+01  0.00000000000E+00 0.  1.
</event>
<event>
 5    1  0.8240609E+001  0.1535497E+01  0.7818608E-02  0.3426493E+00
         11   -1    0    0    0    0  0.00000000000E+00  0.00000000000E+00  0.39999999674E+01  0.40000000000E+01  0.51100000000E-03 0. -1.
    9000002   -1    0    0    0    0 -0.00000000000E+00 -0.00000000000E+00  0.00000000000E+00  0.93800000000E+00  0.93800000000E+00 0.  1.
         11    1    1    2    0    0 -0.61921437091E-01  0.22149612769E+00  0.80653149183E+00  0.83868236382E+00  0.51100000000E-03 0. -1.
    9000002    1    1    2    0    0  0.70801673040E-01  0.10191389259E+00  0.58800975020E-01  0.94799835077E+00  0.93800000000E+00 0.  1.
         22    1    1    2    0    0 -0.88802359491E-02 -0.32341002027E+00  0.31346675005E+01  0.31513192854E+01  0.00000000000E+00 0. -1.
</event>
<event>
 5    1  0.8240609E+001  0.1597783E+01  0.7818608E-02  0.3355773E+00
         11   -1    0    0    0    0  0.00000000000E+00  0.00000000000E+00  0.39999999674E+01  0.40000000000E+01  0.51100000000E-03 0. -1.
    9000002   -1    0    0    0    0 -0.00000000000E+00 -0.00000000000E+00  0.00000000000E+00  0.93800000000E+00  0.93800000000E+00 0. -1.
         11    1    1    2    0    0  0.68245927069E-01 -0.49610710163E-02  0.51979218200E+00  0.52427692336E+00  0.51100000000E-03 0. -1.
    9000002    1    1    2    0    0 -0.45353325590E+00 -0.22301690207E+00  0.17673086536E+00  0.10800494209E+01  0.93800000000E+00 0. -1.
         22    1    1    2    0    0  0.38528732883E+00  0.22797797309E+00  0.33034769200E+01  0.33336736557E+01  0.00000000000E+00 0. -1.
</event>
<event>
 5    1  0.8240609E+001  0.1599676E+01  0.7818608E-02  0.3353715E+00
         11   -1    0    0    0    0  0.00000000000E+00  0.00000000000E+00  0.39999999674E+01  0.40000000000E+01  0.51100000000E-03 0.  1.
    9000002   -1    0    0    0    0 -0.00000000000E+00 -0.00000000000E+00  0.00000000000E+00  0.93800000000E+00  0.93800000000E+00 0. -1.
         11    1    1    2    0    0  0.12917708139E+00 -0.11631675340E+00  0.14270090579E+01  0.14375574486E+01  0.51100000000E-03 0.  1.
    9000002    1    1    2    0    0 -0.34680983694E+00  0.31247830340E+00  0.14838406167E+00  0.10581973270E+01  0.93800000000E+00 0. -1.
         22    1    1    2    0    0  0.21763275555E+00 -0.19616155000E+00  0.24246068477E+01  0.24422452244E+01  0.00000000000E+00 0.  1.
</event>
<event>
 5    1  0.8240609E+001  0.1598953E+01  0.7818608E-02  0.3354501E+00
         11   -1    0    0    0    0  0.00000000000E+00  0.00000000000E+00  0.39999999674E+01  0.40000000000E+01  0.51100000000E-03 0. -1.
    9000002   -1    0    0    0    0 -0.00000000000E+00 -0.00000000000E+00  0.00000000000E+00  0.93800000000E+00  0.93800000000E+00 0. -1.
         11    1    1    2    0    0  0.94068596890E-01  0.55692999744E-02  0.10357114644E+01  0.10399896233E+01  0.51100000000E-03 0. -1.
    9000002    1    1    2    0    0 -0.35552664213E+00  0.86859022502E-01  0.90562363532E-01  0.10109348271E+01  0.93800000000E+00 0. -1.
         22    1    1    2    0    0  0.26145804524E+00 -0.92428322476E-01  0.28737261394E+01  0.28870755495E+01  0.00000000000E+00 0. -1.
</event>
<event>
 5    1  0.8240609E+001  0.1599663E+01  0.7818608E-02  0.3353729E+00
         11   -1    0    0    0    0  0.00000000000E+00  0.00000000000E+00  0.39999999674E+01  0.40000000000E+01  0.51100000000E-03 0.  1.
    9000002   -1    0    0    0    0 -0.00000000000E+00 -0.00000000000E+00  0.00000000000E+00  0.93800000000E+00  0.93800000000E+00 0. -1.
         11    1    1    2    0    0 -0.38064492282E-01 -0.14003954862E+00  0.94949766490E+00  0.96052384536E+00  0.51100000000E-03 0.  1.
    9000002    1    1    2    0    0  0.13686080169E+00  0.55179193052E+00  0.22405495474E+00  0.11194864163E+01  0.93800000000E+00 0. -1.
         22    1    1    2    0    0 -0.98796309405E-01 -0.41175238190E+00  0.28264473477E+01  0.28579897383E+01  0.00000000000E+00 0.  1.
</event>
<event>
 5    1  0.8240609E+001  0.1599605E+01  0.7818608E-02  0.3353792E+00
         11   -1    0    0    0    0  0.00000000000E+00  0.00000000000E+00  0.39999999674E+01  0.40000000000E+01  0.51100000000E-03 0.  1.
    9000002   -1    0    0    0    0 -0.00000000000E+00 -0.00000000000E+00  0.00000000000E+00  0.93800000000E+00  0.93800000000E+00 0.  1.
         11    1    1    2    0    0 -0.36185031697E-01 -0.73804974737E-01  0.58261755014E+00  0.58838762875E+00  0.51100000000E-03 0.  1.
    9000002    1    1    2    0    0  0.21807709630E+00  0.44136721279E+00  0.16576322644E+00  0.10722332226E+01  0.93800000000E+00 0.  1.
         22    1    1    2    0    0 -0.18189206460E+00 -0.36756223805E+00  0.32516191908E+01  0.32773791486E+01  0.00000000000E+00 0.  1.
</event>
<event>
 5    1  0.8240609E+001  0.1599675E+01  0.7818608E-02  0.3353716E+00
         11   -1    0    0    0    0  0.00000000000E+00  0.00000000000E+00  0.39999999674E+01  0.40000000000E+01  0.51100000000E-03 0.  1.
    9000002   -1    0    0    0    0 -0.00000000000E+00 -0.00000000000E+00  0.00000000000E+00  0.93800000000E+00  0.93800000000E+00 0. -1.
         11    1    1    2    0    0 -0.27497337031E-01  0.24830678527E-01  0.27796372133E+00  0.28042246279E+00  0.51100000000E-03 0.  1.
    9000002    1    1    2    0    0  0.38692933380E+00 -0.34223566470E+00  0.18318761778E+00  0.10863890937E+01  0.93800000000E+00 0. -1.
         22    1    1    2    0    0 -0.35943199677E+00  0.31740498618E+00  0.35388486283E+01  0.35711884435E+01  0.00000000000E+00 0.  1.
</event>
<event>
 5    1  0.8240609E+001  0.1599677E+01  0.7818608E-02  0.3353714E+00
         11   -1    0    0    0    0  0.00000000000E+00  0.00000000000E+00  0.39999999674E+01  0.40000000000E+01  0.51100000000E-03 0. -1.
    9000002   -1    0    0    0    0 -0.00000000000E+00 -0.00000000000E+00  0.00000000000E+00  0.93800000000E+00  0.93800000000E+00 0. -1.
         11    1    1    2    0    0  0.13459208676E+00  0.47430024627E-01  0.12028886185E+01  0.12113240387E+01  0.51100000000E-03 0.  1.
    9000002    1    1    2    0    0 -0.43187553953E+00 -0.15194179143E+00  0.14252501821E+00  0.10534515511E+01  0.93800000000E+00 0. -1.
         22    1    1    2    0    0  0.29728345277E+00  0.10451176680E+00  0.26545863306E+01  0.26732244102E+01  0.00000000000E+00 0. -1.
</event>
<event>
 5    1  0.8240609E+001  0.1599641E+01  0.7818608E-02  0.3353753E+00
         11   -1    0    0    0    0  0.00000000000E+00  0.00000000000E+00  0.39999999674E+01  0.40000000000E+01  0.51100000000E-03 0. -1.
    9000002   -1    0    0    0    0 -0.00000000000E+00 -0.00000000000E+00  0.00000000000E+00  0.93800000000E+00  0.93800000000E+00 0. -1.
         11    1    1    2    0    0 -0.26844568164E+00 -0.11592882221E+00  0.11284207286E+01  0.11656912875E+01  0.51100000000E-03 0. -1.
    9000002    1    1    2    0    0  0.79810780598E+00  0.34135009993E+00  0.56917347974E+00  0.13990348140E+01  0.93800000000E+00 0. -1.
         22    1    1    2    0    0 -0.52966212435E+00 -0.22542127772E+00  0.23024057590E+01  0.23732738986E+01  0.00000000000E+00 0. -1.
</event>
<event>
 5    1  0.8240609E+001  0.1598355E+01  0.7818608E-02  0.3355151E+00
         11   -1    0    0    0    0  0.00000000000E+00  0.00000000000E+00  0.39999999674E+01  0.40000000000E+01  0.51100000000E-03 0. -1.
    9000002   -1    0    0    0    0 -0.00000000000E+00 -0.00000000000E+00  0.00000000000E+00  0.93800000000E+00  0.93800000000E+00 0. -1.
         11    1    1    2    0    0  0.75218727558E-02 -0.56484727962E-02  0.11508426961E+00  0.11546919090E+00  0.51100000000E-03 0. -1.
    9000002    1    1    2    0    0 -0.17967866701E+00 -0.30453010318E+00  0.84929992177E-01  0.10060219236E+01  0.93800000000E+00 0. -1.
         22    1    1    2    0    0  0.17215679426E+00  0.31017857597E+00  0.37999857056E+01  0.38165088855E+01  0.00000000000E+00 0. -1.
</event>
<event>
 5    1  0.8240609E+001  0.1599590E+01  0.7818608E-02  0.3353808E+00
         11   -1    0    0    0    0  0.00000000000E+00  0.00000000000E+00  0.39999999674E+01  0.40000000000E+01  0.51100000000E-03 0.  1.
    9000002   -1    0    0    0    0 -0.00000000000E+00 -0.00000000000E+00  0.00000000000E+00  0.93800000000E+00  0.93800000000E+00 0.  1.
         11    1    1    2    0    0 -0.17944714778E-01 -0.18777220472E-02  0.14487835422E+00  0.14599841531E+00  0.51100000000E-03 0.  1.
    9000002    1    1    2    0    0  0.37386567797E+00  0.19735272177E-01  0.94316119884E-01  0.10143493267E+01  0.93800000000E+00 0.  1.
         22    1    1    2    0    0 -0.35592096320E+00 -0.17857550130E-01  0.37608054933E+01  0.37776522580E+01  0.00000000000E+00 0.  1.
</event>
<event>
 5    1  0.8240609E+001  0.1580038E+01  0.7818608E-02  0.3375319E+00
         11   -1    0    0    0    0  0.00000000000E+00  0.00000000000E+00  0.39999999674E+01  0.40000000000E+01  0.51100000000E-03 0. -1.
    9000002   -1    0    0    0    0 -0.00000000000E+00 -0.00000000000E+00  0.00000000000E+00  0.93800000000E+00  0.93800000000E+00 0. -1.
         11    1    1    2    0    0  0.14209407405E+00  0.50109436475E-01  0.99087643543E+00  0.10022664580E+01  0.51100000000E-03 0. -1.
    9000002    1    1    2    0    0 -0.16466547067E+00  0.22377307686E+00  0.66750835080E-01  0.98055534323E+00  0.93800000000E+00 0. -1.
         22    1    1    2    0    0  0.22571396625E-01 -0.27388251333E+00  0.29423726969E+01  0.29551781987E+01  0.00000000000E+00 0. -1.
</event>
<event>
 5    1  0.8240609E+001  0.1472027E+01  0.7818608E-02  0.3505159E+00
         11   -1    0    0    0    0  0.00000000000E+00  0.00000000000E+00  0.39999999674E+01  0.40000000000E+01  0.51100000000E-03 0.  1.
    9000002   -1    0    0    0    0 -0.00000000000E+00 -0.00000000000E+00  0.00000000000E+00  0.93800000000E+00  0.93800000000E+00 0.  1.
         11    1    1    2    0    0 -0.37364019795E-01  0.15221285113E+00  0.35750981994E-01  0.16075825285E+00  0.51100000000E-03 0.  1.
    9000002    1    1    2    0    0 -0.97199051532E-01 -0.66501514663E+00  0.47486412075E+00  0.12478111772E+01  0.93800000000E+00 0.  1.
         22    1    1    2    0    0  0.13456307133E+00  0.51280229550E+00  0.34893848646E+01  0.35294305699E+01  0.00000000000E+00 0.  1.
</event>
<event>
 5    1  0.8240609E+001  0.1599622E+01  0.7818608E-02  0.3353774E+00
         11   -1    0    0    0    0  0.00000000000E+00  0.00000000000E+00  0.39999999674E+01  0.40000000000E+01  0.51100000000E-03 0. -1.
    9000002   -1    0    0    0    0 -0.00000000000E+00 -0.00000000000E+00  0.00000000000E+00  0.93800000000E+00  0.93800000000E+00 0. -1.
         11    1    1    2    0    0  0.11869912650E-01  0.61000189682E-02  0.10928505584E+00  0.11009809085E+00  0.51100000000E-03 0. -1.
    9000002    1    1    2    0    0 -0.45124023150E+00 -0.11739831670E+00  0.14806512659E+00  0.10579070815E+01  0.93800000000E+00 0. -1.
         22    1    1    2    0    0  0.43937031885E+00  0.11129829773E+00  0.37426497849E+01  0.37699948277E+01  0.00000000000E+00 0. -1.
</event>
<event>
 5    1  0.8240609E+001  0.1544465E+01  0.7818608E-02  0.3415937E+00
         11   -1    0    0    0    0  0.00000000000E+00  0.00000000000E+00  0.39999999674E+01  0.40000000000E+01  0.51100000000E-03 0.  1.
    9000002   -1    0    0    0    0 -0.00000000000E+00 -0.00000000000E+00  0.00000000000E+00  0.93800000000E+00  0.93800000000E+00 0. -1.
         11    1    1    2    0    0  0.82257473427E-01  0.76168440570E-01  0.18676006105E+00  0.21782448163E+00  0.51100000000E-03 0.  1.
    9000002    1    1    2    0    0  0.19511389351E+00  0.15280410563E+00  0.84203708326E-01  0.97383406730E+00  0.93800000000E+00 0. -1.
         22    1    1    2    0    0 -0.27737136694E+00 -0.22897254620E+00  0.37290361980E+01  0.37463414511E+01  0.00000000000E+00 0.  1.
</event>
<event>
 5    1  0.8240609E+001  0.1599112E+01  0.7818608E-02  0.3354328E+00
         11   -1    0    0    0    0  0.00000000000E+00  0.00000000000E+00  0.39999999674E+01  0.40000000000E+01  0.51100000000E-03 0. -1.
    9000002   -1    0    0    0    0 -0.00000000000E+00 -0.00000000000E+00  0.00000000000E+00  0.93800000000E+00  0.93800000000E+00 0. -1.
         11    1    1    2    0    0 -0.34496916724E-01 -0.64803090209E-01  0.86272330945E+00  0.86584135241E+00  0.51100000000E-03 0. -1.
    9000002    1    1    2    0    0  0.79207205538E-01  0.36836211939E+00  0.95945330900E-01  0.10153885655E+01  0.93800000000E+00 0. -1.
         22    1    1    2    0    0 -0.44710288814E-01 -0.30355902918E+00  0.30413313270E+01  0.30567700821E+01  0.00000000000E+00 0. -1.
</event>
<event>
 5    1  0.8240609E+001  0.1599676E+01  0.7818608E-02  0.3353715E+00
         11   -1    0    0    0    0  0.00000000000E+00  0.00000000000E+00  0.39999999674E+01  0.40000000000E+01  0.51100000000E-03 0.  1.
    9000002   -1    0    0    0    0 -0.00000000000E+00 -0.00000000000E+00  0.00000000000E+00  0.93800000000E+00  0.93800000000E+00 0.  1.
         11    1    1    2    0    0 -0.50440122106E-01  0.11883548624E+00  0.86180778319E+00  0.87142354513E+00  0.51100000000E-03 0.  1.
    9000002    1    1    2    0    0  0.21723289357E+00 -0.51989948860E+00  0.21985872243E+00  0.11160947389E+01  0.93800000000E+00 0.  1.
         22    1    1    2    0    0 -0.16679277146E+00  0.40106400236E+00  0.29183334617E+01  0.29504817160E+01  0.00000000000E+00 0. -1.
</event>
<event>
 5    1  0.8240609E+001  0.1599668E+01  0.7818608E-02  0.3353724E+00
         11   -1    0    0    0    0  0.00000000000E+00  0.00000000000E+00  0.39999999674E+01  0.40000000000E+01  0.51100000000E-03 0. -1.
    9000002   -1    0    0    0    0 -0.00000000000E+00 -0.00000000000E+00  0.00000000000E+00  0.93800000000E+00  0.93800000000E+00 0.  1.
         11    1    1    2    0    0  0.75202435674E-01  0.33591519695E-01  0.74000257271E+00  0.74457227001E+00  0.51100000000E-03 0. -1.
    9000002    1    1    2    0    0 -0.40280247274E+00 -0.16387416933E+00  0.12816420830E+00  0.10418131501E+01  0.93800000000E+00 0.  1.
         22    1    1    2    0    0  0.32760003706E+00  0.13028264964E+00  0.31318331864E+01  0.31516145799E+01  0.00000000000E+00 0. -1.
</event>
<event>
 5    1  0.8240609E+001  0.1489279E+01  0.7818608E-02  0.3483062E+00
         11   -1    0    0    0    0  0.00000000000E+00  0.00000000000E+00  0.39999999674E+01  0.40000000000E+01  0.51100000000E-03 0.  1.
    9000002   -1    0    0    0    0 -0.00000000000E+00 -0.00000000000E+00  0.00000000000E+00  0.93800000000E+00  0.93800000000E+00 0.  1.
         11    1    1    2    0    0 -0.19009318624E+00 -0.98865856741E-01  0.11476131539E+00  0.24306439006E+00  0.51100000000E-03 0.  1.
    9000002    1    1    2    0    0 -0.28366272998E+00  0.14859666260E+00  0.24144963493E+00  0.10201408916E+01  0.93800000000E+00 0.  1.
         22    1    1    2    0    0  0.47375591622E+00 -0.49730805862E-01  0.36437890170E+01  0.36747947183E+01  0.00000000000E+00 0.  1.
</event>
<event>
 5    1  0.8240609E+001  0.1599677E+01  0.7818608E-02  0.3353714E+00
         11   -1    0    0    0    0  0.00000000000E+00  0.00000000000E+00  0.39999999674E+01  0.40000000000E+01  0.51100000000E-03 0.  1.
    9000002   -1    0    0    0    0 -0.00000000000E+00 -0.00000000000E+00  0.00000000000E+00  0.93800000000E+00  0.93800000000E+00 0. -1.
         11    1    1    2    0    0 -0.11021951094E-01 -0.14718630001E+00  0.13171201259E+01  0.13253644697E+01  0.51100000000E-03 0.  1.
    9000002    1    1    2    0    0  0.32811525228E-01  0.43344032395E+00  0.12804623854E+00  0.10417230677E+01  0.93800000000E+00 0. -1.
         22    1    1    2    0    0 -0.21789574134E-01 -0.28625402394E+00  0.25548336029E+01  0.25709124626E+01  0.00000000000E+00 0.  1.
</event>
<event>
 5    1  0.8240609E+001  0.1599273E+01  0.7818608E-02  0.3354153E+00
         11   -1    0    0    0    0  0.00000000000E+00  0.00000000000E+00  0.39999999674E+01  0.40000000000E+01  0.51100000000E-03 0. -1.
    9000002   -1    0    0    0    0 -0.00000000000E+00 -0.00000000000E+00  0.00000000000E+00  0.93800000000E+00  0.93800000000E+00 0.  1.
         11    1    1    2    0    0  0.46473332611E-01  0.17144286234E+00  0.84266263299E+00  0.86118116553E+00  0.51100000000E-03 0. -1.
    9000002    1    1    2    0    0 -0.27967663933E+00 -0.69942603028E+00  0.41223324099E+00  0.12716902293E+01  0.93800000000E+00 0.  1.
         22    1    1    2    0    0  0.23320330672E+00  0.52798316793E+00  0.27451040934E+01  0.28051286051E+01  0.00000000000E+00 0. -1.
</event>
<event>
 5    1  0.8240609E+001  0.1599668E+01  0.7818608E-02  0.3353724E+00
         11   -1    0    0    0    0  0.00000000000E+00  0.00000000000E+00  0.39999999674E+01  0.40000000000E+01  0.51100000000E-03 0.  1.
    9000002   -1    0    0    0    0 -0.00000000000E+00 -0.00000000000E+00  0.00000000000E+00  0.93800000000E+00  0.93800000000E+00 0.  1.
         11    1    1    2    0    0  0.23167588669E+00 -0.36619395586E+00  0.13622060117E+01  0.14294674565E+01  0.51100000000E-03 0.  1.
    9000002    1    1    2    0    0 -0.54173207972E+00  0.85844734973E+00  0.83631842623E+00  0.16154497852E+01  0.93800000000E+00 0.  1.
         22    1    1    2    0    0  0.31005619302E+00 -0.49225339387E+00  0.18014755294E+01  0.18930827583E+01  0.00000000000E+00 0.  1.
</event>
<event>
 5    1  0.8240609E+001  0.1584334E+01  0.7818608E-02  0.3370544E+00
         11   -1    0    0    0    0  0.00000000000E+00  0.00000000000E+00  0.39999999674E+01  0.40000000000E+01  0.51100000000E-03 0.  1.
    9000002   -1    0    0    0    0 -0.00000000000E+00 -0.00000000000E+00  0.00000000000E+00  0.93800000000E+00  0.93800000000E+00 0.  1.
         11    1    1    2    0    0  0.40063357542E-01 -0.18423282170E-01  0.10427265686E+00  0.11321456635E+00  0.51100000000E-03 0.  1.
    9000002    1    1    2    0    0  0.33430426116E+00  0.48982949161E+00  0.26031226125E+00  0.11398678622E+01  0.93800000000E+00 0.  1.
         22    1    1    2    0    0 -0.37436761870E+00 -0.47140620944E+00  0.36354150492E+01  0.36849175715E+01  0.00000000000E+00 0.  1.
</event>
<event>
 5    1  0.8240609E+001  0.1599203E+01  0.7818608E-02  0.3354229E+00
         11   -1    0    0    0    0  0.00000000000E+00  0.00000000000E+00  0.39999999674E+01  0.40000000000E+01  0.51100000000E-03 0. -1.
    9000002   -1    0    0    0    0 -0.00000000000E+00 -0.00000000000E+00  0.00000000000E+00  0.93800000000E+00  0.93800000000E+00 0.  1.
         11    1    1    2    0    0  0.89633397926E-01 -0.31279438921E+00  0.97017509773E+00  0.10232861073E+01  0.51100000000E-03 0. -1.
    9000002    1    1    2    0    0 -0.21071674161E+00  0.10089415931E+01  0.87155476846E+00  0.16437202919E+01  0.93800000000E+00 0.  1.
         22    1    1    2    0    0  0.12108334369E+00 -0.69614720388E+00  0.21582701012E+01  0.22709936009E+01  0.00000000000E+00 0. -1.
</event>
<event>
 5    1  0.8240609E+001  0.1546400E+01  0.7818608E-02  0.3413676E+00
         11   -1    0    0    0    0  0.00000000000E+00  0.00000000000E+00  0.39999999674E+01  0.40000000000E+01  0.51100000000E-03 0.  1.
    9000002   -1    0    0    0    0 -0.00000000000E+00 -0.00000000000E+00  0.00000000000E+00  0.93800000000E+00  0.93800000000E+00 0.  1.
         11    1    1    2    0    0  0.92008752018E-01 -0.21147853514E+00  0.11549771548E+01  0.11777781075E+01  0.51100000000E-03 0.  1.
    9000002    1    1    2    0    0 -0.26501384152E-01 -0.92056491335E-01  0.45971793239E-01  0.94399900780E+00  0.93800000000E+00 0.  1.
         22    1    1    2    0    0 -0.65507367866E-01  0.30353502647E+00  0.27990510193E+01  0.28162228847E+01  0.00000000000E+00 0.  1.
</event>
<event>
 5    1  0.8240609E+001  0.1599677E+01  0.7818608E-02  0.3353714E+00
         11   -1    0    0    0    0  0.00000000000E+00  0.00000000000E+00  0.39999999674E+01  0.40000000000E+01  0.51100000000E-03 0. -1.
    9000002   -1    0    0    0    0 -0.00000000000E+00 -0.00000000000E+00  0.00000000000E+00  0.93800000000E+00  0.93800000000E+00 0. -1.
         11    1    1    2    0    0 -0.89706224781E-01  0.17955603119E+00  0.80086860018E+00  0.82563814772E+00  0.51100000000E-03 0.  1.
    9000002    1    1    2    0    0  0.38636325299E+00 -0.77154259224E+00  0.56121583854E+00  0.13926096913E+01  0.93800000000E+00 0. -1.
         22    1    1    2    0    0 -0.29665702820E+00  0.59198656105E+00  0.26379155286E+01  0.27197521610E+01  0.00000000000E+00 0. -1.
</event>
<event>
 5    1  0.8240609E+001  0.1512179E+01  0.7818608E-02  0.3454569E+00
         11   -1    0    0    0    0  0.00000000000E+00  0.00000000000E+00  0.39999999674E+01  0.40000000000E+01  0.51100000000E-03 0. -1.
    9000002   -1    0    0    0    0 -0.00000000000E+00 -0.00000000000E+00  0.00000000000E+00  0.93800000000E+00  0.93800000000E+00 0. -1.
         11    1    1    2    0    0  0.34541895330E+00 -0.62548570360E-01  0.34129619761E+00  0.48960181023E+00  0.51100000000E-03 0. -1.
    9000002    1    1    2    0    0 -0.88211349693E-01 -0.22724572568E+00  0.22765072004E+00  0.99553538982E+00  0.93800000000E+00 0. -1.
         22    1    1    2    0    0 -0.25720760360E+00  0.28979429604E+00  0.34310530497E+01  0.34528628000E+01  0.00000000000E+00 0. -1.
</event>
<event>
 5    1  0.8240609E+001  0.1486111E+01  0.7818608E-02  0.3487078E+00
         11   -1    0    0    0    0  0.00000000000E+00  0.00000000000E+00  0.39999999674E+01  0.40000000000E+01  0.51100000000E-03 0.  1.
    9000002   -1    0    0    0    0 -0.00000000000E+00 -0.00000000000E+00  0.00000000000E+00  0.93800000000E+00  0.93800000000E+00 0.  1.
         11    1    1    2    0    0 -0.13992858278E+00 -0.16114714850E-01  0.57906548434E-01  0.15229288160E+00  0.51100000000E-03 0.  1.
    9000002    1    1    2    0    0  0.17838249757E+00  0.57471450409E+00  0.37634364767E+00  0.11762634134E+01  0.93800000000E+00 0.  1.
         22    1    1    2    0    0 -0.38453914795E-01 -0.55859978924E+00  0.35657497713E+01  0.36094437050E+01  0.00000000000E+00 0.  1.
</event>
<event>
 5    1  0.8240609E+001  0.1511568E+01  0.7818608E-02  0.3455317E+00
         11   -1    0    0    0    0  0.00000000000E+00  0.00000000000E+00  0.39999999674E+01  0.40000000000E+01  0.51100000000E-03 0. -1.
    9000002   -1    0    0    0    0 -0.00000000000E+00 -0.00000000000E+00  0.00000000000E+00  0.93800000000E+00  0.93800000000E+00 0.  1.
         11    1    1    2    0    0 -0.48057618873E-02 -0.42712803167E-02 -0.32577536554E-01  0.33209880936E-01  0.51100000000E-03 0. -1.
    9000002    1    1    2    0    0  0.26097079619E+00 -0.24253178168E+00  0.16017516043E+00  0.10160843979E+01  0.93800000000E+00 0.  1.
         22    1    1    2    0    0 -0.25616503430E+00  0.24680306199E+00  0.38724023435E+01  0.38887057212E+01  0.00000000000E+00 0. -1.
</event>
<event>
 5    1  0.8240609E+001  0.1598681E+01  0.7818608E-02  0.3354796E+00
         11   -1    0    0    0    0  0.00000000000E+00  0.00000000000E+00  0.39999999674E+01  0.40000000000E+01  0.51100000000E-03 0. -1.
    9000002   -1    0    0    0    0 -0.00000000000E+00 -0.00000000000E+00  0.00000000000E+00  0.93800000000E+00  0.93800000000E+00 0.  1.
         11    1    1    2    0    0  0.70050842517E-01  0.73864220456E-01  0.10021528442E+01  0.10073100952E+01  0.51100000000E-03 0. -1.
    9000002    1    1    2    0    0 -0.16302861200E+00 -0.35572656513E+00  0.10399240844E+00  0.10216546082E+01  0.93800000000E+00 0.  1.
         22    1    1    2    0    0  0.92977769488E-01  0.28186234468E+00  0.28938547147E+01  0.29090352966E+01  0.00000000000E+00 0. -1.
</event>
<event>
 5    1  0.8240609E+001  0.1599434E+01  0.7818608E-02  0.3353978E+00
         11   -1    0    0    0    0  0.00000000000E+00  0.00000000000E+00  0.39999999674E+01  0.40000000000E+01  0.51100000000E-03 0.  1.
    9000002   -1    0    0    0    0 -0.00000000000E+00 -0.00000000000E+00  0.00000000000E+00  0.93800000000E+00  0.93800000000E+00 0.  1.
         11    1    1    2    0    0  0.10917555625E+00 -0.35859765139E-01  0.13790426647E+01  0.13838222997E+01  0.51100000000E-03 0.  1.
    9000002    1    1    2    0    0 -0.35548099165E+00  0.12272414185E+00  0.95312242691E-01  0.10150647142E+01  0.93800000000E+00 0.  1.
         22    1    1    2    0    0  0.24630543540E+00 -0.86864376709E-01  0.25256450600E+01  0.25391129861E+01  0.00000000000E+00 0.  1.
</event>
<event>
 5    1  0.8240609E+001  0.1599579E+01  0.7818608E-02  0.3353820E+00
         11   -1    0    0    0    0  0.00000000000E+00  0.00000000000E+00  0.39999999674E+01  0.40000000000E+01  0.51100000000E-03 0.  1.
    9000002   -1    0    0    0    0 -0.00000000000E+00 -0.00000000000E+00  0.00000000000E+00  0.93800000000E+00  0.93800000000E+00 0.  1.
         11    1    1    2    0    0 -0.85389821536E-01  0.14751628501E-01  0.57801512994E+00  0.58447479306E+00  0.51100000000E-03 0.  1.
    9000002    1    1    2    0    0  0.51636902659E+00 -0.65630952583E-01  0.18622331333E+00  0.10887917689E+01  0.93800000000E+00 0.  1.
         22    1    1    2    0    0 -0.43097920505E+00  0.50879324082E-01  0.32357615241E+01  0.32647334381E+01  0.00000000000E+00 0.  1.
</event>
<event>
 5    1  0.8240609E+001  0.1599661E+01  0.7818608E-02  0.3353731E+00
         11   -1    0    0    0    0  0.00000000000E+00  0.00000000000E+00  0.39999999674E+01  0.40000000000E+01  0.51100000000E-03 0. -1.
    9000002   -1    0    0    0    0 -0.00000000000E+00 -0.00000000000E+00  0.00000000000E+00  0.93800000000E+00  0.93800000000E+00 0.  1.
         11    1    1    2    0    0  0.40623014190E-01  0.11231587022E+00  0.13525540307E+01  0.13578172746E+01  0.51100000000E-03 0. -1.
    9000002    1    1    2    0    0 -0.11550337437E+00 -0.33808588334E+00  0.85668259732E-01  0.10073857974E+01  0.93800000000E+00 0.  1.
         22    1    1    2    0    0  0.74880360179E-01  0.22577001312E+00  0.25617776769E+01  0.25727969281E+01  0.00000000000E+00 0. -1.
</event>
<event>
 5    1  0.8240609E+001  0.1572621E+01  0.7818608E-02  0.3383626E+00
         11   -1    0    0    0    0  0.00000000000E+00  0.00000000000E+00  0.39999999674E+01  0.40000000000E+01  0.51100000000E-03 0.  1.
    9000002   -1    0    0    0    0 -0.00000000000E+00 -0.00000000000E+00  0.00000000000E+00  0.93800000000E+00  0.93800000000E+00 0.  1.
         11    1    1    2    0    0  0.14945341966E+00  0.12806173192E+00  0.12846774910E+01  0.12996663606E+01  0.51100000000E-03 0.  1.
    9000002    1    1    2    0    0 -0.22836570077E+00  0.12828365352E+00  0.66701161602E-01  0.97616629424E+00  0.93800000000E+00 0.  1.
         22    1    1    2    0    0  0.78912281111E-01 -0.25634538544E+00  0.26486213147E+01  0.26621673452E+01  0.00000000000E+00 0.  1.
</event>
<event>
 5    1  0.8240609E+001  0.1597378E+01  0.7818608E-02  0.3356214E+00
         11   -1    0    0    0    0  0.00000000000E+00  0.00000000000E+00  0.39999999674E+01  0.40000000000E+01  0.51100000000E-03 0. -1.
    9000002   -1    0    0    0    0 -0.00000000000E+00 -0.00000000000E+00  0.00000000000E+00  0.93800000000E+00  0.93800000000E+00 0.  1.
         11    1    1    2    0    0 -0.14021426387E-01 -0.93626751284E-01  0.97404119475E+00  0.97863122735E+00  0.51100000000E-03 0. -1.
    9000002    1    1    2    0    0 -0.14290651142E+00  0.38935062404E+00  0.11818870285E+00  0.10323898241E+01  0.93800000000E+00 0.  1.
         22    1    1    2    0    0  0.15692793781E+00 -0.29572387276E+00  0.29077700698E+01  0.29269789485E+01  0.00000000000E+00 0. -1.
</event>
<event>
 5    1  0.8240609E+001  0.1596321E+01  0.7818608E-02  0.3357367E+00
         11   -1    0    0    0    0  0.00000000000E+00  0.00000000000E+00  0.39999999674E+01  0.40000000000E+01  0.51100000000E-03 0.  1.
    9000002   -1    0    0    0    0 -0.00000000000E+00 -0.00000000000E+00  0.00000000000E+00  0.93800000000E+00  0.93800000000E+00 0.  1.
         11    1    1    2    0    0  0.42016468393E-01 -0.18014955949E-01  0.14304133946E+00  0.15016993097E+00  0.51100000000E-03 0.  1.
    9000002    1    1    2    0    0 -0.39744971253E+00  0.39396027759E+00  0.21991241277E+00  0.11141707426E+01  0.93800000000E+00 0.  1.
         22    1    1    2    0    0  0.35543324413E+00 -0.37594532164E+00  0.36370462151E+01  0.36736593265E+01  0.00000000000E+00 0.  1.
</event>
<event>
 5    1  0.8240609E+001  0.1597079E+01  0.7818608E-02  0.3356540E+00
         11   -1    0    0    0    0  0.00000000000E+00  0.00000000000E+00  0.39999999674E+01  0.40000000000E+01  0.51100000000E-03 0.  1.
    9000002   -1    0    0    0    0 -0.00000000000E+00 -0.00000000000E+00  0.00000000000E+00  0.93800000000E+00  0.93800000000E+00 0.  1.
         11    1    1    2    0    0  0.22177465059E+00  0.28180275941E+00  0.13388429539E+01  0.13860366183E+01  0.51100000000E-03 0.  1.
    9000002    1    1    2    0    0 -0.44752051883E+00 -0.65952249433E+00  0.47082008308E+00  0.13178619374E+01  0.93800000000E+00 0.  1.
         22    1    1    2    0    0  0.22574586823E+00  0.37771973492E+00  0.21903369304E+01  0.22341014444E+01  0.00000000000E+00 0.  1.
</event>
<event>
 5    1  0.8240609E+001  0.1599296E+01  0.7818608E-02  0.3354128E+00
         11   -1    0    0    0    0  0.00000000000E+00  0.00000000000E+00  0.39999999674E+01  0.40000000000E+01  0.51100000000E-03 0.  1.
    9000002   -1    0    0    0    0 -0.00000000000E+00 -0.00000000000E+00  0.00000000000E+00  0.93800000000E+00  0.93800000000E+00 0. -1.
         11    1    1    2    0    0 -0.52079204772E-02 -0.39739749973E-03  0.65764157797E-01  0.65973221327E-01  0.51100000000E-03 0.  1.
    9000002    1    1    2    0    0  0.23372606951E+00  0.37207714811E+00  0.13125388544E+00  0.10440981095E+01  0.93800000000E+00 0. -1.
         22    1    1    2    0    0 -0.22851814904E+00 -0.37167975061E+00  0.38029819241E+01  0.38279286692E+01  0.00000000000E+00 0.  1.
</event>
<event>
 5    1  0.8240609E+001  0.1599659E+01  0.7818608E-02  0.3353734E+00
         11   -1    0    0    0    0  0.00000000000E+00  0.00000000000E+00  0.39999999674E+01  0.40000000000E+01  0.51100000000E-03 0.  1.
    9000002   -1    0    0    0    0 -0.00000000000E+00 -0.00000000000E+00  0.00000000000E+00  0.93800000000E+00  0.93800000000E+00 0. -1.
         11    1    1    2    0    0 -0.19780598850E+00  0.22730174998E+00  0.10629487160E+01  0.11048319006E+01  0.51100000000E-03 0.  1.
    9000002    1    1    2    0    0  0.62778146379E+00 -0.69874082146E+00  0.68763137951E+00  0.14950014100E+01  0.93800000000E+00 0. -1.
         22    1    1    2    0    0 -0.42997547529E+00  0.47143907148E+00  0.22494198719E+01  0.23381666894E+01  0.00000000000E+00 0.  1.
</event>
<event>
 5    1  0.8240609E+001  0.1599653E+01  0.7818608E-02  0.3353740E+00
         11   -1    0    0    0    0  0.00000000000E+00  0.00000000000E+00  0.39999999674E+01  0.40000000000E+01  0.51100000000E-03 0. -1.
    9000002   -1    0    0    0    0 -0.00000000000E+00 -0.00000000000E+00  0.00000000000E+00  0.93800000000E+00  0.93800000000E+00 0. -1.
         11    1    1    2    0    0  0.13869419032E-01  0.56300763024E-02  0.12334409035E+00  0.12425008769E+00  0.51100000000E-03 0. -1.
    9000002    1    1    2    0    0 -0.38775258988E+00 -0.21783356312E+00  0.13426204089E+00  0.10467443947E+01  0.93800000000E+00 0. -1.
         22    1    1    2    0    0  0.37388317085E+00  0.21220348681E+00  0.37423938361E+01  0.37670055176E+01  0.00000000000E+00 0. -1.
</event>
<event>
 5    1  0.8240609E+001  0.1599671E+01  0.7818608E-02  0.3353721E+00
         11   -1    0    0    0    0  0.00000000000E+00  0.00000000000E+00  0.39999999674E+01  0.40000000000E+01  0.51100000000E-03 0.  1.
    9000002   -1    0    0    0    0 -0.00000000000E+00 -0.00000000000E+00  0.00000000000E+00  0.93800000000E+00  0.93800000000E+00 0. -1.
         11    1    1    2    0    0 -0.68871363613E-01 -0.12068613007E+00  0.13943333595E+01  0.14012402311E+01  0.51100000000E-03 0.  1.
    9000002    1    1    2    0    0  0.19866050174E+00  0.34189693610E+00  0.10541105031E+00  0.10233840918E+01  0.93800000000E+00 0. -1.
         22    1    1    2    0    0 -0.12978913813E+00 -0.22121080603E+00  0.25002555575E+01  0.25133756770E+01  0.00000000000E+00 0.  1.
</event>
<event>
 5    1  0.8240609E+001  0.1599677E+01  0.7818608E-02  0.3353714E+00
         11   -1    0    0    0    0  0.00000000000E+00  0.00000000000E+00  0.39999999674E+01  0.40000000000E+01  0.51100000000E-03 0. -1.
    9000002   -1    0    0    0    0 -0.00000000000E+00 -0.00000000000E+00  0.00000000000E+00  0.93800000000E+00  0.93800000000E+00 0.  1.
         11    1    1    2    0    0 -0.16126483936E+00 -0.25789161102E-01  0.12926259774E+01  0.13029019947E+01  0.51100000000E-03 0.  1.
    9000002    1    1    2    0    0  0.47882942480E+00  0.76958953809E-01  0.16060979365E+00  0.10681010273E+01  0.93800000000E+00 0.  1.
         22    1    1    2    0    0 -0.31756458544E+00 -0.51169792706E-01  0.25467641963E+01  0.25669969781E+01  0.00000000000E+00 0. -1.
</event>
<event>
 5    1  0.8240609E+001  0.1542322E+01  0.7818608E-02  0.3418447E+00
         11   -1    0    0    0    0  0.00000000000E+00  0.00000000000E+00  0.39999999674E+01  0.40000000000E+01  0.51100000000E-03 0. -1.
    9000002   -1    0    0    0    0 -0.00000000000E+00 -0.00000000000E+00  0.00000000000E+00  0.93800000000E+00  0.93800000000E+00 0. -1.
         11    1    1    2    0    0 -0.91604594661E-02 -0.14087174064E+00  0.22862417740E+00  0.26869692395E+00  0.51100000000E-03 0. -1.
    9000002    1    1    2    0    0  0.31483485566E+00  0.11448756197E-01  0.11302905688E+00  0.99592752149E+00  0.93800000000E+00 0. -1.
         22    1    1    2    0    0 -0.30567439620E+00  0.12942298444E+00  0.36583467331E+01  0.36733755546E+01  0.00000000000E+00 0. -1.
</event>
<event>
 5    1  0.8240609E+001  0.1495125E+01  0.7818608E-02  0.3475698E+00
         11   -1    0    0    0    0  0.00000000000E+00  0.00000000000E+00  0.39999999674E+01  0.40000000000E+01  0.51100000000E-03 0.  1.
    9000002   -1    0    0    0    0 -0.00000000000E+00 -0.00000000000E+00  0.00000000000E+00  0.93800000000E+00  0.93800000000E+00 0. -1.
         11    1    1    2    0    0 -0.67644615918E-01 -0.50110138062E+00  0.84165232900E+00  0.98186419211E+00  0.51100000000E-03 0.  1.
    9000002    1    1    2    0    0 -0.28488004851E-01  0.21902351407E+00  0.20173515643E+00  0.98454250263E+00  0.93800000000E+00 0. -1.
         22    1    1    2    0    0  0.96132620769E-01  0.28207786655E+00  0.29566124819E+01  0.29715933053E+01  0.00000000000E+00 0.  1.
</event>
<event>
 5    1  0.8240609E+001  0.1599641E+01  0.7818608E-02  0.3353753E+00
         11   -1    0    0    0    0  0.00000000000E+00  0.00000000000E+00  0.39999999674E+01  0.40000000000E+01  0.51100000000E-03 0. -1.
    9000002   -1    0    0    0    0 -0.00000000000E+00 -0.00000000000E+00  0.00000000000E+00  0.93800000000E+00  0.93800000000E+00 0.  1.
         11    1    1    2    0    0  0.48807578959E-01 -0.91932171124E-01  0.99780658499E+00  0.10032207863E+01  0.51100000000E-03 0. -1.
    9000002    1    1    2    0    0 -0.18031730674E+00  0.33711963230E+00  0.98402164836E-01  0.10176890309E+01  0.93800000000E+00 0.  1.
         22    1    1    2    0    0  0.13150972778E+00 -0.24518746118E+00  0.29037912175E+01  0.29170901828E+01  0.00000000000E+00 0. -1.
</event>
<event>
 5    1  0.8240609E+001  0.1598977E+01  0.7818608E-02  0.3354474E+00
         11   -1    0    0    0    0  0.00000000000E+00  0.00000000000E+00  0.39999999674E+01  0.40000000000E+01  0.51100000000E-03 0. -1.
    9000002   -1    0    0    0    0 -0.00000000000E+00 -0.00000000000E+00  0.00000000000E+00  0.93800000000E+00  0.93800000000E+00 0. -1.
         11    1    1    2    0    0  0.98049850263E-03  0.24166480442E+00  0.14015050275E+01  0.14221882584E+01  0.51100000000E-03 0. -1.
    9000002    1    1    2    0    0 -0.78487571158E-01 -0.61200069423E+00  0.26731377769E+00  0.11541255583E+01  0.93800000000E+00 0. -1.
         22    1    1    2    0    0  0.77507072655E-01  0.37033588982E+00  0.23311811621E+01  0.23616861833E+01  0.00000000000E+00 0.  1.
</event>
<event>
 5    1  0.8240609E+001  0.1599610E+01  0.7818608E-02  0.3353787E+00
         11   -1    0    0    0    0  0.00000000000E+00  0.00000000000E+00  0.39999999674E+01  0.40000000000E+01  0.51100000000E-03 0.  1.
    9000002   -1    0    0    0    0 -0.00000000000E+00 -0.00000000000E+00  0.00000000000E+00  0.93800000000E+00  0.93800000000E+00 0. -1.
         11    1    1    2    0    0 -0.10322703480E-01  0.15538424657E+00  0.14341239278E+01  0.14425541667E+01  0.51100000000E-03 0.  1.
    9000002    1    1    2    0    0  0.42733895639E-01 -0.44008337542E+00  0.13268586925E+00  0.10454420611E+01  0.93800000000E+00 0. -1.
         22    1    1    2    0    0 -0.32411192159E-01  0.28469912885E+00  0.24331901703E+01  0.24500037723E+01  0.00000000000E+00 0.  1.
</event>
<event>
 5    1  0.8240609E+001  0.1599178E+01  0.7818608E-02  0.3354256E+00
         11   -1    0    0    0    0  0.00000000000E+00  0.00000000000E+00  0.39999999674E+01  0.40000000000E+01  0.51100000000E-03 0. -1.
    9000002   -1    0    0    0    0 -0.00000000000E+00 -0.00000000000E+00  0.00000000000E+00  0.93800000000E+00  0.93800000000E+00 0.  1.
         11    1    1    2    0    0 -0.78321877032E-01  0.14360398924E+00  0.68354842687E+00  0.70284787482E+00  0.51100000000E-03 0. -1.
    9000002    1    1    2    0    0  0.39041145043E+00 -0.64280399507E+00  0.41089304104E+00  0.12705491600E+01  0.93800000000E+00 0.  1.
         22    1    1    2    0    0 -0.31208957340E+00  0.49920000582E+00  0.29055584994E+01  0.29646029652E+01  0.00000000000E+00 0. -1.
</event>
<event>
 5    1  0.8240609E+001  0.1599609E+01  0.7818608E-02  0.3353788E+00
         11   -1    0    0    0    0  0.00000000000E+00  0.00000000000E+00  0.39999999674E+01  0.40000000000E+01  0.51100000000E-03 0.  1.
    9000002   -1    0    0    0    0 -0.00000000000E+00 -0.00000000000E+00  0.00000000000E+00  0.93800000000E+00  0.93800000000E+00 0. -1.
         11    1    1    2    0    0 -0.36393760139E-01  0.38790838645E-01  0.65714940003E+00  0.65929874110E+00  0.51100000000E-03 0.  1.
    9000002    1    1    2    0    0  0.22674547782E+00 -0.27430933368E+00  0.85037112052E-01  0.10068437976E+01  0.93800000000E+00 0. -1.
         22    1    1    2    0    0 -0.19035171768E+00  0.23551849503E+00  0.32578134553E+01  0.32718574613E+01  0.00000000000E+00 0. -1.
</event>
<event>
 5    1  0.8240609E+001  0.1599677E+01  0.7818608E-02  0.3353714E+00
         11   -1    0    0    0    0  0.00000000000E+00  0.00000000000E+00  0.39999999674E+01  0.40000000000E+01  0.51100000000E-03 0.  1.
    9000002   -1    0    0    0    0 -0.00000000000E+00 -0.00000000000E+00  0.00000000000E+00  0.93800000000E+00  0.93800000000E+00 0.  1.
         11    1    1    2    0    0 -0.11477965775E+00 -0.26522754024E-01  0.11499947053E+01  0.11560129367E+01  0.51100000000E-03 0. -1.
    9000002    1    1    2    0    0  0.38825623196E+00  0.89965024171E-01  0.10711851093E+00  0.10247706976E+01  0.93800000000E+00 0.  1.
         22    1    1    2    0    0 -0.27347657421E+00 -0.63442270148E-01  0.27428867511E+01  0.27572163658E+01  0.00000000000E+00 0.  1.
</event>
<event>
 5    1  0.8240609E+001  0.1599677E+01  0.7818608E-02  0.3353714E+00
         11   -1    0    0    0    0  0.00000000000E+00  0.00000000000E+00  0.39999999674E+01  0.40000000000E+01  0.51100000000E-03 0.  1.
    9000002   -1    0    0    0    0 -0.00000000000E+00 -0.00000000000E+00  0.00000000000E+00  0.93800000000E+00  0.93800000000E+00 0.  1.
         11    1    1    2    0    0  0.38255172757E-01  0.35348420611E-01  0.51308563679E+00  0.51572289157E+00  0.51100000000E-03 0. -1.
    9000002    1    1    2    0    0 -0.29207426793E+00 -0.26787935590E+00  0.10589508807E+00  0.10237795158E+01  0.93800000000E+00 0.  1.
         22    1    1    2    0    0  0.25381909517E+00  0.23253093529E+00  0.33810192425E+01  0.33984975926E+01  0.00000000000E+00 0.  1.
</event>
<event>
 5    1  0.8240609E+001  0.1599675E+01  0.7818608E-02  0.3353716E+00
         11   -1    0    0    0    0  0.00000000000E+00  0.00000000000E+00  0.39999999674E+01  0.40000000000E+01  0.51100000000E-03 0.  1.
    9000002   -1    0    0    0    0 -0.00000000000E+00 -0.00000000000E+00  0.00000000000E+00  0.93800000000E+00  0.93800000000E+00 0. -1.
         11    1    1    2    0    0 -0.52784046184E-01  0.44375397988E-01  0.63042607633E+00  0.63418658951E+00  0.51100000000E-03 0.  1.
    9000002    1    1    2    0    0  0.31827347127E+00 -0.27499806268E+00  0.11966465336E+00  0.10349326385E+01  0.93800000000E+00 0. -1.
         22    1    1    2    0    0 -0.26548942509E+00  0.23062266469E+00  0.32499092377E+01  0.32688807720E+01  0.00000000000E+00 0.  1.
</event>
<event>
 5    1  0.8240609E+001  0.1585708E+01  0.7818608E-02  0.3369023E+00
         11   -1    0    0    0    0  0.00000000000E+00  0.00000000000E+00  0.39999999674E+01  0.40000000000E+01  0.51100000000E-03 0. -1.
    9000002   -1    0    0    0    0 -0.00000000000E+00 -0.00000000000E+00  0.00000000000E+00  0.93800000000E+00  0.93800000000E+00 0. -1.
         11    1    1    2    0    0  0.47788583994E-01  0.31360884155E-01  0.90892290908E+00  0.91071860066E+00  0.51100000000E-03 0. -1.
    9000002    1    1    2    0    0  0.11893650281E+00  0.26826533368E+00  0.68389145333E-01  0.98520721483E+00  0.93800000000E+00 0. -1.
         22    1    1    2    0    0 -0.16672508681E+00 -0.29962621784E+00  0.30226879129E+01  0.30420741845E+01  0.00000000000E+00 0. -1.
</event>
<event>
 5    1  0.8240609E+001  0.1599169E+01  0.7818608E-02  0.3354266E+00
         11   -1    0    0    0    0  0.00000000000E+00  0.00000000000E+00  0.39999999674E+01  0.40000000000E+01  0.51100000000E-03 0. -1.
    9000002   -1    0    0    0    0 -0.00000000000E+00 -0.00000000000E+00  0.00000000000E+00  0.93800000000E+00  0.93800000000E+00 0. -1.
         11    1    1    2    0    0 -0.45252063160E-01 -0.71126227620E-01  0.89372877834E+00  0.89769598407E+00  0.51100000000E-03 0. -1.
    9000002    1    1    2    0    0  0.29435850825E+00  0.29115006136E+00  0.11626272406E+00  0.10318799885E+01  0.93800000000E+00 0. -1.
         22    1    1    2    0    0 -0.24910644509E+00 -0.22002383374E+00  0.29900084650E+01  0.30084240274E+01  0.00000000000E+00 0. -1.
</event>
<event>
 5    1  0.8240609E+001  0.1599565E+01  0.7818608E-02  0.3353836E+00
         11   -1    0    0    0    0  0.00000000000E+00  0.00000000000E+00  0.39999999674E+01  0.40000000000E+01  0.51100000000E-03 0.  1.
    9000002   -1    0    0    0    0 -0.00000000000E+00 -0.00000000000E+00  0.00000000000E+00  0.93800000000E+00  0.93800000000E+00 0.  1.
         11    1    1    2    0    0  0.27134074767E-01 -0.18009694209E-01  0.23058997702E+00  0.23287895080E+00  0.51100000000E-03 0.  1.
    9000002    1    1    2    0    0 -0.38325346269E+00  0.22944461208E+00  0.13554711320E+00  0.10477332994E+01  0.93800000000E+00 0.  1.
         22    1    1    2    0    0  0.35611938792E+00 -0.21143491787E+00  0.36338628771E+01  0.36573877499E+01  0.00000000000E+00 0.  1.
</event>
<event>
 5    1  0.8240609E+001  0.1573001E+01  0.7818608E-02  0.3383198E+00
         11   -1    0    0    0    0  0.00000000000E+00  0.00000000000E+00  0.39999999674E+01  0.40000000000E+01  0.51100000000E-03 0. -1.
    9000002   -1    0    0    0    0 -0.00000000000E+00 -0.00000000000E+00  0.00000000000E+00  0.93800000000E+00  0.93800000000E+00 0.  1.
         11    1    1    2    0    0 -0.21187275739E-01 -0.13326919171E+00  0.64654815649E+00  0.66048039933E+00  0.51100000000E-03 0. -1.
    9000002    1    1    2    0    0 -0.25125622109E+00  0.85075699164E-02  0.62672711116E-01  0.97312585830E+00  0.93800000000E+00 0.  1.
         22    1    1    2    0    0  0.27244349683E+00  0.12476162179E+00  0.32907790997E+01  0.33043937424E+01  0.00000000000E+00 0. -1.
</event>
<event>
 5    1  0.8240609E+001  0.1599671E+01  0.7818608E-02  0.3353721E+00
         11   -1    0    0    0    0  0.00000000000E+00  0.00000000000E+00  0.39999999674E+01  0.40000000000E+01  0.51100000000E-03 0. -1.
    9000002   -1    0    0    0    0 -0.00000000000E+00 -0.00000000000E+00  0.00000000000E+00  0.93800000000E+00  0.93800000000E+00 0. -1.
         11    1    1    2    0    0  0.28755081453E-01  0.13752906880E+00  0.11438139784E+01  0.11524112885E+01  0.51100000000E-03 0. -1.
    9000002    1    1    2    0    0 -0.92802027654E-01 -0.47041557639E+00  0.15685955213E+00  0.10650595992E+01  0.93800000000E+00 0. -1.
         22    1    1    2    0    0  0.64046946201E-01  0.33288650759E+00  0.26993264368E+01  0.27205291123E+01  0.00000000000E+00 0.  1.
</event>
<event>
 5    1  0.8240609E+001  0.1599677E+01  0.7818608E-02  0.3353714E+00
         11   -1    0    0    0    0  0.00000000000E+00  0.00000000000E+00  0.39999999674E+01  0.40000000000E+01  0.51100000000E-03 0. -1.
    9000002   -1    0    0    0    0 -0.00000000000E+00 -0.00000000000E+00  0.00000000000E+00  0.93800000000E+00  0.93800000000E+00 0.  1.
         11    1    1    2    0    0 -0.16768200088E+00 -0.30188337007E-01  0.10925431492E+01  0.11057483362E+01  0.51100000000E-03 0.  1.
    9000002    1    1    2    0    0  0.57650497015E+00  0.10488768911E+00  0.23885588155E+00  0.11314837781E+01  0.93800000000E+00 0.  1.
         22    1    1    2    0    0 -0.40882296927E+00 -0.74699352101E-01  0.26686009367E+01  0.27007678857E+01  0.00000000000E+00 0. -1.
</event>
<event>
 5    1  0.8240609E+001  0.1540304E+01  0.7818608E-02  0.3420818E+00
         11   -1    0    0    0    0  0.00000000000E+00  0.00000000000E+00  0.39999999674E+01  0.40000000000E+01  0.51100000000E-03 0. -1.
    9000002   -1    0    0    0    0 -0.00000000000E+00 -0.00000000000E+00  0.00000000000E+00  0.93800000000E+00  0.93800000000E+00 0. -1.
         11    1    1    2    0    0  0.14159543397E+00  0.13254716059E+00  0.50971317455E+00  0.54536758075E+00  0.51100000000E-03 0. -1.
    9000002    1    1    2    0    0  0.19022011718E+00 -0.17189744787E+00  0.90660502125E-01  0.97662467315E+00  0.93800000000E+00 0. -1.
         22    1    1    2    0    0 -0.33181555115E+00  0.39350287282E-01  0.33996262907E+01  0.34160077461E+01  0.00000000000E+00 0. -1.
</event>
<event>
 5    1  0.8240609E+001  0.1599659E+01  0.7818608E-02  0.3353733E+00
         11   -1    0    0    0    0  0.00000000000E+00  0.00000000000E+00  0.39999999674E+01  0.40000000000E+01  0.51100000000E-03 0. -1.
    9000002   -1    0    0    0    0 -0.00000000000E+00 -0.00000000000E+00  0.00000000000E+00  0.93800000000E+00  0.93800000000E+00 0. -1.
         11    1    1    2    0    0 -0.19316178542E+00  0.13141688978E+00  0.14603769289E+01  0.14789465541E+01  0.51100000000E-03 0. -1.
    9000002    1    1    2    0    0  0.50091992186E+00 -0.34772156104E+00  0.25999287204E+00  0.11485953794E+01  0.93800000000E+00 0. -1.
         22    1    1    2    0    0 -0.30775813644E+00  0.21630467126E+00  0.22796301664E+01  0.23104580665E+01  0.00000000000E+00 0. -1.
</event>
<event>
 5    1  0.8240609E+001  0.1580786E+01  0.7818608E-02  0.3374486E+00
         11   -1    0    0    0    0  0.00000000000E+00  0.00000000000E+00  0.39999999674E+01  0.40000000000E+01  0.51100000000E-03 0. -1.
    9000002   -1    0    0    0    0 -0.00000000000E+00 -0.00000000000E+00  0.00000000000E+00  0.93800000000E+00  0.93800000000E+00 0. -1.
         11    1    1    2    0    0  0.98469792585E-01  0.81880659223E-01  0.79194862245E+00  0.80223663849E+00  0.51100000000E-03 0. -1.
    9000002    1    1    2    0    0 -0.31870918313E+00  0.23133915785E+00  0.12035164917E+00  0.10244129386E+01  0.93800000000E+00 0. -1.
         22    1    1    2    0    0  0.22023939054E+00 -0.31321981707E+00  0.30876996957E+01  0.31113504229E+01  0.00000000000E+00 0. -1.
</event>
<event>
 5    1  0.8240609E+001  0.1599632E+01  0.7818608E-02  0.3353763E+00
         11   -1    0    0    0    0  0.00000000000E+00  0.00000000000E+00  0.39999999674E+01  0.40000000000E+01  0.51100000000E-03 0.  1.
    9000002   -1    0    0    0    0 -0.00000000000E+00 -0.00000000000E+00  0.00000000000E+00  0.93800000000E+00  0.93800000000E+00 0. -1.
         11    1    1    2    0    0  0.13291147101E+00 -0.86451832474E-01  0.13665052788E+01  0.13756730413E+01  0.51100000000E-03 0.  1.
    9000002    1    1    2    0    0 -0.36784179603E+00  0.22512868224E+00  0.12601995234E+00  0.10400555460E+01  0.93800000000E+00 0. -1.
         22    1    1    2    0    0  0.23493032503E+00 -0.13867684976E+00  0.25074747363E+01  0.25222714127E+01  0.00000000000E+00 0. -1.
</event>
<event>
 5    1  0.8240609E+001  0.1599670E+01  0.7818608E-02  0.3353722E+00
         11   -1    0    0    0    0  0.00000000000E+00  0.00000000000E+00  0.39999999674E+01  0.40000000000E+01  0.51100000000E-03 0. -1.
    9000002   -1    0    0    0    0 -0.00000000000E+00 -0.00000000000E+00  0.00000000000E+00  0.93800000000E+00  0.93800000000E+00 0.  1.
         11    1    1    2    0    0  0.31606270619E-01  0.26928567284E-01  0.33296809807E+00  0.33554749222E+00  0.51100000000E-03 0. -1.
    9000002    1    1    2    0    0 -0.38014139428E+00 -0.32152794102E+00  0.16963925273E+00  0.10754111644E+01  0.93800000000E+00 0.  1.
         22    1    1    2    0    0  0.34853512366E+00  0.29459937374E+00  0.34973926166E+01  0.35270413434E+01  0.00000000000E+00 0. -1.
</event>
<event>
 5    1  0.8240609E+001  0.1599214E+01  0.7818608E-02  0.3354217E+00
         11   -1    0    0    0    0  0.00000000000E+00  0.00000000000E+00  0.39999999674E+01  0.40000000000E+01  0.51100000000E-03 0. -1.
    9000002   -1    0    0    0    0 -0.00000000000E+00 -0.00000000000E+00  0.00000000000E+00  0.93800000000E+00  0.93800000000E+00 0.  1.
         11    1    1    2    0    0  0.77519238454E-01  0.17179683089E+00  0.14274173111E+01  0.14398068706E+01  0.51100000000E-03 0. -1.
    9000002    1    1    2    0    0 -0.16512721534E+00 -0.41383047085E+00  0.13514439632E+00  0.10472013482E+01  0.93800000000E+00 0.  1.
         22    1    1    2    0    0  0.87607976886E-01  0.24203363996E+00  0.24374382600E+01  0.24509917812E+01  0.00000000000E+00 0. -1.
</event>
<event>
 5    1  0.8240609E+001  0.1596345E+01  0.7818608E-02  0.3357340E+00
         11   -1    0    0    0    0  0.00000000000E+00  0.00000000000E+00  0.39999999674E+01  0.40000000000E+01  0.51100000000E-03 0. -1.
    9000002   -1    0    0    0    0 -0.00000000000E+00 -0.00000000000E+00  0.00000000000E+00  0.93800000000E+00  0.93800000000E+00 0.  1.
         11    1    1    2    0    0 -0.79466289266E-04  0.17922740098E-01  0.64755951686E+00  0.64780770289E+00  0.51100000000E-03 0. -1.
    9000002    1    1    2    0    0 -0.18223338337E+00 -0.35984868726E+00  0.11257613026E+00  0.10272377859E+01  0.93800000000E+00 0.  1.
         22    1    1    2    0    0  0.18231284966E+00  0.34192594716E+00  0.32398643202E+01  0.32629545112E+01  0.00000000000E+00 0. -1.
</event>
<event>
 5    1  0.8240609E+001  0.1598758E+01  0.7818608E-02  0.3354713E+00
         11   -1    0    0    0    0  0.00000000000E+00  0.00000000000E+00  0.39999999674E+01  0.40000000000E+01  0.51100000000E-03 0. -1.
    9000002   -1    0    0    0    0 -0.00000000000E+00 -0.00000000000E+00  0.00000000000E+00  0.93800000000E+00  0.93800000000E+00 0. -1.
         11    1    1    2    0    0  0.39352635315E-02 -0.51295100466E-02  0.72076947154E-01  0.72368125611E-01  0.51100000000E-03 0. -1.
    9000002    1    1    2    0    0  0.31134623365E+00  0.19295765533E+00  0.90875839060E-01  0.10110744543E+01  0.93800000000E+00 0. -1.
         22    1    1    2    0    0 -0.31528149719E+00 -0.18782814528E+00  0.38370471811E+01  0.38545574201E+01  0.00000000000E+00 0. -1.
</event>
<event>
 5    1  0.8240609E+001  0.1599606E+01  0.7818608E-02  0.3353791E+00
         11   -1    0    0    0    0  0.00000000000E+00  0.00000000000E+00  0.39999999674E+01  0.40000000000E+01  0.51100000000E-03 0.  1.
    9000002   -1    0    0    0    0 -0.00000000000E+00 -0.00000000000E+00  0.00000000000E+00  0.93800000000E+00  0.93800000000E+00 0.  1.
         11    1    1    2    0    0  0.86359542932E-01  0.33284606157E-01  0.78299921762E+00  0.78845029747E+00  0.51100000000E-03 0.  1.
    9000002    1    1    2    0    0 -0.38797383743E+00 -0.15939379541E+00  0.11903290471E+00  0.10343804488E+01  0.93800000000E+00 0.  1.
         22    1    1    2    0    0  0.30161429450E+00  0.12610918926E+00  0.30979678450E+01  0.31151692537E+01  0.00000000000E+00 0.  1.
</event>
<event>
 5    1  0.8240609E+001  0.1596762E+01  0.7818608E-02  0.3356885E+00
         11   -1    0    0    0    0  0.00000000000E+00  0.00000000000E+00  0.39999999674E+01  0.40000000000E+01  0.51100000000E-03 0.  1.
    9000002   -1    0    0    0    0 -0.00000000000E+00 -0.00000000000E+00  0.00000000000E+00  0.93800000000E+00  0.93800000000E+00 0.  1.
         11    1    1    2    0    0 -0.37981570304E-01  0.81193388754E-01  0.35860701629E+00  0.36964066242E+00  0.51100000000E-03 0.  1.
    9000002    1    1    2    0    0  0.19242124258E+00 -0.50745605121E+00  0.20589530573E+00  0.11030749999E+01  0.93800000000E+00 0.  1.
         22    1    1    2    0    0 -0.15443967228E+00  0.42626266246E+00  0.34354976453E+01  0.34652843377E+01  0.00000000000E+00 0.  1.
</event>
<event>
 5    1  0.8240609E+001  0.1599677E+01  0.7818608E-02  0.3353714E+00
         11   -1    0    0    0    0  0.00000000000E+00  0.00000000000E+00  0.39999999674E+01  0.40000000000E+01  0.51100000000E-03 0. -1.
    9000002   -1    0    0    0    0 -0.00000000000E+00 -0.00000000000E+00  0.00000000000E+00  0.93800000000E+00  0.93800000000E+00 0.  1.
         11    1    1    2    0    0  0.39246887787E-02  0.14568552953E+00  0.14493560279E+01  0.14566649695E+01  0.51100000000E-03 0. -1.
    9000002    1    1    2    0    0 -0.94128117168E-02 -0.39050769843E+00  0.10279962438E+00  0.10212720628E+01  0.93800000000E+00 0.  1.
         22    1    1    2    0    0  0.54881229381E-02  0.24482216890E+00  0.24478443151E+01  0.24600629676E+01  0.00000000000E+00 0. -1.
</event>
<event>
 5    1  0.8240609E+001  0.1535557E+01  0.7818608E-02  0.3426422E+00
         11   -1    0    0    0    0  0.00000000000E+00  0.00000000000E+00  0.39999999674E+01  0.40000000000E+01  0.51100000000E-03 0.  1.
    9000002   -1    0    0    0    0 -0.00000000000E+00 -0.00000000000E+00  0.00000000000E+00  0.93800000000E+00  0.93800000000E+00 0. -1.
         11    1    1    2    0    0 -0.29002797807E+00  0.14075410545E+00  0.14174133908E+01  0.14536123719E+01  0.51100000000E-03 0.  1.
    9000002    1    1    2    0    0  0.10036875107E+00  0.14828520672E-01  0.55157836461E-01  0.94508209069E+00  0.93800000000E+00 0. -1.
         22    1    1    2    0    0  0.18965922701E+00 -0.15558262612E+00  0.25274287401E+01  0.25393055374E+01  0.00000000000E+00 0.  1.
</event>
<event>
 5    1  0.8240609E+001  0.1599062E+01  0.7818608E-02  0.3354382E+00
         11   -1    0    0    0    0  0.00000000000E+00  0.00000000000E+00  0.39999999674E+01  0.40000000000E+01  0.51100000000E-03 0.  1.
    9000002   -1    0    0    0    0 -0.00000000000E+00 -0.00000000000E+00  0.00000000000E+00  0.93800000000E+00  0.93800000000E+00 0. -1.
         11    1    1    2    0    0 -0.45411324235E-01 -0.61577079335E-01  0.10381134815E+01  0.10409292899E+01  0.51100000000E-03 0.  1.
    9000002    1    1    2    0    0  0.26437535992E+00  0.26550527497E+00  0.94901287709E-01  0.10145134974E+01  0.93800000000E+00 0. -1.
         22    1    1    2    0    0 -0.21896403569E+00 -0.20392819563E+00  0.28669851982E+01  0.28825572127E+01  0.00000000000E+00 0.  1.
</event>
<event>
 5    1  0.8240609E+001  0.1499669E+01  0.7818608E-02  0.3470018E+00
         11   -1    0    0    0    0  0.00000000000E+00  0.00000000000E+00  0.39999999674E+01  0.40000000000E+01  0.51100000000E-03 0. -1.
    9000002   -1    0    0    0    0 -0.00000000000E+00 -0.00000000000E+00  0.00000000000E+00  0.93800000000E+00  0.93800000000E+00 0. -1.
         11    1    1    2    0    0  0.25984572771E+00  0.17742514335E+00  0.10981195757E+01  0.11423074662E+01  0.51100000000E-03 0. -1.
    9000002    1    1    2    0    0  0.20104701366E+00 -0.15709874371E+00  0.12422720750E+00  0.97998791628E+00  0.93800000000E+00 0. -1.
         22    1    1    2    0    0 -0.46089274136E+00 -0.20326399644E-01  0.27776531842E+01  0.28157046176E+01  0.00000000000E+00 0. -1.
</event>
<event>
 5    1  0.8240609E+001  0.1594191E+01  0.7818608E-02  0.3359693E+00
         11   -1    0    0    0    0  0.00000000000E+00  0.00000000000E+00  0.39999999674E+01  0.40000000000E+01  0.51100000000E-03 0.  1.
    9000002   -1    0    0    0    0 -0.00000000000E+00 -0.00000000000E+00  0.00000000000E+00  0.93800000000E+00  0.93800000000E+00 0. -1.
         11    1    1    2    0    0 -0.28309245108E-02  0.22190773913E-01  0.20778386954E+00  0.20898526777E+00  0.51100000000E-03 0.  1.
    9000002    1    1    2    0    0 -0.21010476846E+00  0.28715877501E+00  0.89390976141E-01  0.10071935874E+01  0.93800000000E+00 0. -1.
         22    1    1    2    0    0  0.21293569297E+00 -0.30934954892E+00  0.37028251217E+01  0.37218211449E+01  0.00000000000E+00 0.  1.
</event>
<event>
 5    1  0.8240609E+001  0.1572659E+01  0.7818608E-02  0.3383584E+00
         11   -1    0    0    0    0  0.00000000000E+00  0.00000000000E+00  0.39999999674E+01  0.40000000000E+01  0.51100000000E-03 0.  1.
    9000002   -1    0    0    0    0 -0.00000000000E+00 -0.00000000000E+00  0.00000000000E+00  0.93800000000E+00  0.93800000000E+00 0.  1.
         11    1    1    2    0    0 -0.11110497819E+00 -0.32524359047E-01  0.31941134970E+00  0.33974405300E+00  0.51100000000E-03 0.  1.
    9000002    1    1    2    0    0  0.21438341791E+00 -0.31073040388E+00  0.11834102375E+00  0.10180187777E+01  0.93800000000E+00 0.  1.
         22    1    1    2    0    0 -0.10327843972E+00  0.34325476293E+00  0.35622475939E+01  0.35802371693E+01  0.00000000000E+00 0.  1.
</event>
<event>
 5    1  0.8240609E+001  0.1599225E+01  0.7818608E-02  0.3354205E+00
         11   -1    0    0    0    0  0.00000000000E+00  0.00000000000E+00  0.39999999674E+01  0.40000000000E+01  0.51100000000E-03 0.  1.
    9000002   -1    0    0    0    0 -0.00000000000E+00 -0.00000000000E+00  0.00000000000E+00  0.93800000000E+00  0.93800000000E+00 0.  1.
         11    1    1    2    0    0 -0.10330323563E+00 -0.38411420763E-01  0.92336393228E+00  0.92991838797E+00  0.51100000000E-03 0.  1.
    9000002    1    1    2    0    0  0.36964033664E+00  0.98667815807E-01  0.98885541809E-01  0.10178367584E+01  0.93800000000E+00 0.  1.
         22    1    1    2    0    0 -0.26633710101E+00 -0.60256395044E-01  0.29777504933E+01  0.29902448536E+01  0.00000000000E+00 0.  1.
</event>
<event>
 5    1  0.8240609E+001  0.1599654E+01  0.7818608E-02  0.3353739E+00
         11   -1    0    0    0    0  0.00000000000E+00  0.00000000000E+00  0.39999999674E+01  0.40000000000E+01  0.51100000000E-03 0.  1.
    9000002   -1    0    0    0    0 -0.00000000000E+00 -0.00000000000E+00  0.00000000000E+00  0.93800000000E+00  0.93800000000E+00 0.  1.
         11    1    1    2    0    0  0.35645708163E+00  0.14913302884E+00  0.14109112248E+01  0.14628646747E+01  0.51100000000E-03 0.  1.
    9000002    1    1    2    0    0 -0.85588917358E+00 -0.35615317364E+00  0.66586438744E+00  0.14773661506E+01  0.93800000000E+00 0. -1.
         22    1    1    2    0    0  0.49943209195E+00  0.20702014480E+00  0.19232243552E+01  0.19977691746E+01  0.00000000000E+00 0.  1.
</event>
<event>
 5    1  0.8240609E+001  0.1599651E+01  0.7818608E-02  0.3353742E+00
         11   -1    0    0    0    0  0.00000000000E+00  0.00000000000E+00  0.39999999674E+01  0.40000000000E+01  0.51100000000E-03 0. -1.
    9000002   -1    0    0    0    0 -0.00000000000E+00 -0.00000000000E+00  0.00000000000E+00  0.93800000000E+00  0.93800000000E+00 0.  1.
         11    1    1    2    0    0  0.20988121847E+00  0.23295979170E+00  0.11181788861E+01  0.11613116175E+01  0.51100000000E-03 0. -1.
    9000002    1    1    2    0    0 -0.63712230873E+00 -0.68161705477E+00  0.67639215029E+00  0.14858926565E+01  0.93800000000E+00 0.  1.
         22    1    1    2    0    0  0.42724109026E+00  0.44865726307E+00  0.22054289309E+01  0.22907957260E+01  0.00000000000E+00 0. -1.
</event>
<event>
 5    1  0.8240609E+001  0.1593778E+01  0.7818608E-02  0.3360144E+00
         11   -1    0    0    0    0  0.00000000000E+00  0.00000000000E+00  0.39999999674E+01  0.40000000000E+01  0.51100000000E-03 0. -1.
    9000002   -1    0    0    0    0 -0.00000000000E+00 -0.00000000000E+00  0.00000000000E+00  0.93800000000E+00  0.93800000000E+00 0. -1.
         11    1    1    2    0    0  0.34297417828E-01  0.82415060282E-01  0.76370766039E+00  0.76890715089E+00  0.51100000000E-03 0. -1.
    9000002    1    1    2    0    0 -0.47247612353E+00 -0.19735962582E+00  0.18523897086E+00  0.10845930046E+01  0.93800000000E+00 0. -1.
         22    1    1    2    0    0  0.43817870570E+00  0.11494456554E+00  0.30510533361E+01  0.30844998446E+01  0.00000000000E+00 0.  1.
</event>
<event>
 5    1  0.8240609E+001  0.1599676E+01  0.7818608E-02  0.3353716E+00
         11   -1    0    0    0    0  0.00000000000E+00  0.00000000000E+00  0.39999999674E+01  0.40000000000E+01  0.51100000000E-03 0. -1.
    9000002   -1    0    0    0    0 -0.00000000000E+00 -0.00000000000E+00  0.00000000000E+00  0.93800000000E+00  0.93800000000E+00 0.  1.
         11    1    1    2    0    0  0.14006994577E+00  0.10010304670E+00  0.14149488146E+01  0.14253843757E+01  0.51100000000E-03 0. -1.
    9000002    1    1    2    0    0 -0.38301559728E+00 -0.26904845073E+00  0.14920914238E+00  0.10588651400E+01  0.93800000000E+00 0.  1.
         22    1    1    2    0    0  0.24294565152E+00  0.16894540403E+00  0.24358420104E+01  0.24537504842E+01  0.00000000000E+00 0.  1.
</event>
<event>
 5    1  0.8240609E+001  0.1594027E+01  0.7818608E-02  0.3359872E+00
         11   -1    0    0    0    0  0.00000000000E+00  0.00000000000E+00  0.39999999674E+01  0.40000000000E+01  0.51100000000E-03 0.  1.
    9000002   -1    0    0    0    0 -0.00000000000E+00 -0.00000000000E+00  0.00000000000E+00  0.93800000000E+00  0.93800000000E+00 0.  1.
         11    1    1    2    0    0 -0.17692938181E+00  0.22676232673E-02  0.71499659019E+00  0.73656604142E+00  0.51100000000E-03 0.  1.
    9000002    1    1    2    0    0  0.56804287523E+00  0.96537067140E-01  0.23598343624E+00  0.11258438149E+01  0.93800000000E+00 0.  1.
         22    1    1    2    0    0 -0.39111349342E+00 -0.98804690408E-01  0.30490199409E+01  0.30755901437E+01  0.00000000000E+00 0.  1.
</event>
<event>
 5    1  0.8240609E+001  0.1566795E+01  0.7818608E-02  0.3390211E+00
         11   -1    0    0    0    0  0.00000000000E+00  0.00000000000E+00  0.39999999674E+01  0.40000000000E+01  0.51100000000E-03 0. -1.
    9000002   -1    0    0    0    0 -0.00000000000E+00 -0.00000000000E+00  0.00000000000E+00  0.93800000000E+00  0.93800000000E+00 0. -1.
         11    1    1    2    0    0 -0.16587642998E+00 -0.29355208524E-01  0.40742317815E+00  0.44087484109E+00  0.51100000000E-03 0. -1.
    9000002    1    1    2    0    0  0.27400063274E+00  0.50697001996E+00  0.26317300656E+00  0.11319006049E+01  0.93800000000E+00 0. -1.
         22    1    1    2    0    0 -0.10812420276E+00 -0.47761481144E+00  0.33294037826E+01  0.33652245541E+01  0.00000000000E+00 0. -1.
</event>
<event>
 5    1  0.8240609E+001  0.1509345E+01  0.7818608E-02  0.3458044E+00
         11   -1    0    0    0    0  0.00000000000E+00  0.00000000000E+00  0.39999999674E+01  0.40000000000E+01  0.51100000000E-03 0. -1.
    9000002   -1    0    0    0    0 -0.00000000000E+00 -0.00000000000E+00  0.00000000000E+00  0.93800000000E+00  0.93800000000E+00 0. -1.
         11    1    1    2    0    0  0.25987634355E+00  0.20406981246E+00  0.13312999498E+01  0.13716923925E+01  0.51100000000E-03 0. -1.
    9000002    1    1    2    0    0 -0.21548527452E-01  0.81908359526E-01  0.73649197139E-01  0.94469123137E+00  0.93800000000E+00 0. -1.
         22    1    1    2    0    0 -0.23832781610E+00 -0.28597817199E+00  0.25950508205E+01  0.26216163761E+01  0.00000000000E+00 0. -1.
</event>
<event>
 5    1  0.8240609E+001  0.1599569E+01  0.7818608E-02  0.3353831E+00
         11   -1    0    0    0    0  0.00000000000E+00  0.00000000000E+00  0.39999999674E+01  0.40000000000E+01  0.51100000000E-03 0.  1.
    9000002   -1    0    0    0    0 -0.00000000000E+00 -0.00000000000E+00  0.00000000000E+00  0.93800000000E+00  0.93800000000E+00 0. -1.
         11    1    1    2    0    0 -0.33473082240E+00 -0.19560331398E-01  0.10442199911E+01  0.10967328667E+01  0.51100000000E-03 0.  1.
    9000002    1    1    2    0    0  0.10314324860E+01  0.77947906509E-01  0.87902821935E+00  0.16499889271E+01  0.93800000000E+00 0. -1.
         22    1    1    2    0    0 -0.69670166355E+00 -0.58387575111E-01  0.20767517569E+01  0.21912782062E+01  0.00000000000E+00 0.  1.
</event>
<event>
 5    1  0.8240609E+001  0.1599655E+01  0.7818608E-02  0.3353737E+00
         11   -1    0    0    0    0  0.00000000000E+00  0.00000000000E+00  0.39999999674E+01  0.40000000000E+01  0.51100000000E-03 0.  1.
    9000002   -1    0    0    0    0 -0.00000000000E+00 -0.00000000000E+00  0.00000000000E+00  0.93800000000E+00  0.93800000000E+00 0.  1.
         11    1    1    2    0    0  0.32319151213E-01 -0.10439831626E-01  0.28853508187E+00  0.29052757565E+00  0.51100000000E-03 0.  1.
    9000002    1    1    2    0    0 -0.43556333821E+00  0.10104459690E+00  0.13574750608E+00  0.10479488621E+01  0.93800000000E+00 0.  1.
         22    1    1    2    0    0  0.40324418700E+00 -0.90604765274E-01  0.35757173794E+01  0.35995235623E+01  0.00000000000E+00 0.  1.
</event>
<event>
 5    1  0.8240609E+001  0.1599639E+01  0.7818608E-02  0.3353756E+00
         11   -1    0    0    0    0  0.00000000000E+00  0.00000000000E+00  0.39999999674E+01  0.40000000000E+01  0.51100000000E-03 0. -1.
    9000002   -1    0    0    0    0 -0.00000000000E+00 -0.00000000000E+00  0.00000000000E+00  0.93800000000E+00  0.93800000000E+00 0.  1.
         11    1    1    2    0    0 -0.51436806187E-01  0.28538038652E-01  0.61644568650E+00  0.61924608211E+00  0.51100000000E-03 0. -1.
    9000002    1    1    2    0    0  0.31534602853E+00 -0.21345141167E+00  0.97605865089E-01  0.10170425398E+01  0.93800000000E+00 0.  1.
         22    1    1    2    0    0 -0.26390922234E+00  0.18491337302E+00  0.32859484158E+01  0.33017113781E+01  0.00000000000E+00 0. -1.
</event>
<event>
 5    1  0.8240609E+001  0.1594163E+01  0.7818608E-02  0.3359723E+00
         11   -1    0    0    0    0  0.00000000000E+00  0.00000000000E+00  0.39999999674E+01  0.40000000000E+01  0.51100000000E-03 0. -1.
    9000002   -1    0    0    0    0 -0.00000000000E+00 -0.00000000000E+00  0.00000000000E+00  0.93800000000E+00  0.93800000000E+00 0.  1.
         11    1    1    2    0    0  0.11080127596E-01 -0.24042764372E-02  0.95110350373E+00  0.95117121787E+00  0.51100000000E-03 0. -1.
    9000002    1    1    2    0    0 -0.10047045045E+00  0.32135001686E+00  0.80317768670E-01  0.99982752948E+00  0.93800000000E+00 0.  1.
         22    1    1    2    0    0  0.89390322851E-01 -0.31894574042E+00  0.29685786950E+01  0.29870012527E+01  0.00000000000E+00 0. -1.
</event>
<event>
 5    1  0.8240609E+001  0.1599676E+01  0.7818608E-02  0.3353715E+00
         11   -1    0    0    0    0  0.00000000000E+00  0.00000000000E+00  0.39999999674E+01  0.40000000000E+01  0.51100000000E-03 0.  1.
    9000002   -1    0    0    0    0 -0.00000000000E+00 -0.00000000000E+00  0.00000000000E+00  0.93800000000E+00  0.93800000000E+00 0.  1.
         11    1    1    2    0    0  0.27603597777E-01  0.15448966612E+00  0.14535505226E+01  0.14619980842E+01  0.51100000000E-03 0.  1.
    9000002    1    1    2    0    0 -0.74881592120E-01 -0.40974069990E+00  0.11728099484E+00  0.10330021906E+01  0.93800000000E+00 0.  1.
         22    1    1    2    0    0  0.47277994343E-01  0.25525103378E+00  0.24291684500E+01  0.24429997252E+01  0.00000000000E+00 0.  1.
</event>
<event>
 5    1  0.8240609E+001  0.1599590E+01  0.7818608E-02  0.3353809E+00
         11   -1    0    0    0    0  0.00000000000E+00  0.00000000000E+00  0.39999999674E+01  0.40000000000E+01  0.51100000000E-03 0.  1.
    9000002   -1    0    0    0    0 -0.00000000000E+00 -0.00000000000E+00  0.00000000000E+00  0.93800000000E+00  0.93800000000E+00 0. -1.
         11    1    1    2    0    0 -0.49703934041E-02  0.10186361551E+00  0.92751785588E+00  0.93310799754E+00  0.51100000000E-03 0.  1.
    9000002    1    1    2    0    0 -0.53620502371E-02 -0.39703992043E+00  0.10638380316E+00  0.10241244864E+01  0.93800000000E+00 0. -1.
         22    1    1    2    0    0  0.10332443641E-01  0.29517630491E+00  0.29660983083E+01  0.29807675161E+01  0.00000000000E+00 0.  1.
</event>
<event>
 5    1  0.8240609E+001  0.1506113E+01  0.7818608E-02  0.3462025E+00
         11   -1    0    0    0    0  0.00000000000E+00  0.00000000000E+00  0.39999999674E+01  0.40000000000E+01  0.51100000000E-03 0. -1.
    9000002   -1    0    0    0    0 -0.00000000000E+00 -0.00000000000E+00  0.00000000000E+00  0.93800000000E+00  0.93800000000E+00 0. -1.
         11    1    1    2    0    0 -0.26923233990E+00 -0.44329243677E-01  0.89349517561E+00  0.93422964236E+00  0.51100000000E-03 0. -1.
    9000002    1    1    2    0    0 -0.20664411049E-01 -0.45442981666E+00  0.22682838691E+00  0.10668779655E+01  0.93800000000E+00 0. -1.
         22    1    1    2    0    0  0.28989675095E+00  0.49875906034E+00  0.28796764048E+01  0.29368923921E+01  0.00000000000E+00 0. -1.
</event>
<event>
 5    1  0.8240609E+001  0.1595513E+01  0.7818608E-02  0.3358247E+00
         11   -1    0    0    0    0  0.00000000000E+00  0.00000000000E+00  0.39999999674E+01  0.40000000000E+01  0.51100000000E-03 0.  1.
    9000002   -1    0    0    0    0 -0.00000000000E+00 -0.00000000000E+00  0.00000000000E+00  0.93800000000E+00  0.93800000000E+00 0. -1.
         11    1    1    2    0    0  0.24360184424E-01  0.39928477348E-02  0.24539486288E+00  0.24663386074E+00  0.51100000000E-03 0.  1.
    9000002    1    1    2    0    0  0.50741676848E-01 -0.47090948666E+00  0.15658555212E+00  0.10623998765E+01  0.93800000000E+00 0. -1.
         22    1    1    2    0    0 -0.75101861272E-01  0.46691663892E+00  0.35980195524E+01  0.36289662628E+01  0.00000000000E+00 0.  1.
</event>
<event>
 5    1  0.8240609E+001  0.1530781E+01  0.7818608E-02  0.3432098E+00
         11   -1    0    0    0    0  0.00000000000E+00  0.00000000000E+00  0.39999999674E+01  0.40000000000E+01  0.51100000000E-03 0. -1.
    9000002   -1    0    0    0    0 -0.00000000000E+00 -0.00000000000E+00  0.00000000000E+00  0.93800000000E+00  0.93800000000E+00 0. -1.
         11    1    1    2    0    0  0.63637444179E-01  0.14668300170E+00  0.36020411325E+00  0.39409756611E+00  0.51100000000E-03 0. -1.
    9000002    1    1    2    0    0  0.20674851325E+00  0.20605668541E+00  0.11258350214E+00  0.98879894331E+00  0.93800000000E+00 0. -1.
         22    1    1    2    0    0 -0.27038595743E+00 -0.35273968712E+00  0.35272123520E+01  0.35551034906E+01  0.00000000000E+00 0. -1.
</event>
<event>
 5    1  0.8240609E+001  0.1599673E+01  0.7818608E-02  0.3353718E+00
         11   -1    0    0    0    0  0.00000000000E+00  0.00000000000E+00  0.39999999674E+01  0.40000000000E+01  0.51100000000E-03 0.  1.
    9000002   -1    0    0    0    0 -0.00000000000E+00 -0.00000000000E+00  0.00000000000E+00  0.93800000000E+00  0.93800000000E+00 0. -1.
         11    1    1    2    0    0  0.15197479430E+00 -0.12648961816E-01  0.13873051434E+01  0.13956619061E+01  0.51100000000E-03 0.  1.
    9000002    1    1    2    0    0 -0.43016596062E+00  0.32927891902E-01  0.12608038422E+00  0.10401284839E+01  0.93800000000E+00 0. -1.
         22    1    1    2    0    0  0.27819116632E+00 -0.20278930086E-01  0.24866144398E+01  0.25022096100E+01  0.00000000000E+00 0.  1.
</event>
<event>
 5    1  0.8240609E+001  0.1599636E+01  0.7818608E-02  0.3353758E+00
         11   -1    0    0    0    0  0.00000000000E+00  0.00000000000E+00  0.39999999674E+01  0.40000000000E+01  0.51100000000E-03 0.  1.
    9000002   -1    0    0    0    0 -0.00000000000E+00 -0.00000000000E+00  0.00000000000E+00  0.93800000000E+00  0.93800000000E+00 0.  1.
         11    1    1    2    0    0  0.38820515993E-01  0.24424760121E-01  0.34043243800E+00  0.34350852585E+00  0.51100000000E-03 0.  1.
    9000002    1    1    2    0    0 -0.38909192654E+00 -0.27780749805E+00  0.15594581136E+00  0.10642991259E+01  0.93800000000E+00 0.  1.
         22    1    1    2    0    0  0.35027141054E+00  0.25338273792E+00  0.35036217180E+01  0.35301923483E+01  0.00000000000E+00 0.  1.
</event>
