<event>
 5    1  0.6645559E+001  0.1597904E+01  0.7818608E-02  0.3355642E+00
         11   -1    0    0    0    0  0.00000000000E+00  0.00000000000E+00  0.39999999674E+01  0.40000000000E+01  0.51100000000E-03 0. -1.
    9000002   -1    0    0    0    0 -0.00000000000E+00 -0.00000000000E+00  0.00000000000E+00  0.93800000000E+00  0.93800000000E+00 0. -1.
         11    1    1    2    0    0  0.10253659746E-02  0.89789726770E-01  0.11019468320E+01  0.11055995334E+01  0.51100000000E-03 0. -1.
    9000002    1    1    2    0    0 -0.63961523240E-02 -0.47416030057E+00  0.15485520397E+00  0.10623996591E+01  0.93800000000E+00 0. -1.
         22    1    1    2    0    0  0.53707863494E-02  0.38437057380E+00  0.27431979314E+01  0.27700008076E+01  0.00000000000E+00 0. -1.
</event>
<event>
 5    1  0.6645559E+001  0.1585119E+01  0.7818608E-02  0.3369675E+00
         11   -1    0    0    0    0  0.00000000000E+00  0.00000000000E+00  0.39999999674E+01  0.40000000000E+01  0.51100000000E-03 0. -1.
    9000002   -1    0    0    0    0 -0.00000000000E+00 -0.00000000000E+00  0.00000000000E+00  0.93800000000E+00  0.93800000000E+00 0. -1.
         11    1    1    2    0    0 -0.63465926617E-01 -0.23180905280E-01  0.94434181752E-01  0.11611784538E+00  0.51100000000E-03 0. -1.
    9000002    1    1    2    0    0  0.65662160614E+00  0.17380194645E+00  0.34399008352E+00  0.12081110163E+01  0.93800000000E+00 0. -1.
         22    1    1    2    0    0 -0.59315567952E+00 -0.15062104117E+00  0.35615757021E+01  0.36137711383E+01  0.00000000000E+00 0. -1.
</event>
<event>
 5    1  0.6645559E+001  0.1569896E+01  0.7818608E-02  0.3386700E+00
         11   -1    0    0    0    0  0.00000000000E+00  0.00000000000E+00  0.39999999674E+01  0.40000000000E+01  0.51100000000E-03 0.  1.
    9000002   -1    0    0    0    0 -0.00000000000E+00 -0.00000000000E+00  0.00000000000E+00  0.93800000000E+00  0.93800000000E+00 0. -1.
         11    1    1    2    0    0 -0.23349195872E+00 -0.42519773054E+00  0.12477863266E+01  0.13387615855E+01  0.51100000000E-03 0.  1.
    9000002    1    1    2    0    0  0.54968994182E+00  0.61719550169E+00  0.54937890983E+00  0.13655586791E+01  0.93800000000E+00 0. -1.
         22    1    1    2    0    0 -0.31619798310E+00 -0.19199777115E+00  0.22028347309E+01  0.22336797354E+01  0.00000000000E+00 0.  1.
</event>
<event>
 5    1  0.6645559E+001  0.1599673E+01  0.7818608E-02  0.3353719E+00
         11   -1    0    0    0    0  0.00000000000E+00  0.00000000000E+00  0.39999999674E+01  0.40000000000E+01  0.51100000000E-03 0.  1.
    9000002   -1    0    0    0    0 -0.00000000000E+00 -0.00000000000E+00  0.00000000000E+00  0.93800000000E+00  0.93800000000E+00 0. -1.
         11    1    1    2    0    0 -0.18769943001E-01 -0.19195643222E-01  0.14476962481E+00  0.14723888368E+00  0.51100000000E-03 0.  1.
    9000002    1    1    2    0    0  0.45595786372E+00  0.49047675162E+00  0.31799515548E+00  0.11955876949E+01  0.93800000000E+00 0. -1.
         22    1    1    2    0    0 -0.43718792072E+00 -0.47128110840E+00  0.35372351871E+01  0.35951734214E+01  0.00000000000E+00 0.  1.
</event>
<event>
 5    1  0.6645559E+001  0.1596822E+01  0.7818608E-02  0.3356820E+00
         11   -1    0    0    0    0  0.00000000000E+00  0.00000000000E+00  0.39999999674E+01  0.40000000000E+01  0.51100000000E-03 0. -1.
    9000002   -1    0    0    0    0 -0.00000000000E+00 -0.00000000000E+00  0.00000000000E+00  0.93800000000E+00  0.93800000000E+00 0.  1.
         11    1    1    2    0    0 -0.82049850338E-01 -0.41185499659E-01  0.50140094743E+00  0.50973678945E+00  0.51100000000E-03 0. -1.
    9000002    1    1    2    0    0  0.42168227750E+00  0.58203143629E-01  0.12506833618E+00  0.10376365634E+01  0.93800000000E+00 0.  1.
         22    1    1    2    0    0 -0.33963242716E+00 -0.17017643970E-01  0.33735306838E+01  0.33906266471E+01  0.00000000000E+00 0.  1.
</event>
<event>
 5    1  0.1640669E+002  0.1547989E+01  0.7818608E-02  0.3411824E+00
         11   -1    0    0    0    0  0.00000000000E+00  0.00000000000E+00  0.39999999674E+01  0.40000000000E+01  0.51100000000E-03 0.  1.
    9000002   -1    0    0    0    0 -0.00000000000E+00 -0.00000000000E+00  0.00000000000E+00  0.93800000000E+00  0.93800000000E+00 0.  1.
         11    1    1    2    0    0 -0.21894110117E+00  0.23178756844E-01  0.93667647854E+00  0.96220348530E+00  0.51100000000E-03 0.  1.
    9000002    1    1    2    0    0 -0.40947218590E-01  0.95477354195E-01  0.45871257100E-01  0.94484960290E+00  0.93800000000E+00 0.  1.
         22    1    1    2    0    0  0.25988831976E+00 -0.11865611104E+00  0.30174522317E+01  0.30309469118E+01  0.00000000000E+00 0. -1.
</event>
<event>
 5    1  0.6645559E+001  0.1599230E+01  0.7818608E-02  0.3354199E+00
         11   -1    0    0    0    0  0.00000000000E+00  0.00000000000E+00  0.39999999674E+01  0.40000000000E+01  0.51100000000E-03 0. -1.
    9000002   -1    0    0    0    0 -0.00000000000E+00 -0.00000000000E+00  0.00000000000E+00  0.93800000000E+00  0.93800000000E+00 0. -1.
         11    1    1    2    0    0  0.10721223123E+00  0.60574523585E-01  0.11217332450E+01  0.11284721837E+01  0.51100000000E-03 0. -1.
    9000002    1    1    2    0    0 -0.31361146806E+00 -0.26497702703E+00  0.11423188380E+00  0.10302707901E+01  0.93800000000E+00 0. -1.
         22    1    1    2    0    0  0.20639923684E+00  0.20440250345E+00  0.27640348386E+01  0.27792570261E+01  0.00000000000E+00 0. -1.
</event>
<event>
 5    1  0.6645559E+001  0.1599234E+01  0.7818608E-02  0.3354195E+00
         11   -1    0    0    0    0  0.00000000000E+00  0.00000000000E+00  0.39999999674E+01  0.40000000000E+01  0.51100000000E-03 0.  1.
    9000002   -1    0    0    0    0 -0.00000000000E+00 -0.00000000000E+00  0.00000000000E+00  0.93800000000E+00  0.93800000000E+00 0.  1.
         11    1    1    2    0    0  0.10346913045E+00  0.12003854177E+00  0.13357830335E+01  0.13451511759E+01  0.51100000000E-03 0.  1.
    9000002    1    1    2    0    0 -0.26008075294E+00 -0.29328754607E+00  0.10390774809E+00  0.10219101736E+01  0.93800000000E+00 0.  1.
         22    1    1    2    0    0  0.15661162249E+00  0.17324900430E+00  0.25603091858E+01  0.25709386505E+01  0.00000000000E+00 0.  1.
</event>
<event>
 5    1  0.6645559E+001  0.1598798E+01  0.7818608E-02  0.3354669E+00
         11   -1    0    0    0    0  0.00000000000E+00  0.00000000000E+00  0.39999999674E+01  0.40000000000E+01  0.51100000000E-03 0. -1.
    9000002   -1    0    0    0    0 -0.00000000000E+00 -0.00000000000E+00  0.00000000000E+00  0.93800000000E+00  0.93800000000E+00 0.  1.
         11    1    1    2    0    0 -0.11804135698E+00 -0.13762792411E-01  0.76786397868E+00  0.77700613079E+00  0.51100000000E-03 0. -1.
    9000002    1    1    2    0    0  0.46753882917E+00 -0.34336149944E-02  0.14963682122E+00  0.10586970883E+01  0.93800000000E+00 0.  1.
         22    1    1    2    0    0 -0.34949747219E+00  0.17196407405E-01  0.30824991675E+01  0.31022967809E+01  0.00000000000E+00 0. -1.
</event>
<event>
 5    1  0.6645559E+001  0.1599670E+01  0.7818608E-02  0.3353721E+00
         11   -1    0    0    0    0  0.00000000000E+00  0.00000000000E+00  0.39999999674E+01  0.40000000000E+01  0.51100000000E-03 0. -1.
    9000002   -1    0    0    0    0 -0.00000000000E+00 -0.00000000000E+00  0.00000000000E+00  0.93800000000E+00  0.93800000000E+00 0.  1.
         11    1    1    2    0    0 -0.17761140383E+00  0.35576152156E-02  0.14200975321E+01  0.14311658637E+01  0.51100000000E-03 0. -1.
    9000002    1    1    2    0    0  0.48738300709E+00 -0.13107559258E-01  0.16240032156E+00  0.10695475063E+01  0.93800000000E+00 0.  1.
         22    1    1    2    0    0 -0.30977160325E+00  0.95499440428E-02  0.24175021137E+01  0.24372866301E+01  0.00000000000E+00 0. -1.
</event>
<event>
 5    1  0.6645559E+001  0.1599666E+01  0.7818608E-02  0.3353726E+00
         11   -1    0    0    0    0  0.00000000000E+00  0.00000000000E+00  0.39999999674E+01  0.40000000000E+01  0.51100000000E-03 0. -1.
    9000002   -1    0    0    0    0 -0.00000000000E+00 -0.00000000000E+00  0.00000000000E+00  0.93800000000E+00  0.93800000000E+00 0. -1.
         11    1    1    2    0    0 -0.12369254923E-01  0.14255930988E+00  0.11750179138E+01  0.11836990810E+01  0.51100000000E-03 0. -1.
    9000002    1    1    2    0    0  0.38443822174E-01 -0.47817401318E+00  0.15702345365E+00  0.10651895040E+01  0.93800000000E+00 0. -1.
         22    1    1    2    0    0 -0.26074567250E-01  0.33561470330E+00  0.26679585999E+01  0.26891114151E+01  0.00000000000E+00 0. -1.
</event>
<event>
 5    1  0.6645559E+001  0.1160709E+01  0.7818608E-02  0.4088811E+00
         11   -1    0    0    0    0  0.00000000000E+00  0.00000000000E+00  0.39999999674E+01  0.40000000000E+01  0.51100000000E-03 0. -1.
    9000002   -1    0    0    0    0 -0.00000000000E+00 -0.00000000000E+00  0.00000000000E+00  0.93800000000E+00  0.93800000000E+00 0. -1.
         11    1    1    2    0    0  0.64490477782E+00  0.18054127184E+00  0.42916444688E+00  0.79541165875E+00  0.51100000000E-03 0. -1.
    9000002    1    1    2    0    0 -0.41472753416E+00  0.97150125955E-01  0.69149383106E+00  0.12407436451E+01  0.93800000000E+00 0. -1.
         22    1    1    2    0    0 -0.23017724366E+00 -0.27769139779E+00  0.28793416894E+01  0.29018446961E+01  0.00000000000E+00 0. -1.
</event>
<event>
 5    1  0.6645559E+001  0.1599646E+01  0.7818608E-02  0.3353748E+00
         11   -1    0    0    0    0  0.00000000000E+00  0.00000000000E+00  0.39999999674E+01  0.40000000000E+01  0.51100000000E-03 0. -1.
    9000002   -1    0    0    0    0 -0.00000000000E+00 -0.00000000000E+00  0.00000000000E+00  0.93800000000E+00  0.93800000000E+00 0. -1.
         11    1    1    2    0    0  0.10266665876E+00 -0.64231239335E-02  0.58978358395E+00  0.59868742793E+00  0.51100000000E-03 0. -1.
    9000002    1    1    2    0    0 -0.61825150378E+00  0.38291361971E-01  0.26887938689E+00  0.11557859988E+01  0.93800000000E+00 0. -1.
         22    1    1    2    0    0  0.51558484502E+00 -0.31868238038E-01  0.31413369965E+01  0.31835265733E+01  0.00000000000E+00 0. -1.
</event>
<event>
 5    1  0.6645559E+001  0.1599670E+01  0.7818608E-02  0.3353722E+00
         11   -1    0    0    0    0  0.00000000000E+00  0.00000000000E+00  0.39999999674E+01  0.40000000000E+01  0.51100000000E-03 0.  1.
    9000002   -1    0    0    0    0 -0.00000000000E+00 -0.00000000000E+00  0.00000000000E+00  0.93800000000E+00  0.93800000000E+00 0. -1.
         11    1    1    2    0    0  0.58753325532E-01  0.82159808138E-01  0.72004236638E+00  0.72709246856E+00  0.51100000000E-03 0.  1.
    9000002    1    1    2    0    0 -0.30937591112E+00 -0.42188340945E+00  0.18812038061E+00  0.10903817419E+01  0.93800000000E+00 0. -1.
         22    1    1    2    0    0  0.25062258559E+00  0.33972360131E+00  0.30918372204E+01  0.31205257895E+01  0.00000000000E+00 0.  1.
</event>
<event>
 5    1  0.6645559E+001  0.1599675E+01  0.7818608E-02  0.3353716E+00
         11   -1    0    0    0    0  0.00000000000E+00  0.00000000000E+00  0.39999999674E+01  0.40000000000E+01  0.51100000000E-03 0. -1.
    9000002   -1    0    0    0    0 -0.00000000000E+00 -0.00000000000E+00  0.00000000000E+00  0.93800000000E+00  0.93800000000E+00 0. -1.
         11    1    1    2    0    0 -0.11284735261E+00 -0.60318547258E-01  0.11371541020E+01  0.11443306188E+01  0.51100000000E-03 0. -1.
    9000002    1    1    2    0    0  0.38329461678E+00  0.20080637528E+00  0.12685404202E+00  0.10407564132E+01  0.93800000000E+00 0. -1.
         22    1    1    2    0    0 -0.27044726416E+00 -0.14048782802E+00  0.27359918233E+01  0.27529129680E+01  0.00000000000E+00 0.  1.
</event>
<event>
 5    1  0.6645559E+001  0.1599383E+01  0.7818608E-02  0.3354033E+00
         11   -1    0    0    0    0  0.00000000000E+00  0.00000000000E+00  0.39999999674E+01  0.40000000000E+01  0.51100000000E-03 0. -1.
    9000002   -1    0    0    0    0 -0.00000000000E+00 -0.00000000000E+00  0.00000000000E+00  0.93800000000E+00  0.93800000000E+00 0.  1.
         11    1    1    2    0    0  0.77197245181E-01 -0.14104711509E+00  0.10119278442E+01  0.10246228215E+01  0.51100000000E-03 0. -1.
    9000002    1    1    2    0    0 -0.24290885486E+00  0.57320401671E+00  0.27204617041E+00  0.11581971660E+01  0.93800000000E+00 0.  1.
         22    1    1    2    0    0  0.16571160968E+00 -0.43215690162E+00  0.27160259527E+01  0.27551800124E+01  0.00000000000E+00 0. -1.
</event>
<event>
 5    1  0.6645559E+001  0.1589738E+01  0.7818608E-02  0.3364578E+00
         11   -1    0    0    0    0  0.00000000000E+00  0.00000000000E+00  0.39999999674E+01  0.40000000000E+01  0.51100000000E-03 0.  1.
    9000002   -1    0    0    0    0 -0.00000000000E+00 -0.00000000000E+00  0.00000000000E+00  0.93800000000E+00  0.93800000000E+00 0.  1.
         11    1    1    2    0    0  0.44151600720E-01  0.19603935588E+00  0.14492422297E+01  0.14631076838E+01  0.51100000000E-03 0.  1.
    9000002    1    1    2    0    0 -0.34052272609E+00 -0.30741120613E+00  0.15182242508E+00  0.10551546926E+01  0.93800000000E+00 0.  1.
         22    1    1    2    0    0  0.29637112537E+00  0.11137185025E+00  0.23989353125E+01  0.24197376235E+01  0.00000000000E+00 0. -1.
</event>
<event>
 5    1  0.6645559E+001  0.1599676E+01  0.7818608E-02  0.3353716E+00
         11   -1    0    0    0    0  0.00000000000E+00  0.00000000000E+00  0.39999999674E+01  0.40000000000E+01  0.51100000000E-03 0. -1.
    9000002   -1    0    0    0    0 -0.00000000000E+00 -0.00000000000E+00  0.00000000000E+00  0.93800000000E+00  0.93800000000E+00 0. -1.
         11    1    1    2    0    0 -0.87194126611E-01 -0.19235077327E-01  0.62941432974E+00  0.63571649618E+00  0.51100000000E-03 0. -1.
    9000002    1    1    2    0    0  0.52663630294E+00  0.12212252661E+00  0.20150986615E+00  0.11012310989E+01  0.93800000000E+00 0. -1.
         22    1    1    2    0    0 -0.43944217633E+00 -0.10288744928E+00  0.31690757715E+01  0.32010524049E+01  0.00000000000E+00 0. -1.
</event>
<event>
 5    1  0.6645559E+001  0.1594745E+01  0.7818608E-02  0.3359087E+00
         11   -1    0    0    0    0  0.00000000000E+00  0.00000000000E+00  0.39999999674E+01  0.40000000000E+01  0.51100000000E-03 0. -1.
    9000002   -1    0    0    0    0 -0.00000000000E+00 -0.00000000000E+00  0.00000000000E+00  0.93800000000E+00  0.93800000000E+00 0.  1.
         11    1    1    2    0    0  0.65752838016E-01 -0.29559583972E-01  0.57058533839E+00  0.57512180816E+00  0.51100000000E-03 0. -1.
    9000002    1    1    2    0    0 -0.64170755657E-01  0.33598683927E+00  0.82347860272E-01  0.10018134617E+01  0.93800000000E+00 0.  1.
         22    1    1    2    0    0 -0.15820823594E-02 -0.30642725530E+00  0.33470667687E+01  0.33610647301E+01  0.00000000000E+00 0. -1.
</event>
<event>
 5    1  0.6645559E+001  0.1599673E+01  0.7818608E-02  0.3353718E+00
         11   -1    0    0    0    0  0.00000000000E+00  0.00000000000E+00  0.39999999674E+01  0.40000000000E+01  0.51100000000E-03 0.  1.
    9000002   -1    0    0    0    0 -0.00000000000E+00 -0.00000000000E+00  0.00000000000E+00  0.93800000000E+00  0.93800000000E+00 0. -1.
         11    1    1    2    0    0 -0.12464006300E+00  0.23238920715E-01  0.13379225754E+01  0.13439167652E+01  0.51100000000E-03 0.  1.
    9000002    1    1    2    0    0  0.36473885099E+00 -0.61364367494E-01  0.91936588785E-01  0.10124704200E+01  0.93800000000E+00 0. -1.
         22    1    1    2    0    0 -0.24009878799E+00  0.38125446779E-01  0.25701408032E+01  0.25816128148E+01  0.00000000000E+00 0.  1.
</event>
<event>
 5    1  0.6645559E+001  0.1541325E+01  0.7818608E-02  0.3419618E+00
         11   -1    0    0    0    0  0.00000000000E+00  0.00000000000E+00  0.39999999674E+01  0.40000000000E+01  0.51100000000E-03 0. -1.
    9000002   -1    0    0    0    0 -0.00000000000E+00 -0.00000000000E+00  0.00000000000E+00  0.93800000000E+00  0.93800000000E+00 0. -1.
         11    1    1    2    0    0  0.21467999589E+00  0.14557622010E-02  0.76381532646E+00  0.79341271349E+00  0.51100000000E-03 0. -1.
    9000002    1    1    2    0    0  0.81558760303E-01  0.23949265370E-01  0.48526655288E-01  0.94309290898E+00  0.93800000000E+00 0. -1.
         22    1    1    2    0    0 -0.29623875619E+00 -0.25405027571E-01  0.31876579856E+01  0.32014943775E+01  0.00000000000E+00 0. -1.
</event>
<event>
 5    1  0.6645559E+001  0.1592211E+01  0.7818608E-02  0.3361861E+00
         11   -1    0    0    0    0  0.00000000000E+00  0.00000000000E+00  0.39999999674E+01  0.40000000000E+01  0.51100000000E-03 0. -1.
    9000002   -1    0    0    0    0 -0.00000000000E+00 -0.00000000000E+00  0.00000000000E+00  0.93800000000E+00  0.93800000000E+00 0. -1.
         11    1    1    2    0    0 -0.44485804888E-02 -0.44380219386E-02  0.12738202838E+01  0.12738358852E+01  0.51100000000E-03 0. -1.
    9000002    1    1    2    0    0  0.30835450755E+00  0.73475110935E-01  0.73062523821E-01  0.99280573459E+00  0.93800000000E+00 0. -1.
         22    1    1    2    0    0 -0.30390592706E+00 -0.69037088997E-01  0.26531171598E+01  0.26713583802E+01  0.00000000000E+00 0. -1.
</event>
<event>
 5    1  0.6645559E+001  0.1537492E+01  0.7818608E-02  0.3424133E+00
         11   -1    0    0    0    0  0.00000000000E+00  0.00000000000E+00  0.39999999674E+01  0.40000000000E+01  0.51100000000E-03 0. -1.
    9000002   -1    0    0    0    0 -0.00000000000E+00 -0.00000000000E+00  0.00000000000E+00  0.93800000000E+00  0.93800000000E+00 0. -1.
         11    1    1    2    0    0  0.22732199029E-01 -0.11355122721E+00  0.42122811662E+00  0.43685698051E+00  0.51100000000E-03 0. -1.
    9000002    1    1    2    0    0 -0.65057222481E-01 -0.67305417645E+00  0.39586674454E+00  0.12222065480E+01  0.93800000000E+00 0. -1.
         22    1    1    2    0    0  0.42325023451E-01  0.78660540367E+00  0.31829051062E+01  0.32789364714E+01  0.00000000000E+00 0. -1.
</event>
<event>
 5    1  0.6645559E+001  0.1594090E+01  0.7818608E-02  0.3359803E+00
         11   -1    0    0    0    0  0.00000000000E+00  0.00000000000E+00  0.39999999674E+01  0.40000000000E+01  0.51100000000E-03 0. -1.
    9000002   -1    0    0    0    0 -0.00000000000E+00 -0.00000000000E+00  0.00000000000E+00  0.93800000000E+00  0.93800000000E+00 0. -1.
         11    1    1    2    0    0  0.19195174112E-01 -0.12887887623E-01  0.43296902478E+00  0.43358619662E+00  0.51100000000E-03 0. -1.
    9000002    1    1    2    0    0  0.30812040076E+00 -0.52599366068E-01  0.69673350557E-01  0.99116257519E+00  0.93800000000E+00 0. -1.
         22    1    1    2    0    0 -0.32731557487E+00  0.65487253691E-01  0.34973575920E+01  0.35132512282E+01  0.00000000000E+00 0. -1.
</event>
<event>
 5    1  0.6645559E+001  0.1599659E+01  0.7818608E-02  0.3353733E+00
         11   -1    0    0    0    0  0.00000000000E+00  0.00000000000E+00  0.39999999674E+01  0.40000000000E+01  0.51100000000E-03 0.  1.
    9000002   -1    0    0    0    0 -0.00000000000E+00 -0.00000000000E+00  0.00000000000E+00  0.93800000000E+00  0.93800000000E+00 0. -1.
         11    1    1    2    0    0  0.42382486709E-02  0.15201555642E+00  0.96424351394E+00  0.97616213174E+00  0.51100000000E-03 0.  1.
    9000002    1    1    2    0    0 -0.28688132384E-01 -0.58116292905E+00  0.23534502603E+00  0.11286295408E+01  0.93800000000E+00 0. -1.
         22    1    1    2    0    0  0.24449883713E-01  0.42914737263E+00  0.28004114274E+01  0.28332083275E+01  0.00000000000E+00 0.  1.
</event>
<event>
 5    1  0.6645559E+001  0.1551696E+01  0.7818608E-02  0.3407519E+00
         11   -1    0    0    0    0  0.00000000000E+00  0.00000000000E+00  0.39999999674E+01  0.40000000000E+01  0.51100000000E-03 0.  1.
    9000002   -1    0    0    0    0 -0.00000000000E+00 -0.00000000000E+00  0.00000000000E+00  0.93800000000E+00  0.93800000000E+00 0. -1.
         11    1    1    2    0    0 -0.14774105684E+00 -0.59275416089E-01  0.56334496805E+00  0.58540482487E+00  0.51100000000E-03 0.  1.
    9000002    1    1    2    0    0 -0.17789700549E+00 -0.45248356774E-01  0.58937577428E-01  0.95760764219E+00  0.93800000000E+00 0. -1.
         22    1    1    2    0    0  0.32563806233E+00  0.10452377286E+00  0.33777174219E+01  0.33949875329E+01  0.00000000000E+00 0.  1.
</event>
<event>
 5    1  0.6645559E+001  0.1598209E+01  0.7818608E-02  0.3355309E+00
         11   -1    0    0    0    0  0.00000000000E+00  0.00000000000E+00  0.39999999674E+01  0.40000000000E+01  0.51100000000E-03 0.  1.
    9000002   -1    0    0    0    0 -0.00000000000E+00 -0.00000000000E+00  0.00000000000E+00  0.93800000000E+00  0.93800000000E+00 0. -1.
         11    1    1    2    0    0 -0.18673745811E+00  0.93465795330E-01  0.13640282998E+01  0.13799203589E+01  0.51100000000E-03 0.  1.
    9000002    1    1    2    0    0  0.41002031466E+00 -0.21922259178E+00  0.14843716373E+00  0.10573801562E+01  0.93800000000E+00 0. -1.
         22    1    1    2    0    0 -0.22328285655E+00  0.12575679645E+00  0.24875345039E+01  0.25006994849E+01  0.00000000000E+00 0.  1.
</event>
<event>
 5    1  0.6645559E+001  0.1577728E+01  0.7818608E-02  0.3377897E+00
         11   -1    0    0    0    0  0.00000000000E+00  0.00000000000E+00  0.39999999674E+01  0.40000000000E+01  0.51100000000E-03 0. -1.
    9000002   -1    0    0    0    0 -0.00000000000E+00 -0.00000000000E+00  0.00000000000E+00  0.93800000000E+00  0.93800000000E+00 0. -1.
         11    1    1    2    0    0  0.50572779342E-02 -0.17973626764E+00  0.40496208264E+00  0.44308605424E+00  0.51100000000E-03 0. -1.
    9000002    1    1    2    0    0  0.41549109273E+00  0.65927771037E+00  0.47236414359E+00  0.13077659698E+01  0.93800000000E+00 0. -1.
         22    1    1    2    0    0 -0.42054837066E+00 -0.47954144273E+00  0.31226737411E+01  0.31871479760E+01  0.00000000000E+00 0. -1.
</event>
<event>
 5    1  0.6645559E+001  0.1599576E+01  0.7818608E-02  0.3353824E+00
         11   -1    0    0    0    0  0.00000000000E+00  0.00000000000E+00  0.39999999674E+01  0.40000000000E+01  0.51100000000E-03 0.  1.
    9000002   -1    0    0    0    0 -0.00000000000E+00 -0.00000000000E+00  0.00000000000E+00  0.93800000000E+00  0.93800000000E+00 0. -1.
         11    1    1    2    0    0 -0.33678640070E-01  0.79857985397E-02  0.38680842634E+00  0.38835427587E+00  0.51100000000E-03 0.  1.
    9000002    1    1    2    0    0  0.38661800342E+00 -0.24728989285E-01  0.10115852926E+00  0.10198833519E+01  0.93800000000E+00 0. -1.
         22    1    1    2    0    0 -0.35293936335E+00  0.16743190746E-01  0.35120330118E+01  0.35297623722E+01  0.00000000000E+00 0.  1.
</event>
<event>
 5    1  0.6645559E+001  0.1599667E+01  0.7818608E-02  0.3353725E+00
         11   -1    0    0    0    0  0.00000000000E+00  0.00000000000E+00  0.39999999674E+01  0.40000000000E+01  0.51100000000E-03 0.  1.
    9000002   -1    0    0    0    0 -0.00000000000E+00 -0.00000000000E+00  0.00000000000E+00  0.93800000000E+00  0.93800000000E+00 0.  1.
         11    1    1    2    0    0  0.40323515271E-01 -0.34192678400E-01  0.37357945852E+00  0.37730226356E+00  0.51100000000E-03 0.  1.
    9000002    1    1    2    0    0 -0.42940002624E+00  0.35548108821E+00  0.21495210471E+00  0.11121149194E+01  0.93800000000E+00 0.  1.
         22    1    1    2    0    0  0.38907651097E+00 -0.32128840981E+00  0.34114684041E+01  0.34485828170E+01  0.00000000000E+00 0.  1.
</event>
<event>
 5    1  0.6645559E+001  0.1518796E+01  0.7818608E-02  0.3446508E+00
         11   -1    0    0    0    0  0.00000000000E+00  0.00000000000E+00  0.39999999674E+01  0.40000000000E+01  0.51100000000E-03 0.  1.
    9000002   -1    0    0    0    0 -0.00000000000E+00 -0.00000000000E+00  0.00000000000E+00  0.93800000000E+00  0.93800000000E+00 0. -1.
         11    1    1    2    0    0  0.24902659093E-01  0.11636344362E+00  0.11008689467E+00  0.16211100808E+00  0.51100000000E-03 0.  1.
    9000002    1    1    2    0    0 -0.18910346540E+00  0.22096627853E+00  0.12229708477E+00  0.98963972930E+00  0.93800000000E+00 0. -1.
         22    1    1    2    0    0  0.16420080631E+00 -0.33732972214E+00  0.37676159879E+01  0.37862492626E+01  0.00000000000E+00 0.  1.
</event>
<event>
 5    1  0.6645559E+001  0.1599509E+01  0.7818608E-02  0.3353896E+00
         11   -1    0    0    0    0  0.00000000000E+00  0.00000000000E+00  0.39999999674E+01  0.40000000000E+01  0.51100000000E-03 0. -1.
    9000002   -1    0    0    0    0 -0.00000000000E+00 -0.00000000000E+00  0.00000000000E+00  0.93800000000E+00  0.93800000000E+00 0. -1.
         11    1    1    2    0    0  0.35437481795E-03 -0.37750165581E-02  0.43406323624E-01  0.43574607090E-01  0.51100000000E-03 0. -1.
    9000002    1    1    2    0    0 -0.32051681202E+00  0.33505838766E+00  0.14646818269E+00  0.10565472438E+01  0.93800000000E+00 0. -1.
         22    1    1    2    0    0  0.32016243721E+00 -0.33128337110E+00  0.38101254610E+01  0.38378781491E+01  0.00000000000E+00 0. -1.
</event>
<event>
 5    1  0.6645559E+001  0.1599677E+01  0.7818608E-02  0.3353714E+00
         11   -1    0    0    0    0  0.00000000000E+00  0.00000000000E+00  0.39999999674E+01  0.40000000000E+01  0.51100000000E-03 0. -1.
    9000002   -1    0    0    0    0 -0.00000000000E+00 -0.00000000000E+00  0.00000000000E+00  0.93800000000E+00  0.93800000000E+00 0.  1.
         11    1    1    2    0    0  0.90598816514E-01 -0.12393066350E-01  0.88969883321E+00  0.89438582758E+00  0.51100000000E-03 0. -1.
    9000002    1    1    2    0    0 -0.39671844606E+00  0.53344563805E-01  0.10808323922E+00  0.10255521218E+01  0.93800000000E+00 0.  1.
         22    1    1    2    0    0  0.30611962955E+00 -0.40951497456E-01  0.30022178949E+01  0.30180620506E+01  0.00000000000E+00 0. -1.
</event>
<event>
 5    1  0.6645559E+001  0.1599677E+01  0.7818608E-02  0.3353714E+00
         11   -1    0    0    0    0  0.00000000000E+00  0.00000000000E+00  0.39999999674E+01  0.40000000000E+01  0.51100000000E-03 0. -1.
    9000002   -1    0    0    0    0 -0.00000000000E+00 -0.00000000000E+00  0.00000000000E+00  0.93800000000E+00  0.93800000000E+00 0. -1.
         11    1    1    2    0    0  0.67910576229E-01 -0.14191799327E+00  0.14887811513E+01  0.14970711876E+01  0.51100000000E-03 0.  1.
    9000002    1    1    2    0    0 -0.17548193514E+00  0.37069905134E+00  0.11361233615E+00  0.10300308050E+01  0.93800000000E+00 0. -1.
         22    1    1    2    0    0  0.10757135891E+00 -0.22878105806E+00  0.23976064799E+01  0.24108980074E+01  0.00000000000E+00 0. -1.
</event>
<event>
 5    1  0.6645559E+001  0.1599676E+01  0.7818608E-02  0.3353716E+00
         11   -1    0    0    0    0  0.00000000000E+00  0.00000000000E+00  0.39999999674E+01  0.40000000000E+01  0.51100000000E-03 0. -1.
    9000002   -1    0    0    0    0 -0.00000000000E+00 -0.00000000000E+00  0.00000000000E+00  0.93800000000E+00  0.93800000000E+00 0. -1.
         11    1    1    2    0    0 -0.68675814534E-01  0.69848493027E-02  0.38593060516E+00  0.39205592553E+00  0.51100000000E-03 0. -1.
    9000002    1    1    2    0    0  0.65052230077E+00 -0.66192487398E-01  0.30199154841E+00  0.11826257246E+01  0.93800000000E+00 0. -1.
         22    1    1    2    0    0 -0.58184648623E+00  0.59207638095E-01  0.33120778138E+01  0.33633183499E+01  0.00000000000E+00 0. -1.
</event>
<event>
 5    1  0.6645559E+001  0.1599677E+01  0.7818608E-02  0.3353714E+00
         11   -1    0    0    0    0  0.00000000000E+00  0.00000000000E+00  0.39999999674E+01  0.40000000000E+01  0.51100000000E-03 0.  1.
    9000002   -1    0    0    0    0 -0.00000000000E+00 -0.00000000000E+00  0.00000000000E+00  0.93800000000E+00  0.93800000000E+00 0. -1.
         11    1    1    2    0    0  0.10775285122E-01 -0.16668122195E+00  0.14154394044E+01  0.14252605744E+01  0.51100000000E-03 0.  1.
    9000002    1    1    2    0    0 -0.30128797461E-01  0.45433119177E+00  0.14092313369E+00  0.10521539364E+01  0.93800000000E+00 0. -1.
         22    1    1    2    0    0  0.19353512339E-01 -0.28764996982E+00  0.24436374293E+01  0.24605854892E+01  0.00000000000E+00 0.  1.
</event>
<event>
 5    1  0.6645559E+001  0.1599647E+01  0.7818608E-02  0.3353747E+00
         11   -1    0    0    0    0  0.00000000000E+00  0.00000000000E+00  0.39999999674E+01  0.40000000000E+01  0.51100000000E-03 0.  1.
    9000002   -1    0    0    0    0 -0.00000000000E+00 -0.00000000000E+00  0.00000000000E+00  0.93800000000E+00  0.93800000000E+00 0.  1.
         11    1    1    2    0    0  0.11388215754E+00 -0.10454451879E+00  0.12011113721E+01  0.12110191954E+01  0.51100000000E-03 0.  1.
    9000002    1    1    2    0    0 -0.35552733914E+00  0.35141402625E+00  0.17108901006E+00  0.10765718537E+01  0.93800000000E+00 0.  1.
         22    1    1    2    0    0  0.24164518160E+00 -0.24686950746E+00  0.26277995852E+01  0.26504089510E+01  0.00000000000E+00 0.  1.
</event>
<event>
 5    1  0.6645559E+001  0.1597813E+01  0.7818608E-02  0.3355740E+00
         11   -1    0    0    0    0  0.00000000000E+00  0.00000000000E+00  0.39999999674E+01  0.40000000000E+01  0.51100000000E-03 0. -1.
    9000002   -1    0    0    0    0 -0.00000000000E+00 -0.00000000000E+00  0.00000000000E+00  0.93800000000E+00  0.93800000000E+00 0. -1.
         11    1    1    2    0    0  0.18198124635E+00 -0.14839866179E+00  0.11963028574E+01  0.12191308890E+01  0.51100000000E-03 0. -1.
    9000002    1    1    2    0    0 -0.41897632299E+00  0.43573117333E+00  0.25705061794E+00  0.11451296149E+01  0.93800000000E+00 0. -1.
         22    1    1    2    0    0  0.23699507664E+00 -0.28733251153E+00  0.25466464920E+01  0.25737394961E+01  0.00000000000E+00 0. -1.
</event>
<event>
 5    1  0.6645559E+001  0.1584857E+01  0.7818608E-02  0.3369965E+00
         11   -1    0    0    0    0  0.00000000000E+00  0.00000000000E+00  0.39999999674E+01  0.40000000000E+01  0.51100000000E-03 0. -1.
    9000002   -1    0    0    0    0 -0.00000000000E+00 -0.00000000000E+00  0.00000000000E+00  0.93800000000E+00  0.93800000000E+00 0.  1.
         11    1    1    2    0    0  0.46911051395E-01 -0.62457064859E-01  0.31806779231E+00  0.32751933274E+00  0.51100000000E-03 0. -1.
    9000002    1    1    2    0    0  0.36374708218E+00  0.44033797332E+00  0.24067581201E+00  0.11242679027E+01  0.93800000000E+00 0.  1.
         22    1    1    2    0    0 -0.41065813357E+00 -0.37788090847E+00  0.34412563630E+01  0.34862127646E+01  0.00000000000E+00 0. -1.
</event>
<event>
 5    1  0.6645559E+001  0.1599139E+01  0.7818608E-02  0.3354298E+00
         11   -1    0    0    0    0  0.00000000000E+00  0.00000000000E+00  0.39999999674E+01  0.40000000000E+01  0.51100000000E-03 0.  1.
    9000002   -1    0    0    0    0 -0.00000000000E+00 -0.00000000000E+00  0.00000000000E+00  0.93800000000E+00  0.93800000000E+00 0. -1.
         11    1    1    2    0    0 -0.12885180115E+00  0.67907000159E-02  0.10162099815E+01  0.10243690194E+01  0.51100000000E-03 0.  1.
    9000002    1    1    2    0    0  0.53615693721E+00 -0.99952558248E-01  0.20577934178E+00  0.11043748968E+01  0.93800000000E+00 0. -1.
         22    1    1    2    0    0 -0.40730513606E+00  0.93161858232E-01  0.27780106441E+01  0.28092560838E+01  0.00000000000E+00 0.  1.
</event>
<event>
 5    1  0.6645559E+001  0.1599373E+01  0.7818608E-02  0.3354044E+00
         11   -1    0    0    0    0  0.00000000000E+00  0.00000000000E+00  0.39999999674E+01  0.40000000000E+01  0.51100000000E-03 0. -1.
    9000002   -1    0    0    0    0 -0.00000000000E+00 -0.00000000000E+00  0.00000000000E+00  0.93800000000E+00  0.93800000000E+00 0. -1.
         11    1    1    2    0    0  0.66930829572E-01  0.22684801773E+00  0.97348668163E+00  0.10018065380E+01  0.51100000000E-03 0. -1.
    9000002    1    1    2    0    0 -0.27659872063E+00 -0.76027712913E+00  0.48403261886E+00  0.13299096742E+01  0.93800000000E+00 0. -1.
         22    1    1    2    0    0  0.20966789106E+00  0.53342911140E+00  0.25424806669E+01  0.26062837879E+01  0.00000000000E+00 0. -1.
</event>
<event>
 5    1  0.6645559E+001  0.1599387E+01  0.7818608E-02  0.3354029E+00
         11   -1    0    0    0    0  0.00000000000E+00  0.00000000000E+00  0.39999999674E+01  0.40000000000E+01  0.51100000000E-03 0. -1.
    9000002   -1    0    0    0    0 -0.00000000000E+00 -0.00000000000E+00  0.00000000000E+00  0.93800000000E+00  0.93800000000E+00 0. -1.
         11    1    1    2    0    0  0.13059319392E+00 -0.62420485956E-01  0.14201970511E+01  0.14275541406E+01  0.51100000000E-03 0. -1.
    9000002    1    1    2    0    0 -0.37955313383E+00  0.12147347416E+00  0.10734595302E+00  0.10247846310E+01  0.93800000000E+00 0. -1.
         22    1    1    2    0    0  0.24895993991E+00 -0.59052988207E-01  0.24724569632E+01  0.24856612284E+01  0.00000000000E+00 0. -1.
</event>
<event>
 5    1  0.6645559E+001  0.1595287E+01  0.7818608E-02  0.3358494E+00
         11   -1    0    0    0    0  0.00000000000E+00  0.00000000000E+00  0.39999999674E+01  0.40000000000E+01  0.51100000000E-03 0. -1.
    9000002   -1    0    0    0    0 -0.00000000000E+00 -0.00000000000E+00  0.00000000000E+00  0.93800000000E+00  0.93800000000E+00 0.  1.
         11    1    1    2    0    0  0.29621264165E+00 -0.80677921554E-02  0.13870691248E+01  0.14183680892E+01  0.51100000000E-03 0. -1.
    9000002    1    1    2    0    0 -0.59107680664E+00  0.25733103154E-02  0.24763561715E+00  0.11360219242E+01  0.93800000000E+00 0.  1.
         22    1    1    2    0    0  0.29486416499E+00  0.54944818400E-02  0.23652952254E+01  0.23836099866E+01  0.00000000000E+00 0. -1.
</event>
<event>
 5    1  0.6645559E+001  0.1599676E+01  0.7818608E-02  0.3353715E+00
         11   -1    0    0    0    0  0.00000000000E+00  0.00000000000E+00  0.39999999674E+01  0.40000000000E+01  0.51100000000E-03 0.  1.
    9000002   -1    0    0    0    0 -0.00000000000E+00 -0.00000000000E+00  0.00000000000E+00  0.93800000000E+00  0.93800000000E+00 0.  1.
         11    1    1    2    0    0 -0.31914870932E-01  0.10088477101E+00  0.75769070914E+00  0.76504363787E+00  0.51100000000E-03 0. -1.
    9000002    1    1    2    0    0  0.15893914323E+00 -0.50421417518E+00  0.19228659244E+00  0.10937603574E+01  0.93800000000E+00 0.  1.
         22    1    1    2    0    0 -0.12702427230E+00  0.40332940417E+00  0.30500226658E+01  0.30791960048E+01  0.00000000000E+00 0.  1.
</event>
<event>
 5    1  0.6645559E+001  0.1599393E+01  0.7818608E-02  0.3354022E+00
         11   -1    0    0    0    0  0.00000000000E+00  0.00000000000E+00  0.39999999674E+01  0.40000000000E+01  0.51100000000E-03 0.  1.
    9000002   -1    0    0    0    0 -0.00000000000E+00 -0.00000000000E+00  0.00000000000E+00  0.93800000000E+00  0.93800000000E+00 0. -1.
         11    1    1    2    0    0  0.19807711071E-01  0.33742389429E-01  0.34505093357E+00  0.34726258385E+00  0.51100000000E-03 0.  1.
    9000002    1    1    2    0    0 -0.25370194279E+00 -0.25542896658E+00  0.87231257625E-01  0.10084948810E+01  0.93800000000E+00 0. -1.
         22    1    1    2    0    0  0.23389423172E+00  0.22168657715E+00  0.35677177762E+01  0.35822425351E+01  0.00000000000E+00 0.  1.
</event>
<event>
 5    1  0.6645559E+001  0.1599676E+01  0.7818608E-02  0.3353715E+00
         11   -1    0    0    0    0  0.00000000000E+00  0.00000000000E+00  0.39999999674E+01  0.40000000000E+01  0.51100000000E-03 0. -1.
    9000002   -1    0    0    0    0 -0.00000000000E+00 -0.00000000000E+00  0.00000000000E+00  0.93800000000E+00  0.93800000000E+00 0. -1.
         11    1    1    2    0    0 -0.67653906156E-01 -0.13577594124E+00  0.11925910297E+01  0.12022003920E+01  0.51100000000E-03 0. -1.
    9000002    1    1    2    0    0  0.21822322641E+00  0.43383245289E+00  0.16105881921E+00  0.10684642797E+01  0.93800000000E+00 0. -1.
         22    1    1    2    0    0 -0.15056932026E+00 -0.29805651165E+00  0.26463501184E+01  0.26673353283E+01  0.00000000000E+00 0. -1.
</event>
<event>
 5    1  0.6645559E+001  0.1599420E+01  0.7818608E-02  0.3353993E+00
         11   -1    0    0    0    0  0.00000000000E+00  0.00000000000E+00  0.39999999674E+01  0.40000000000E+01  0.51100000000E-03 0. -1.
    9000002   -1    0    0    0    0 -0.00000000000E+00 -0.00000000000E+00  0.00000000000E+00  0.93800000000E+00  0.93800000000E+00 0. -1.
         11    1    1    2    0    0  0.69755449351E-01  0.11910922674E+00  0.14694592233E+01  0.14759280134E+01  0.51100000000E-03 0. -1.
    9000002    1    1    2    0    0 -0.21264935176E+00 -0.35569792068E+00  0.11627779465E+00  0.10320393806E+01  0.93800000000E+00 0. -1.
         22    1    1    2    0    0  0.14289390241E+00  0.23658869394E+00  0.24142629494E+01  0.24300326060E+01  0.00000000000E+00 0. -1.
</event>
<event>
 5    1  0.6645559E+001  0.1599649E+01  0.7818608E-02  0.3353744E+00
         11   -1    0    0    0    0  0.00000000000E+00  0.00000000000E+00  0.39999999674E+01  0.40000000000E+01  0.51100000000E-03 0.  1.
    9000002   -1    0    0    0    0 -0.00000000000E+00 -0.00000000000E+00  0.00000000000E+00  0.93800000000E+00  0.93800000000E+00 0.  1.
         11    1    1    2    0    0  0.89292981625E-01 -0.82864580708E-01  0.11777754228E+01  0.11840586906E+01  0.51100000000E-03 0.  1.
    9000002    1    1    2    0    0 -0.31311183801E+00  0.27764067998E+00  0.11843587743E+00  0.10339218671E+01  0.93800000000E+00 0.  1.
         22    1    1    2    0    0  0.22381885639E+00 -0.19477609928E+00  0.27037886672E+01  0.27200194422E+01  0.00000000000E+00 0.  1.
</event>
<event>
 5    1  0.6645559E+001  0.1596606E+01  0.7818608E-02  0.3357056E+00
         11   -1    0    0    0    0  0.00000000000E+00  0.00000000000E+00  0.39999999674E+01  0.40000000000E+01  0.51100000000E-03 0.  1.
    9000002   -1    0    0    0    0 -0.00000000000E+00 -0.00000000000E+00  0.00000000000E+00  0.93800000000E+00  0.93800000000E+00 0. -1.
         11    1    1    2    0    0 -0.71969709740E-01 -0.35615374569E-01  0.42881359595E+00  0.43626764173E+00  0.51100000000E-03 0.  1.
    9000002    1    1    2    0    0  0.42733480992E+00  0.13572722404E-01  0.12636776678E+00  0.10385625022E+01  0.93800000000E+00 0. -1.
         22    1    1    2    0    0 -0.35536510018E+00  0.22042652164E-01  0.34448186046E+01  0.34631698560E+01  0.00000000000E+00 0.  1.
</event>
<event>
 5    1  0.6645559E+001  0.1599451E+01  0.7818608E-02  0.3353960E+00
         11   -1    0    0    0    0  0.00000000000E+00  0.00000000000E+00  0.39999999674E+01  0.40000000000E+01  0.51100000000E-03 0. -1.
    9000002   -1    0    0    0    0 -0.00000000000E+00 -0.00000000000E+00  0.00000000000E+00  0.93800000000E+00  0.93800000000E+00 0.  1.
         11    1    1    2    0    0 -0.16518034118E-01  0.57831137162E-02  0.99323709286E-01  0.10085509508E+00  0.51100000000E-03 0. -1.
    9000002    1    1    2    0    0  0.41655866647E+00 -0.24621305178E+00  0.16005986980E+00  0.10675229044E+01  0.93800000000E+00 0.  1.
         22    1    1    2    0    0 -0.40004063235E+00  0.24042993807E+00  0.37406163883E+01  0.37696220005E+01  0.00000000000E+00 0. -1.
</event>
<event>
 5    1  0.6645559E+001  0.1598924E+01  0.7818608E-02  0.3354532E+00
         11   -1    0    0    0    0  0.00000000000E+00  0.00000000000E+00  0.39999999674E+01  0.40000000000E+01  0.51100000000E-03 0.  1.
    9000002   -1    0    0    0    0 -0.00000000000E+00 -0.00000000000E+00  0.00000000000E+00  0.93800000000E+00  0.93800000000E+00 0. -1.
         11    1    1    2    0    0  0.72348806281E-02  0.17437181118E-01  0.12339722812E+00  0.12483403307E+00  0.51100000000E-03 0.  1.
    9000002    1    1    2    0    0 -0.31504984274E+00 -0.19588577501E+00  0.93116590320E-01  0.10129868408E+01  0.93800000000E+00 0. -1.
         22    1    1    2    0    0  0.30781496211E+00  0.17844859389E+00  0.37834861489E+01  0.38001791261E+01  0.00000000000E+00 0.  1.
</event>
<event>
 5    1  0.6645559E+001  0.1599677E+01  0.7818608E-02  0.3353714E+00
         11   -1    0    0    0    0  0.00000000000E+00  0.00000000000E+00  0.39999999674E+01  0.40000000000E+01  0.51100000000E-03 0. -1.
    9000002   -1    0    0    0    0 -0.00000000000E+00 -0.00000000000E+00  0.00000000000E+00  0.93800000000E+00  0.93800000000E+00 0.  1.
         11    1    1    2    0    0 -0.39061090398E-01  0.70228561754E-01  0.74909913104E+00  0.75339736455E+00  0.51100000000E-03 0. -1.
    9000002    1    1    2    0    0  0.19976351353E+00 -0.36350637450E+00  0.11627147234E+00  0.10321847707E+01  0.93800000000E+00 0.  1.
         22    1    1    2    0    0 -0.16070242313E+00  0.29327781275E+00  0.31346293640E+01  0.31524178647E+01  0.00000000000E+00 0. -1.
</event>
<event>
 5    1  0.6645559E+001  0.1469696E+01  0.7818608E-02  0.3508189E+00
         11   -1    0    0    0    0  0.00000000000E+00  0.00000000000E+00  0.39999999674E+01  0.40000000000E+01  0.51100000000E-03 0.  1.
    9000002   -1    0    0    0    0 -0.00000000000E+00 -0.00000000000E+00  0.00000000000E+00  0.93800000000E+00  0.93800000000E+00 0.  1.
         11    1    1    2    0    0  0.33931318604E+00 -0.87366302442E-01  0.51052636666E+00  0.61919604423E+00  0.51100000000E-03 0.  1.
    9000002    1    1    2    0    0  0.38923838150E-01  0.10138605717E+00  0.14779968554E+00  0.95576301708E+00  0.93800000000E+00 0.  1.
         22    1    1    2    0    0 -0.37823702419E+00 -0.14019754732E-01  0.33416739152E+01  0.33630409387E+01  0.00000000000E+00 0.  1.
</event>
<event>
 5    1  0.9510486E+001  0.1598458E+01  0.7818608E-02  0.3355039E+00
         11   -1    0    0    0    0  0.00000000000E+00  0.00000000000E+00  0.39999999674E+01  0.40000000000E+01  0.51100000000E-03 0.  1.
    9000002   -1    0    0    0    0 -0.00000000000E+00 -0.00000000000E+00  0.00000000000E+00  0.93800000000E+00  0.93800000000E+00 0. -1.
         11    1    1    2    0    0 -0.71447027466E-01 -0.22915907164E-01  0.14577110281E+01  0.14596408871E+01  0.51100000000E-03 0.  1.
    9000002    1    1    2    0    0  0.30181528145E+00  0.75292607313E-01  0.65578850620E-01  0.99040700042E+00  0.93800000000E+00 0. -1.
         22    1    1    2    0    0 -0.23036825398E+00 -0.52376700149E-01  0.24767100886E+01  0.24879521125E+01  0.00000000000E+00 0.  1.
</event>
<event>
 5    1  0.6645559E+001  0.1570155E+01  0.7818608E-02  0.3386408E+00
         11   -1    0    0    0    0  0.00000000000E+00  0.00000000000E+00  0.39999999674E+01  0.40000000000E+01  0.51100000000E-03 0. -1.
    9000002   -1    0    0    0    0 -0.00000000000E+00 -0.00000000000E+00  0.00000000000E+00  0.93800000000E+00  0.93800000000E+00 0. -1.
         11    1    1    2    0    0 -0.13580785709E+00  0.55504979698E-01  0.13307371747E+01  0.13388003085E+01  0.51100000000E-03 0. -1.
    9000002    1    1    2    0    0 -0.48453244383E-01  0.19938248994E+00  0.50381996819E-01  0.96150061872E+00  0.93800000000E+00 0. -1.
         22    1    1    2    0    0  0.18426110147E+00 -0.25488746964E+00  0.26188807958E+01  0.26376990728E+01  0.00000000000E+00 0. -1.
</event>
<event>
 5    1  0.6645559E+001  0.1554823E+01  0.7818608E-02  0.3403905E+00
         11   -1    0    0    0    0  0.00000000000E+00  0.00000000000E+00  0.39999999674E+01  0.40000000000E+01  0.51100000000E-03 0.  1.
    9000002   -1    0    0    0    0 -0.00000000000E+00 -0.00000000000E+00  0.00000000000E+00  0.93800000000E+00  0.93800000000E+00 0.  1.
         11    1    1    2    0    0 -0.76471937017E-01 -0.79946117754E-01  0.32086836496E+00  0.33940552095E+00  0.51100000000E-03 0.  1.
    9000002    1    1    2    0    0 -0.30665609831E+00 -0.21604936003E+00  0.13227887588E+00  0.10188508181E+01  0.93800000000E+00 0.  1.
         22    1    1    2    0    0  0.38312803533E+00  0.29599547779E+00  0.35468527265E+01  0.35797436609E+01  0.00000000000E+00 0.  1.
</event>
<event>
 5    1  0.6645559E+001  0.1599640E+01  0.7818608E-02  0.3353755E+00
         11   -1    0    0    0    0  0.00000000000E+00  0.00000000000E+00  0.39999999674E+01  0.40000000000E+01  0.51100000000E-03 0. -1.
    9000002   -1    0    0    0    0 -0.00000000000E+00 -0.00000000000E+00  0.00000000000E+00  0.93800000000E+00  0.93800000000E+00 0. -1.
         11    1    1    2    0    0 -0.84677150803E-02 -0.12843810719E-01  0.14319841522E+00  0.14402330684E+00  0.51100000000E-03 0. -1.
    9000002    1    1    2    0    0  0.26394128472E+00  0.28322596993E+00  0.10096569491E+00  0.10197646902E+01  0.93800000000E+00 0. -1.
         22    1    1    2    0    0 -0.25547356964E+00 -0.27038215921E+00  0.37558358572E+01  0.37742120030E+01  0.00000000000E+00 0. -1.
</event>
<event>
 5    1  0.6645559E+001  0.1599671E+01  0.7818608E-02  0.3353721E+00
         11   -1    0    0    0    0  0.00000000000E+00  0.00000000000E+00  0.39999999674E+01  0.40000000000E+01  0.51100000000E-03 0. -1.
    9000002   -1    0    0    0    0 -0.00000000000E+00 -0.00000000000E+00  0.00000000000E+00  0.93800000000E+00  0.93800000000E+00 0. -1.
         11    1    1    2    0    0  0.20664670520E-01 -0.64608156300E-01  0.36433244229E+00  0.37059362123E+00  0.51100000000E-03 0. -1.
    9000002    1    1    2    0    0 -0.22500379424E+00  0.64468115673E+00  0.33171051217E+00  0.12066964677E+01  0.93800000000E+00 0. -1.
         22    1    1    2    0    0  0.20433912372E+00 -0.58007300043E+00  0.33039570129E+01  0.33607099111E+01  0.00000000000E+00 0. -1.
</event>
<event>
 5    1  0.6645559E+001  0.1591671E+01  0.7818608E-02  0.3362454E+00
         11   -1    0    0    0    0  0.00000000000E+00  0.00000000000E+00  0.39999999674E+01  0.40000000000E+01  0.51100000000E-03 0.  1.
    9000002   -1    0    0    0    0 -0.00000000000E+00 -0.00000000000E+00  0.00000000000E+00  0.93800000000E+00  0.93800000000E+00 0.  1.
         11    1    1    2    0    0 -0.21874292125E-01 -0.74331233759E-01  0.88254513430E+00  0.88594006127E+00  0.51100000000E-03 0.  1.
    9000002    1    1    2    0    0  0.29968352902E+00 -0.14256923958E-01  0.66342280090E-01  0.98704547797E+00  0.93800000000E+00 0.  1.
         22    1    1    2    0    0 -0.27780923689E+00  0.88588157716E-01  0.30511125530E+01  0.30650144608E+01  0.00000000000E+00 0.  1.
</event>
<event>
 5    1  0.6645559E+001  0.1599361E+01  0.7818608E-02  0.3354058E+00
         11   -1    0    0    0    0  0.00000000000E+00  0.00000000000E+00  0.39999999674E+01  0.40000000000E+01  0.51100000000E-03 0. -1.
    9000002   -1    0    0    0    0 -0.00000000000E+00 -0.00000000000E+00  0.00000000000E+00  0.93800000000E+00  0.93800000000E+00 0.  1.
         11    1    1    2    0    0  0.10817839247E+00 -0.19523831023E-01  0.95866573804E+00  0.96494766852E+00  0.51100000000E-03 0. -1.
    9000002    1    1    2    0    0 -0.39746065576E+00  0.16992053386E-01  0.10698511713E+00  0.10244771925E+01  0.93800000000E+00 0.  1.
         22    1    1    2    0    0  0.28928226329E+00  0.25317776367E-02  0.29343491122E+01  0.29485751389E+01  0.00000000000E+00 0.  1.
</event>
<event>
 5    1  0.6645559E+001  0.1598456E+01  0.7818608E-02  0.3355041E+00
         11   -1    0    0    0    0  0.00000000000E+00  0.00000000000E+00  0.39999999674E+01  0.40000000000E+01  0.51100000000E-03 0.  1.
    9000002   -1    0    0    0    0 -0.00000000000E+00 -0.00000000000E+00  0.00000000000E+00  0.93800000000E+00  0.93800000000E+00 0.  1.
         11    1    1    2    0    0 -0.61972535341E-01 -0.20282200982E-01  0.52594520156E+00  0.52997224359E+00  0.51100000000E-03 0.  1.
    9000002    1    1    2    0    0  0.39960236734E+00 -0.54546430787E-01  0.11078140540E+00  0.10270218522E+01  0.93800000000E+00 0.  1.
         22    1    1    2    0    0 -0.33762983199E+00  0.74828631769E-01  0.33632733604E+01  0.33810059042E+01  0.00000000000E+00 0.  1.
</event>
<event>
 5    1  0.6645559E+001  0.1599517E+01  0.7818608E-02  0.3353887E+00
         11   -1    0    0    0    0  0.00000000000E+00  0.00000000000E+00  0.39999999674E+01  0.40000000000E+01  0.51100000000E-03 0. -1.
    9000002   -1    0    0    0    0 -0.00000000000E+00 -0.00000000000E+00  0.00000000000E+00  0.93800000000E+00  0.93800000000E+00 0.  1.
         11    1    1    2    0    0 -0.12441944483E+00 -0.44333709724E-01  0.71218484359E+00  0.72432947519E+00  0.51100000000E-03 0. -1.
    9000002    1    1    2    0    0  0.68778202908E+00  0.25146102833E+00  0.38692323241E+00  0.12513314333E+01  0.93800000000E+00 0.  1.
         22    1    1    2    0    0 -0.56336258425E+00 -0.20712731861E+00  0.29008918914E+01  0.29623390915E+01  0.00000000000E+00 0. -1.
</event>
<event>
 5    1  0.6645559E+001  0.1599585E+01  0.7818608E-02  0.3353814E+00
         11   -1    0    0    0    0  0.00000000000E+00  0.00000000000E+00  0.39999999674E+01  0.40000000000E+01  0.51100000000E-03 0.  1.
    9000002   -1    0    0    0    0 -0.00000000000E+00 -0.00000000000E+00  0.00000000000E+00  0.93800000000E+00  0.93800000000E+00 0. -1.
         11    1    1    2    0    0 -0.55553249063E-01 -0.78579443712E-01  0.87586044815E+00  0.88113147612E+00  0.51100000000E-03 0.  1.
    9000002    1    1    2    0    0  0.20450135185E+00  0.35710043057E+00  0.11447314498E+00  0.10306743527E+01  0.93800000000E+00 0. -1.
         22    1    1    2    0    0 -0.14894810278E+00 -0.27852098686E+00  0.30096663742E+01  0.30261941712E+01  0.00000000000E+00 0.  1.
</event>
<event>
 5    1  0.6645559E+001  0.1599676E+01  0.7818608E-02  0.3353715E+00
         11   -1    0    0    0    0  0.00000000000E+00  0.00000000000E+00  0.39999999674E+01  0.40000000000E+01  0.51100000000E-03 0. -1.
    9000002   -1    0    0    0    0 -0.00000000000E+00 -0.00000000000E+00  0.00000000000E+00  0.93800000000E+00  0.93800000000E+00 0.  1.
         11    1    1    2    0    0  0.85241322848E-01  0.30107004129E-01  0.50822005640E+00  0.51619802563E+00  0.51100000000E-03 0. -1.
    9000002    1    1    2    0    0 -0.62034209232E+00 -0.21524231721E+00  0.30473113058E+00  0.11848454028E+01  0.93800000000E+00 0.  1.
         22    1    1    2    0    0  0.53510076947E+00  0.18513531308E+00  0.31870487804E+01  0.32369565716E+01  0.00000000000E+00 0. -1.
</event>
<event>
 5    1  0.6645559E+001  0.1599630E+01  0.7818608E-02  0.3353765E+00
         11   -1    0    0    0    0  0.00000000000E+00  0.00000000000E+00  0.39999999674E+01  0.40000000000E+01  0.51100000000E-03 0. -1.
    9000002   -1    0    0    0    0 -0.00000000000E+00 -0.00000000000E+00  0.00000000000E+00  0.93800000000E+00  0.93800000000E+00 0.  1.
         11    1    1    2    0    0 -0.70148271567E-02 -0.16833874470E-01  0.20953232317E+00  0.21032508815E+00  0.51100000000E-03 0. -1.
    9000002    1    1    2    0    0  0.10327824306E+00  0.37656235995E+00  0.10275614324E+00  0.10212092985E+01  0.93800000000E+00 0.  1.
         22    1    1    2    0    0 -0.96263415899E-01 -0.35972848548E+00  0.36877115010E+01  0.37064656133E+01  0.00000000000E+00 0. -1.
</event>
<event>
 5    1  0.9368101E+001  0.1568511E+01  0.7818608E-02  0.3388266E+00
         11   -1    0    0    0    0  0.00000000000E+00  0.00000000000E+00  0.39999999674E+01  0.40000000000E+01  0.51100000000E-03 0.  1.
    9000002   -1    0    0    0    0 -0.00000000000E+00 -0.00000000000E+00  0.00000000000E+00  0.93800000000E+00  0.93800000000E+00 0.  1.
         11    1    1    2    0    0 -0.13375497136E+00 -0.72515410869E-01  0.13159816562E+01  0.13247478469E+01  0.51100000000E-03 0.  1.
    9000002    1    1    2    0    0 -0.14894420853E+00 -0.23719241127E-01  0.38390237243E-01  0.95082321699E+00  0.93800000000E+00 0.  1.
         22    1    1    2    0    0  0.28269917989E+00  0.96234651996E-01  0.26456280739E+01  0.26624289361E+01  0.00000000000E+00 0.  1.
</event>
<event>
 5    1  0.6645559E+001  0.1599312E+01  0.7818608E-02  0.3354111E+00
         11   -1    0    0    0    0  0.00000000000E+00  0.00000000000E+00  0.39999999674E+01  0.40000000000E+01  0.51100000000E-03 0. -1.
    9000002   -1    0    0    0    0 -0.00000000000E+00 -0.00000000000E+00  0.00000000000E+00  0.93800000000E+00  0.93800000000E+00 0.  1.
         11    1    1    2    0    0  0.22689062030E-01 -0.31725323828E-01  0.60453968246E+00  0.60579681289E+00  0.51100000000E-03 0. -1.
    9000002    1    1    2    0    0 -0.19703118608E+00  0.30085183870E+00  0.87108539633E-01  0.10083476656E+01  0.93800000000E+00 0.  1.
         22    1    1    2    0    0  0.17434212405E+00 -0.26912651487E+00  0.33083517453E+01  0.33238555215E+01  0.00000000000E+00 0. -1.
</event>
<event>
 5    1  0.6645559E+001  0.1593426E+01  0.7818608E-02  0.3360529E+00
         11   -1    0    0    0    0  0.00000000000E+00  0.00000000000E+00  0.39999999674E+01  0.40000000000E+01  0.51100000000E-03 0. -1.
    9000002   -1    0    0    0    0 -0.00000000000E+00 -0.00000000000E+00  0.00000000000E+00  0.93800000000E+00  0.93800000000E+00 0.  1.
         11    1    1    2    0    0 -0.34387205452E-03 -0.27081173954E+00  0.10625807510E+01  0.10965478695E+01  0.51100000000E-03 0. -1.
    9000002    1    1    2    0    0  0.31857291119E-01  0.63998827110E+00  0.29564148727E+00  0.11738176022E+01  0.93800000000E+00 0.  1.
         22    1    1    2    0    0 -0.31513419064E-01 -0.36917653157E+00  0.26417777291E+01  0.26676345284E+01  0.00000000000E+00 0. -1.
</event>
<event>
 5    1  0.6645559E+001  0.1599674E+01  0.7818608E-02  0.3353717E+00
         11   -1    0    0    0    0  0.00000000000E+00  0.00000000000E+00  0.39999999674E+01  0.40000000000E+01  0.51100000000E-03 0. -1.
    9000002   -1    0    0    0    0 -0.00000000000E+00 -0.00000000000E+00  0.00000000000E+00  0.93800000000E+00  0.93800000000E+00 0. -1.
         11    1    1    2    0    0  0.20840418334E-01  0.42840503594E-01  0.37232516178E+00  0.37536105152E+00  0.51100000000E-03 0. -1.
    9000002    1    1    2    0    0 -0.21547707521E+00 -0.43051555724E+00  0.15818230688E+00  0.10661330392E+01  0.93800000000E+00 0. -1.
         22    1    1    2    0    0  0.19463665687E+00  0.38767505364E+00  0.34694924987E+01  0.34965059093E+01  0.00000000000E+00 0. -1.
</event>
<event>
 5    1  0.6645559E+001  0.1599330E+01  0.7818608E-02  0.3354091E+00
         11   -1    0    0    0    0  0.00000000000E+00  0.00000000000E+00  0.39999999674E+01  0.40000000000E+01  0.51100000000E-03 0.  1.
    9000002   -1    0    0    0    0 -0.00000000000E+00 -0.00000000000E+00  0.00000000000E+00  0.93800000000E+00  0.93800000000E+00 0.  1.
         11    1    1    2    0    0  0.14397580882E-01 -0.12370506205E+00  0.11290246561E+01  0.11358728661E+01  0.51100000000E-03 0.  1.
    9000002    1    1    2    0    0 -0.87087074092E-02  0.47819979350E+00  0.15634533001E+00  0.10644429277E+01  0.93800000000E+00 0.  1.
         22    1    1    2    0    0 -0.56888734728E-02 -0.35449473145E+00  0.27146299812E+01  0.27376842062E+01  0.00000000000E+00 0.  1.
</event>
<event>
 5    1  0.6645559E+001  0.1599675E+01  0.7818608E-02  0.3353716E+00
         11   -1    0    0    0    0  0.00000000000E+00  0.00000000000E+00  0.39999999674E+01  0.40000000000E+01  0.51100000000E-03 0.  1.
    9000002   -1    0    0    0    0 -0.00000000000E+00 -0.00000000000E+00  0.00000000000E+00  0.93800000000E+00  0.93800000000E+00 0.  1.
         11    1    1    2    0    0 -0.52997314074E-01  0.18606430921E+00  0.12290804133E+01  0.12442136336E+01  0.51100000000E-03 0.  1.
    9000002    1    1    2    0    0  0.15731828061E+00 -0.56875968789E+00  0.24245925461E+00  0.11344016547E+01  0.93800000000E+00 0.  1.
         22    1    1    2    0    0 -0.10432096654E+00  0.38269537868E+00  0.25284602994E+01  0.25593847118E+01  0.00000000000E+00 0.  1.
</event>
<event>
 5    1  0.6645559E+001  0.1557040E+01  0.7818608E-02  0.3401353E+00
         11   -1    0    0    0    0  0.00000000000E+00  0.00000000000E+00  0.39999999674E+01  0.40000000000E+01  0.51100000000E-03 0. -1.
    9000002   -1    0    0    0    0 -0.00000000000E+00 -0.00000000000E+00  0.00000000000E+00  0.93800000000E+00  0.93800000000E+00 0. -1.
         11    1    1    2    0    0 -0.23950745390E+00  0.29842963289E-01  0.14487212342E+01  0.14686891770E+01  0.51100000000E-03 0. -1.
    9000002    1    1    2    0    0  0.74738665814E-02 -0.18183148077E+00  0.54363727523E-01  0.95703602908E+00  0.93800000000E+00 0. -1.
         22    1    1    2    0    0  0.23203358732E+00  0.15198851748E+00  0.24969150056E+01  0.25122747940E+01  0.00000000000E+00 0. -1.
</event>
<event>
 5    1  0.6645559E+001  0.1596098E+01  0.7818608E-02  0.3357609E+00
         11   -1    0    0    0    0  0.00000000000E+00  0.00000000000E+00  0.39999999674E+01  0.40000000000E+01  0.51100000000E-03 0. -1.
    9000002   -1    0    0    0    0 -0.00000000000E+00 -0.00000000000E+00  0.00000000000E+00  0.93800000000E+00  0.93800000000E+00 0. -1.
         11    1    1    2    0    0  0.28553535303E+00 -0.13269012377E+00  0.11351396100E+01  0.11779980059E+01  0.51100000000E-03 0. -1.
    9000002    1    1    2    0    0 -0.67567478907E+00  0.41120130271E+00  0.46403571061E+00  0.13117911696E+01  0.93800000000E+00 0. -1.
         22    1    1    2    0    0  0.39013943604E+00 -0.27851117895E+00  0.24008246468E+01  0.24482108244E+01  0.00000000000E+00 0. -1.
</event>
<event>
 5    1  0.6645559E+001  0.1599294E+01  0.7818608E-02  0.3354130E+00
         11   -1    0    0    0    0  0.00000000000E+00  0.00000000000E+00  0.39999999674E+01  0.40000000000E+01  0.51100000000E-03 0.  1.
    9000002   -1    0    0    0    0 -0.00000000000E+00 -0.00000000000E+00  0.00000000000E+00  0.93800000000E+00  0.93800000000E+00 0.  1.
         11    1    1    2    0    0  0.12015549288E+00 -0.71270232362E-01  0.11118038020E+01  0.11205466272E+01  0.51100000000E-03 0.  1.
    9000002    1    1    2    0    0 -0.34621895658E+00  0.23403333546E+00  0.11839857480E+00  0.10336834092E+01  0.93800000000E+00 0.  1.
         22    1    1    2    0    0  0.22606346370E+00 -0.16276310310E+00  0.27697975906E+01  0.27837699636E+01  0.00000000000E+00 0.  1.
</event>
<event>
 5    1  0.6645559E+001  0.1582149E+01  0.7818608E-02  0.3372969E+00
         11   -1    0    0    0    0  0.00000000000E+00  0.00000000000E+00  0.39999999674E+01  0.40000000000E+01  0.51100000000E-03 0. -1.
    9000002   -1    0    0    0    0 -0.00000000000E+00 -0.00000000000E+00  0.00000000000E+00  0.93800000000E+00  0.93800000000E+00 0. -1.
         11    1    1    2    0    0 -0.22891690419E-01  0.50197980894E-01  0.55662613193E-01  0.78373811982E-01  0.51100000000E-03 0. -1.
    9000002    1    1    2    0    0  0.52817685906E+00 -0.51000836069E+00  0.40985671660E+00  0.12597245138E+01  0.93800000000E+00 0. -1.
         22    1    1    2    0    0 -0.50528516864E+00  0.45981037980E+00  0.35344806376E+01  0.35999016743E+01  0.00000000000E+00 0. -1.
</event>
<event>
 5    1  0.6645559E+001  0.1476822E+01  0.7818608E-02  0.3498962E+00
         11   -1    0    0    0    0  0.00000000000E+00  0.00000000000E+00  0.39999999674E+01  0.40000000000E+01  0.51100000000E-03 0.  1.
    9000002   -1    0    0    0    0 -0.00000000000E+00 -0.00000000000E+00  0.00000000000E+00  0.93800000000E+00  0.93800000000E+00 0. -1.
         11    1    1    2    0    0 -0.68063001334E-01  0.42803161528E+00  0.12815125970E+01  0.13528186993E+01  0.51100000000E-03 0.  1.
    9000002    1    1    2    0    0 -0.37774071133E-01 -0.11486863746E+00  0.10579579706E+00  0.95166088235E+00  0.93800000000E+00 0. -1.
         22    1    1    2    0    0  0.10583707247E+00 -0.31316297782E+00  0.26126915733E+01  0.26335204184E+01  0.00000000000E+00 0.  1.
</event>
<event>
 5    1  0.6645559E+001  0.1599677E+01  0.7818608E-02  0.3353714E+00
         11   -1    0    0    0    0  0.00000000000E+00  0.00000000000E+00  0.39999999674E+01  0.40000000000E+01  0.51100000000E-03 0.  1.
    9000002   -1    0    0    0    0 -0.00000000000E+00 -0.00000000000E+00  0.00000000000E+00  0.93800000000E+00  0.93800000000E+00 0.  1.
         11    1    1    2    0    0 -0.14885593340E+00 -0.55712624491E-01  0.13268098830E+01  0.13362958924E+01  0.51100000000E-03 0. -1.
    9000002    1    1    2    0    0  0.43158191874E+00  0.16210299985E+00  0.14459242370E+00  0.10551262029E+01  0.93800000000E+00 0.  1.
         22    1    1    2    0    0 -0.28272598534E+00 -0.10639037535E+00  0.25285976607E+01  0.25465779046E+01  0.00000000000E+00 0.  1.
</event>
<event>
 5    1  0.6645559E+001  0.1599585E+01  0.7818608E-02  0.3353814E+00
         11   -1    0    0    0    0  0.00000000000E+00  0.00000000000E+00  0.39999999674E+01  0.40000000000E+01  0.51100000000E-03 0.  1.
    9000002   -1    0    0    0    0 -0.00000000000E+00 -0.00000000000E+00  0.00000000000E+00  0.93800000000E+00  0.93800000000E+00 0. -1.
         11    1    1    2    0    0 -0.25127999068E-01 -0.13122519072E+00  0.89669287500E+00  0.90659243335E+00  0.51100000000E-03 0.  1.
    9000002    1    1    2    0    0  0.13466577248E+00  0.52502913048E+00  0.20270369666E+00  0.11021448393E+01  0.93800000000E+00 0. -1.
         22    1    1    2    0    0 -0.10953777341E+00 -0.39380393976E+00  0.29006033957E+01  0.29292627274E+01  0.00000000000E+00 0.  1.
</event>
<event>
 5    1  0.6645559E+001  0.1599675E+01  0.7818608E-02  0.3353716E+00
         11   -1    0    0    0    0  0.00000000000E+00  0.00000000000E+00  0.39999999674E+01  0.40000000000E+01  0.51100000000E-03 0.  1.
    9000002   -1    0    0    0    0 -0.00000000000E+00 -0.00000000000E+00  0.00000000000E+00  0.93800000000E+00  0.93800000000E+00 0.  1.
         11    1    1    2    0    0  0.82359256360E-01  0.97506335066E-01  0.90457441535E+00  0.91353471008E+00  0.51100000000E-03 0.  1.
    9000002    1    1    2    0    0 -0.34051170127E+00 -0.41058459207E+00  0.19591972706E+00  0.10967025419E+01  0.93800000000E+00 0.  1.
         22    1    1    2    0    0  0.25815244491E+00  0.31307825701E+00  0.28995058249E+01  0.29277627480E+01  0.00000000000E+00 0.  1.
</event>
<event>
 5    1  0.6645559E+001  0.1599677E+01  0.7818608E-02  0.3353714E+00
         11   -1    0    0    0    0  0.00000000000E+00  0.00000000000E+00  0.39999999674E+01  0.40000000000E+01  0.51100000000E-03 0.  1.
    9000002   -1    0    0    0    0 -0.00000000000E+00 -0.00000000000E+00  0.00000000000E+00  0.93800000000E+00  0.93800000000E+00 0.  1.
         11    1    1    2    0    0  0.11441650584E+00 -0.17774369403E+00  0.14163466092E+01  0.14320341951E+01  0.51100000000E-03 0.  1.
    9000002    1    1    2    0    0 -0.30593029403E+00  0.47419386827E+00  0.22056499256E+00  0.11166674014E+01  0.93800000000E+00 0.  1.
         22    1    1    2    0    0  0.19151378819E+00 -0.29645017424E+00  0.23630883656E+01  0.23892984034E+01  0.00000000000E+00 0.  1.
</event>
<event>
 5    1  0.6645559E+001  0.1514592E+01  0.7818608E-02  0.3451620E+00
         11   -1    0    0    0    0  0.00000000000E+00  0.00000000000E+00  0.39999999674E+01  0.40000000000E+01  0.51100000000E-03 0.  1.
    9000002   -1    0    0    0    0 -0.00000000000E+00 -0.00000000000E+00  0.00000000000E+00  0.93800000000E+00  0.93800000000E+00 0.  1.
         11    1    1    2    0    0  0.22557281772E+00 -0.16348227321E+00  0.11352281373E+01  0.11689109182E+01  0.51100000000E-03 0.  1.
    9000002    1    1    2    0    0  0.13015825189E+00 -0.55798296250E-01  0.78740626319E-01  0.95189217175E+00  0.93800000000E+00 0.  1.
         22    1    1    2    0    0 -0.35573106962E+00  0.21928056946E+00  0.27860312037E+01  0.28171969101E+01  0.00000000000E+00 0.  1.
</event>
<event>
 5    1  0.6645559E+001  0.1599554E+01  0.7818608E-02  0.3353848E+00
         11   -1    0    0    0    0  0.00000000000E+00  0.00000000000E+00  0.39999999674E+01  0.40000000000E+01  0.51100000000E-03 0. -1.
    9000002   -1    0    0    0    0 -0.00000000000E+00 -0.00000000000E+00  0.00000000000E+00  0.93800000000E+00  0.93800000000E+00 0. -1.
         11    1    1    2    0    0  0.14741955918E+00 -0.15900214179E-01  0.11437481584E+01  0.11533193201E+01  0.51100000000E-03 0. -1.
    9000002    1    1    2    0    0 -0.45716916461E+00  0.65216176415E-01  0.14520416111E+00  0.10555496403E+01  0.93800000000E+00 0. -1.
         22    1    1    2    0    0  0.30974960543E+00 -0.49315962236E-01  0.27110476479E+01  0.27291310396E+01  0.00000000000E+00 0.  1.
</event>
<event>
 5    1  0.6645559E+001  0.1592288E+01  0.7818608E-02  0.3361776E+00
         11   -1    0    0    0    0  0.00000000000E+00  0.00000000000E+00  0.39999999674E+01  0.40000000000E+01  0.51100000000E-03 0.  1.
    9000002   -1    0    0    0    0 -0.00000000000E+00 -0.00000000000E+00  0.00000000000E+00  0.93800000000E+00  0.93800000000E+00 0.  1.
         11    1    1    2    0    0 -0.87237262542E-01 -0.86633121229E-01  0.59143711402E+00  0.60408092060E+00  0.51100000000E-03 0.  1.
    9000002    1    1    2    0    0  0.97487629906E-01  0.69908317528E+00  0.36502292414E+00  0.12293522112E+01  0.93800000000E+00 0.  1.
         22    1    1    2    0    0 -0.10250367365E-01 -0.61245005405E+00  0.30435399292E+01  0.31045668682E+01  0.00000000000E+00 0.  1.
</event>
<event>
 5    1  0.6645559E+001  0.1550955E+01  0.7818608E-02  0.3408378E+00
         11   -1    0    0    0    0  0.00000000000E+00  0.00000000000E+00  0.39999999674E+01  0.40000000000E+01  0.51100000000E-03 0.  1.
    9000002   -1    0    0    0    0 -0.00000000000E+00 -0.00000000000E+00  0.00000000000E+00  0.93800000000E+00  0.93800000000E+00 0.  1.
         11    1    1    2    0    0  0.16244514934E-01  0.29276567290E+00  0.10808772182E+01  0.11199426081E+01  0.51100000000E-03 0.  1.
    9000002    1    1    2    0    0 -0.52446735298E+00 -0.31863494224E+00  0.31450802142E+00  0.11641965153E+01  0.93800000000E+00 0.  1.
         22    1    1    2    0    0  0.50822283805E+00  0.25869269340E-01  0.26046147277E+01  0.26538608766E+01  0.00000000000E+00 0.  1.
</event>
<event>
 5    1  0.6645559E+001  0.1597797E+01  0.7818608E-02  0.3355757E+00
         11   -1    0    0    0    0  0.00000000000E+00  0.00000000000E+00  0.39999999674E+01  0.40000000000E+01  0.51100000000E-03 0. -1.
    9000002   -1    0    0    0    0 -0.00000000000E+00 -0.00000000000E+00  0.00000000000E+00  0.93800000000E+00  0.93800000000E+00 0. -1.
         11    1    1    2    0    0  0.41045219814E-01 -0.44915651883E-01  0.51552365523E+00  0.51910213453E+00  0.51100000000E-03 0. -1.
    9000002    1    1    2    0    0 -0.17268603920E+00  0.55761970069E+00  0.23877717085E+00  0.11303179801E+01  0.93800000000E+00 0. -1.
         22    1    1    2    0    0  0.13164081938E+00 -0.51270404880E+00  0.32456991413E+01  0.32885798854E+01  0.00000000000E+00 0. -1.
</event>
<event>
 5    1  0.6645559E+001  0.1593843E+01  0.7818608E-02  0.3360073E+00
         11   -1    0    0    0    0  0.00000000000E+00  0.00000000000E+00  0.39999999674E+01  0.40000000000E+01  0.51100000000E-03 0. -1.
    9000002   -1    0    0    0    0 -0.00000000000E+00 -0.00000000000E+00  0.00000000000E+00  0.93800000000E+00  0.93800000000E+00 0.  1.
         11    1    1    2    0    0 -0.11514259336E-01 -0.27538310581E-01  0.34960077396E+00  0.35087305253E+00  0.51100000000E-03 0. -1.
    9000002    1    1    2    0    0  0.19156827705E+00 -0.27528078208E+00  0.79969996776E-01  0.99935835121E+00  0.93800000000E+00 0.  1.
         22    1    1    2    0    0 -0.18005401771E+00  0.30281909266E+00  0.35704291966E+01  0.35877685963E+01  0.00000000000E+00 0. -1.
</event>
<event>
 5    1  0.6645559E+001  0.1593166E+01  0.7818608E-02  0.3360814E+00
         11   -1    0    0    0    0  0.00000000000E+00  0.00000000000E+00  0.39999999674E+01  0.40000000000E+01  0.51100000000E-03 0. -1.
    9000002   -1    0    0    0    0 -0.00000000000E+00 -0.00000000000E+00  0.00000000000E+00  0.93800000000E+00  0.93800000000E+00 0.  1.
         11    1    1    2    0    0 -0.11301222085E-01 -0.19310851819E-01  0.44503039046E+00  0.44559279188E+00  0.51100000000E-03 0. -1.
    9000002    1    1    2    0    0 -0.15377900780E+00 -0.30977053347E+00  0.85407743672E-01  0.10033664581E+01  0.93800000000E+00 0.  1.
         22    1    1    2    0    0  0.16508022989E+00  0.32908138528E+00  0.34695618332E+01  0.34890407500E+01  0.00000000000E+00 0. -1.
</event>
<event>
 5    1  0.6645559E+001  0.1598936E+01  0.7818608E-02  0.3354519E+00
         11   -1    0    0    0    0  0.00000000000E+00  0.00000000000E+00  0.39999999674E+01  0.40000000000E+01  0.51100000000E-03 0. -1.
    9000002   -1    0    0    0    0 -0.00000000000E+00 -0.00000000000E+00  0.00000000000E+00  0.93800000000E+00  0.93800000000E+00 0.  1.
         11    1    1    2    0    0 -0.10135544005E-02 -0.66919345183E-01  0.78014886693E+00  0.78301452205E+00  0.51100000000E-03 0. -1.
    9000002    1    1    2    0    0 -0.97989606432E-01  0.41323643721E+00  0.12268859402E+00  0.10369487968E+01  0.93800000000E+00 0.  1.
         22    1    1    2    0    0  0.99003160832E-01 -0.34631709203E+00  0.30971625064E+01  0.31180366812E+01  0.00000000000E+00 0. -1.
</event>
<event>
 5    1  0.7509776E+001  0.1599490E+01  0.7818608E-02  0.3353917E+00
         11   -1    0    0    0    0  0.00000000000E+00  0.00000000000E+00  0.39999999674E+01  0.40000000000E+01  0.51100000000E-03 0. -1.
    9000002   -1    0    0    0    0 -0.00000000000E+00 -0.00000000000E+00  0.00000000000E+00  0.93800000000E+00  0.93800000000E+00 0. -1.
         11    1    1    2    0    0 -0.76588063463E-01 -0.95836718946E-01  0.13902523480E+01  0.13956547784E+01  0.51100000000E-03 0. -1.
    9000002    1    1    2    0    0  0.25884388383E+00  0.27605981011E+00  0.96491872193E-01  0.10160530775E+01  0.93800000000E+00 0. -1.
         22    1    1    2    0    0 -0.18225582037E+00 -0.18022309117E+00  0.25132557471E+01  0.25262921440E+01  0.00000000000E+00 0. -1.
</event>
<event>
 5    1  0.6645559E+001  0.1599675E+01  0.7818608E-02  0.3353716E+00
         11   -1    0    0    0    0  0.00000000000E+00  0.00000000000E+00  0.39999999674E+01  0.40000000000E+01  0.51100000000E-03 0.  1.
    9000002   -1    0    0    0    0 -0.00000000000E+00 -0.00000000000E+00  0.00000000000E+00  0.93800000000E+00  0.93800000000E+00 0.  1.
         11    1    1    2    0    0  0.94209961520E-01  0.49825982983E-01  0.82273410075E+00  0.82960822506E+00  0.51100000000E-03 0.  1.
    9000002    1    1    2    0    0 -0.43496932816E+00 -0.23670914179E+00  0.16774075902E+00  0.10738763879E+01  0.93800000000E+00 0.  1.
         22    1    1    2    0    0  0.34075936664E+00  0.18688315880E+00  0.30095251076E+01  0.30345153870E+01  0.00000000000E+00 0. -1.
</event>
<event>
 5    1  0.6645559E+001  0.1599673E+01  0.7818608E-02  0.3353719E+00
         11   -1    0    0    0    0  0.00000000000E+00  0.00000000000E+00  0.39999999674E+01  0.40000000000E+01  0.51100000000E-03 0. -1.
    9000002   -1    0    0    0    0 -0.00000000000E+00 -0.00000000000E+00  0.00000000000E+00  0.93800000000E+00  0.93800000000E+00 0. -1.
         11    1    1    2    0    0 -0.64268928776E-01  0.55935228077E-01  0.88166883066E+00  0.88577617547E+00  0.51100000000E-03 0. -1.
    9000002    1    1    2    0    0  0.29344709144E+00 -0.24903540196E+00  0.99730581516E-01  0.10187835962E+01  0.93800000000E+00 0. -1.
         22    1    1    2    0    0 -0.22917816266E+00  0.19310017388E+00  0.30186005552E+01  0.30334402284E+01  0.00000000000E+00 0. -1.
</event>
<event>
 5    1  0.6645559E+001  0.1599652E+01  0.7818608E-02  0.3353741E+00
         11   -1    0    0    0    0  0.00000000000E+00  0.00000000000E+00  0.39999999674E+01  0.40000000000E+01  0.51100000000E-03 0.  1.
    9000002   -1    0    0    0    0 -0.00000000000E+00 -0.00000000000E+00  0.00000000000E+00  0.93800000000E+00  0.93800000000E+00 0. -1.
         11    1    1    2    0    0  0.43363269698E-01  0.12218592286E+00  0.92237287915E+00  0.93144069174E+00  0.51100000000E-03 0.  1.
    9000002    1    1    2    0    0 -0.18456004614E+00 -0.52222738728E+00  0.21207657041E+00  0.11097767011E+01  0.93800000000E+00 0. -1.
         22    1    1    2    0    0  0.14119677644E+00  0.40004146442E+00  0.28655505178E+01  0.28967826071E+01  0.00000000000E+00 0.  1.
</event>
<event>
 5    1  0.6645559E+001  0.1599527E+01  0.7818608E-02  0.3353877E+00
         11   -1    0    0    0    0  0.00000000000E+00  0.00000000000E+00  0.39999999674E+01  0.40000000000E+01  0.51100000000E-03 0.  1.
    9000002   -1    0    0    0    0 -0.00000000000E+00 -0.00000000000E+00  0.00000000000E+00  0.93800000000E+00  0.93800000000E+00 0.  1.
         11    1    1    2    0    0 -0.11898486034E+00 -0.77368374935E-01  0.81458253675E+00  0.82685442052E+00  0.51100000000E-03 0.  1.
    9000002    1    1    2    0    0  0.52266656123E+00  0.30459992759E+00  0.25575288260E+00  0.11450829608E+01  0.93800000000E+00 0.  1.
         22    1    1    2    0    0 -0.40368170090E+00 -0.22723155266E+00  0.29296645480E+01  0.29660626187E+01  0.00000000000E+00 0.  1.
</event>
<event>
 5    1  0.6645559E+001  0.1599655E+01  0.7818608E-02  0.3353737E+00
         11   -1    0    0    0    0  0.00000000000E+00  0.00000000000E+00  0.39999999674E+01  0.40000000000E+01  0.51100000000E-03 0. -1.
    9000002   -1    0    0    0    0 -0.00000000000E+00 -0.00000000000E+00  0.00000000000E+00  0.93800000000E+00  0.93800000000E+00 0.  1.
         11    1    1    2    0    0 -0.83053158511E-01 -0.17408461648E+00  0.12536082585E+01  0.12683600465E+01  0.51100000000E-03 0. -1.
    9000002    1    1    2    0    0  0.23547587697E+00  0.51806162046E+00  0.22452498198E+00  0.11198625803E+01  0.93800000000E+00 0.  1.
         22    1    1    2    0    0 -0.15242271846E+00 -0.34397700398E+00  0.25218667269E+01  0.25497773732E+01  0.00000000000E+00 0. -1.
</event>
<event>
 5    1  0.6645559E+001  0.1599198E+01  0.7818608E-02  0.3354234E+00
         11   -1    0    0    0    0  0.00000000000E+00  0.00000000000E+00  0.39999999674E+01  0.40000000000E+01  0.51100000000E-03 0. -1.
    9000002   -1    0    0    0    0 -0.00000000000E+00 -0.00000000000E+00  0.00000000000E+00  0.93800000000E+00  0.93800000000E+00 0. -1.
         11    1    1    2    0    0  0.79029605863E-01  0.34907536850E-02  0.58932664433E+00  0.59461249466E+00  0.51100000000E-03 0. -1.
    9000002    1    1    2    0    0 -0.39778891921E+00 -0.54738594232E-02  0.10712190827E+00  0.10244926015E+01  0.93800000000E+00 0. -1.
         22    1    1    2    0    0  0.31875931334E+00  0.19831057382E-02  0.33035514148E+01  0.33188949038E+01  0.00000000000E+00 0. -1.
</event>
<event>
 5    1  0.6645559E+001  0.1599620E+01  0.7818608E-02  0.3353776E+00
         11   -1    0    0    0    0  0.00000000000E+00  0.00000000000E+00  0.39999999674E+01  0.40000000000E+01  0.51100000000E-03 0. -1.
    9000002   -1    0    0    0    0 -0.00000000000E+00 -0.00000000000E+00  0.00000000000E+00  0.93800000000E+00  0.93800000000E+00 0.  1.
         11    1    1    2    0    0 -0.55743221302E-01  0.70671342593E-01  0.81318634738E+00  0.81815282317E+00  0.51100000000E-03 0. -1.
    9000002    1    1    2    0    0  0.29860746796E+00 -0.34413300769E+00  0.14116162794E+00  0.10523139038E+01  0.93800000000E+00 0.  1.
         22    1    1    2    0    0 -0.24286424666E+00  0.27346166510E+00  0.30456519920E+01  0.30675332730E+01  0.00000000000E+00 0. -1.
</event>
<event>
 5    1  0.6645559E+001  0.1599588E+01  0.7818608E-02  0.3353810E+00
         11   -1    0    0    0    0  0.00000000000E+00  0.00000000000E+00  0.39999999674E+01  0.40000000000E+01  0.51100000000E-03 0.  1.
    9000002   -1    0    0    0    0 -0.00000000000E+00 -0.00000000000E+00  0.00000000000E+00  0.93800000000E+00  0.93800000000E+00 0. -1.
         11    1    1    2    0    0  0.13635183343E+00  0.10711187447E+00  0.14835996201E+01  0.14936977171E+01  0.51100000000E-03 0.  1.
    9000002    1    1    2    0    0 -0.33986740735E+00 -0.25615422724E+00  0.12266438751E+00  0.10373116189E+01  0.93800000000E+00 0. -1.
         22    1    1    2    0    0  0.20351557392E+00  0.14904235277E+00  0.23937359597E+01  0.24069906640E+01  0.00000000000E+00 0.  1.
</event>
<event>
 5    1  0.6645559E+001  0.1599527E+01  0.7818608E-02  0.3353876E+00
         11   -1    0    0    0    0  0.00000000000E+00  0.00000000000E+00  0.39999999674E+01  0.40000000000E+01  0.51100000000E-03 0. -1.
    9000002   -1    0    0    0    0 -0.00000000000E+00 -0.00000000000E+00  0.00000000000E+00  0.93800000000E+00  0.93800000000E+00 0. -1.
         11    1    1    2    0    0 -0.18497724824E+00  0.85824323081E-02  0.14269058798E+01  0.14388713951E+01  0.51100000000E-03 0. -1.
    9000002    1    1    2    0    0  0.46215981500E+00 -0.32757655361E-01  0.14621925267E+00  0.10563563927E+01  0.93800000000E+00 0. -1.
         22    1    1    2    0    0 -0.27718256676E+00  0.24175223053E-01  0.24268748348E+01  0.24427722122E+01  0.00000000000E+00 0. -1.
</event>
<event>
 5    1  0.6682322E+001  0.1599492E+01  0.7818608E-02  0.3353915E+00
         11   -1    0    0    0    0  0.00000000000E+00  0.00000000000E+00  0.39999999674E+01  0.40000000000E+01  0.51100000000E-03 0. -1.
    9000002   -1    0    0    0    0 -0.00000000000E+00 -0.00000000000E+00  0.00000000000E+00  0.93800000000E+00  0.93800000000E+00 0. -1.
         11    1    1    2    0    0  0.39634688200E-01 -0.12444457704E+00  0.13975448257E+01  0.14036342694E+01  0.51100000000E-03 0. -1.
    9000002    1    1    2    0    0 -0.73690714577E-01  0.37116237137E+00  0.96478588309E-01  0.10160432793E+01  0.93800000000E+00 0. -1.
         22    1    1    2    0    0  0.34056026377E-01 -0.24671779433E+00  0.25059765534E+01  0.25183224513E+01  0.00000000000E+00 0. -1.
</event>
<event>
 5    1  0.6645559E+001  0.1599664E+01  0.7818608E-02  0.3353728E+00
         11   -1    0    0    0    0  0.00000000000E+00  0.00000000000E+00  0.39999999674E+01  0.40000000000E+01  0.51100000000E-03 0. -1.
    9000002   -1    0    0    0    0 -0.00000000000E+00 -0.00000000000E+00  0.00000000000E+00  0.93800000000E+00  0.93800000000E+00 0.  1.
         11    1    1    2    0    0  0.35899814238E-01 -0.65564571472E-01  0.65925643803E+00  0.66348083763E+00  0.51100000000E-03 0. -1.
    9000002    1    1    2    0    0 -0.20350477762E+00  0.40207199475E+00  0.13795050342E+00  0.10497382649E+01  0.93800000000E+00 0.  1.
         22    1    1    2    0    0  0.16760496338E+00 -0.33650742328E+00  0.32027930259E+01  0.32247808974E+01  0.00000000000E+00 0. -1.
</event>
<event>
 5    1  0.6645559E+001  0.1582370E+01  0.7818608E-02  0.3372723E+00
         11   -1    0    0    0    0  0.00000000000E+00  0.00000000000E+00  0.39999999674E+01  0.40000000000E+01  0.51100000000E-03 0. -1.
    9000002   -1    0    0    0    0 -0.00000000000E+00 -0.00000000000E+00  0.00000000000E+00  0.93800000000E+00  0.93800000000E+00 0. -1.
         11    1    1    2    0    0  0.49423295329E+00 -0.87057167910E-01  0.13644856696E+01  0.14538454410E+01  0.51100000000E-03 0. -1.
    9000002    1    1    2    0    0 -0.87813507014E+00  0.26791370469E-01  0.61162402970E+00  0.14232943942E+01  0.93800000000E+00 0. -1.
         22    1    1    2    0    0  0.38390211685E+00  0.60265797441E-01  0.20238902681E+01  0.20608601648E+01  0.00000000000E+00 0. -1.
</event>
<event>
 5    1  0.6645559E+001  0.1599235E+01  0.7818608E-02  0.3354194E+00
         11   -1    0    0    0    0  0.00000000000E+00  0.00000000000E+00  0.39999999674E+01  0.40000000000E+01  0.51100000000E-03 0.  1.
    9000002   -1    0    0    0    0 -0.00000000000E+00 -0.00000000000E+00  0.00000000000E+00  0.93800000000E+00  0.93800000000E+00 0.  1.
         11    1    1    2    0    0  0.11047863469E+00 -0.13940934209E+00  0.91578179013E+00  0.93289712275E+00  0.51100000000E-03 0.  1.
    9000002    1    1    2    0    0 -0.41239115954E+00  0.63082086277E+00  0.41275240907E+00  0.12720888257E+01  0.93800000000E+00 0.  1.
         22    1    1    2    0    0  0.30191252485E+00 -0.49141152068E+00  0.26714657682E+01  0.27330140515E+01  0.00000000000E+00 0.  1.
</event>
<event>
 5    1  0.6645559E+001  0.1599674E+01  0.7818608E-02  0.3353718E+00
         11   -1    0    0    0    0  0.00000000000E+00  0.00000000000E+00  0.39999999674E+01  0.40000000000E+01  0.51100000000E-03 0. -1.
    9000002   -1    0    0    0    0 -0.00000000000E+00 -0.00000000000E+00  0.00000000000E+00  0.93800000000E+00  0.93800000000E+00 0. -1.
         11    1    1    2    0    0  0.84325861528E-01 -0.25327911799E-01  0.74289613371E+00  0.74809576970E+00  0.51100000000E-03 0. -1.
    9000002    1    1    2    0    0 -0.42939034832E+00  0.13104296665E+00  0.13687012511E+00  0.10488688009E+01  0.93800000000E+00 0. -1.
         22    1    1    2    0    0  0.34506448680E+00 -0.10571505485E+00  0.31202337085E+01  0.31410354294E+01  0.00000000000E+00 0. -1.
</event>
<event>
 5    1  0.6645559E+001  0.1599676E+01  0.7818608E-02  0.3353715E+00
         11   -1    0    0    0    0  0.00000000000E+00  0.00000000000E+00  0.39999999674E+01  0.40000000000E+01  0.51100000000E-03 0.  1.
    9000002   -1    0    0    0    0 -0.00000000000E+00 -0.00000000000E+00  0.00000000000E+00  0.93800000000E+00  0.93800000000E+00 0. -1.
         11    1    1    2    0    0  0.14379221280E+00  0.31330566442E-01  0.14687838465E+01  0.14761382231E+01  0.51100000000E-03 0. -1.
    9000002    1    1    2    0    0 -0.38054639639E+00 -0.85134327979E-01  0.10243997020E+00  0.10209805880E+01  0.93800000000E+00 0. -1.
         22    1    1    2    0    0  0.23675418359E+00  0.53803761538E-01  0.24287761506E+01  0.24408811888E+01  0.00000000000E+00 0.  1.
</event>
<event>
 5    1  0.6645559E+001  0.1598120E+01  0.7818608E-02  0.3355406E+00
         11   -1    0    0    0    0  0.00000000000E+00  0.00000000000E+00  0.39999999674E+01  0.40000000000E+01  0.51100000000E-03 0. -1.
    9000002   -1    0    0    0    0 -0.00000000000E+00 -0.00000000000E+00  0.00000000000E+00  0.93800000000E+00  0.93800000000E+00 0. -1.
         11    1    1    2    0    0 -0.72229082346E-01 -0.12107884330E-01  0.12808444540E+01  0.12829366382E+01  0.51100000000E-03 0. -1.
    9000002    1    1    2    0    0  0.33696406394E+00 -0.35482106480E-01  0.78129993344E-01  0.10003759574E+01  0.93800000000E+00 0. -1.
         22    1    1    2    0    0 -0.26473498159E+00  0.47589990810E-01  0.26410255200E+01  0.26546874044E+01  0.00000000000E+00 0. -1.
</event>
<event>
 5    1  0.6645559E+001  0.1599677E+01  0.7818608E-02  0.3353714E+00
         11   -1    0    0    0    0  0.00000000000E+00  0.00000000000E+00  0.39999999674E+01  0.40000000000E+01  0.51100000000E-03 0. -1.
    9000002   -1    0    0    0    0 -0.00000000000E+00 -0.00000000000E+00  0.00000000000E+00  0.93800000000E+00  0.93800000000E+00 0.  1.
         11    1    1    2    0    0 -0.10114796487E+00 -0.92001003738E-02  0.85607069418E+00  0.86207473412E+00  0.51100000000E-03 0.  1.
    9000002    1    1    2    0    0  0.45641914089E+00  0.42352210153E-01  0.14288343458E+00  0.10537418174E+01  0.93800000000E+00 0.  1.
         22    1    1    2    0    0 -0.35527117602E+00 -0.33152109779E-01  0.30010458386E+01  0.30221834485E+01  0.00000000000E+00 0. -1.
</event>
<event>
 5    1  0.6965131E+001  0.1599638E+01  0.7818608E-02  0.3353756E+00
         11   -1    0    0    0    0  0.00000000000E+00  0.00000000000E+00  0.39999999674E+01  0.40000000000E+01  0.51100000000E-03 0. -1.
    9000002   -1    0    0    0    0 -0.00000000000E+00 -0.00000000000E+00  0.00000000000E+00  0.93800000000E+00  0.93800000000E+00 0.  1.
         11    1    1    2    0    0 -0.69942407440E-01 -0.11341138784E+00  0.14109264780E+01  0.14172042446E+01  0.51100000000E-03 0. -1.
    9000002    1    1    2    0    0  0.17510670711E+00  0.32131257002E+00  0.89977706077E-01  0.10108630541E+01  0.93800000000E+00 0.  1.
         22    1    1    2    0    0 -0.10516429967E+00 -0.20790118218E+00  0.24990957833E+01  0.25099327014E+01  0.00000000000E+00 0. -1.
</event>
<event>
 5    1  0.6645559E+001  0.1598676E+01  0.7818608E-02  0.3354801E+00
         11   -1    0    0    0    0  0.00000000000E+00  0.00000000000E+00  0.39999999674E+01  0.40000000000E+01  0.51100000000E-03 0.  1.
    9000002   -1    0    0    0    0 -0.00000000000E+00 -0.00000000000E+00  0.00000000000E+00  0.93800000000E+00  0.93800000000E+00 0. -1.
         11    1    1    2    0    0  0.49249234476E-01 -0.34069581513E-01  0.39853712926E+00  0.40301157304E+00  0.51100000000E-03 0.  1.
    9000002    1    1    2    0    0 -0.50116433611E+00  0.10529020724E+00  0.18080842079E+00  0.10838761020E+01  0.93800000000E+00 0.  1.
         22    1    1    2    0    0  0.45191510163E+00 -0.71220625724E-01  0.34206544173E+01  0.34511123249E+01  0.00000000000E+00 0.  1.
</event>
<event>
 5    1  0.6645559E+001  0.1599669E+01  0.7818608E-02  0.3353723E+00
         11   -1    0    0    0    0  0.00000000000E+00  0.00000000000E+00  0.39999999674E+01  0.40000000000E+01  0.51100000000E-03 0. -1.
    9000002   -1    0    0    0    0 -0.00000000000E+00 -0.00000000000E+00  0.00000000000E+00  0.93800000000E+00  0.93800000000E+00 0.  1.
         11    1    1    2    0    0  0.69861392273E-01  0.78666554294E-01  0.11598936493E+01  0.11646555627E+01  0.51100000000E-03 0. -1.
    9000002    1    1    2    0    0 -0.24347586722E+00 -0.27231786561E+00  0.89632660888E-01  0.10106015692E+01  0.93800000000E+00 0.  1.
         22    1    1    2    0    0  0.17361447495E+00  0.19365131132E+00  0.27504736572E+01  0.27627428681E+01  0.00000000000E+00 0. -1.
</event>
<event>
 5    1  0.6645559E+001  0.1599677E+01  0.7818608E-02  0.3353714E+00
         11   -1    0    0    0    0  0.00000000000E+00  0.00000000000E+00  0.39999999674E+01  0.40000000000E+01  0.51100000000E-03 0.  1.
    9000002   -1    0    0    0    0 -0.00000000000E+00 -0.00000000000E+00  0.00000000000E+00  0.93800000000E+00  0.93800000000E+00 0. -1.
         11    1    1    2    0    0  0.14555922996E+00  0.12265864280E+00  0.13980224008E+01  0.14109215167E+01  0.51100000000E-03 0.  1.
    9000002    1    1    2    0    0 -0.39832002332E+00 -0.33358050423E+00  0.18540843932E+00  0.10881889005E+01  0.93800000000E+00 0. -1.
         22    1    1    2    0    0  0.25276079337E+00  0.21092186144E+00  0.24165691272E+01  0.24388895828E+01  0.00000000000E+00 0.  1.
</event>
<event>
 5    1  0.6645559E+001  0.1599623E+01  0.7818608E-02  0.3353773E+00
         11   -1    0    0    0    0  0.00000000000E+00  0.00000000000E+00  0.39999999674E+01  0.40000000000E+01  0.51100000000E-03 0.  1.
    9000002   -1    0    0    0    0 -0.00000000000E+00 -0.00000000000E+00  0.00000000000E+00  0.93800000000E+00  0.93800000000E+00 0.  1.
         11    1    1    2    0    0 -0.79221200396E-01 -0.13441760343E+00  0.14883941820E+01  0.14965498966E+01  0.51100000000E-03 0.  1.
    9000002    1    1    2    0    0  0.19290752408E+00  0.33482838418E+00  0.10059443612E+00  0.10194540697E+01  0.93800000000E+00 0.  1.
         22    1    1    2    0    0 -0.11368632368E+00 -0.20041078075E+00  0.24110113492E+01  0.24219960337E+01  0.00000000000E+00 0.  1.
</event>
<event>
 5    1  0.6645559E+001  0.1597286E+01  0.7818608E-02  0.3356314E+00
         11   -1    0    0    0    0  0.00000000000E+00  0.00000000000E+00  0.39999999674E+01  0.40000000000E+01  0.51100000000E-03 0.  1.
    9000002   -1    0    0    0    0 -0.00000000000E+00 -0.00000000000E+00  0.00000000000E+00  0.93800000000E+00  0.93800000000E+00 0.  1.
         11    1    1    2    0    0  0.76986556874E-02 -0.54034011976E-03  0.10828682152E-01  0.13307244080E-01  0.51100000000E-03 0.  1.
    9000002    1    1    2    0    0 -0.39717671662E+00 -0.76806239576E-01  0.11244684735E+00  0.10276851834E+01  0.93800000000E+00 0.  1.
         22    1    1    2    0    0  0.38947806093E+00  0.77346579696E-01  0.38767244379E+01  0.38970075725E+01  0.00000000000E+00 0.  1.
</event>
<event>
 5    1  0.6645559E+001  0.1599673E+01  0.7818608E-02  0.3353718E+00
         11   -1    0    0    0    0  0.00000000000E+00  0.00000000000E+00  0.39999999674E+01  0.40000000000E+01  0.51100000000E-03 0.  1.
    9000002   -1    0    0    0    0 -0.00000000000E+00 -0.00000000000E+00  0.00000000000E+00  0.93800000000E+00  0.93800000000E+00 0. -1.
         11    1    1    2    0    0  0.18758375463E-01  0.26298359653E-01  0.31298122267E+00  0.31464422327E+00  0.51100000000E-03 0. -1.
    9000002    1    1    2    0    0 -0.24477543506E+00 -0.33576833851E+00  0.11670029019E+00  0.10325300715E+01  0.93800000000E+00 0. -1.
         22    1    1    2    0    0  0.22601705960E+00  0.30946997885E+00  0.35703184545E+01  0.35908257053E+01  0.00000000000E+00 0.  1.
</event>
<event>
 5    1  0.6645559E+001  0.1599505E+01  0.7818608E-02  0.3353901E+00
         11   -1    0    0    0    0  0.00000000000E+00  0.00000000000E+00  0.39999999674E+01  0.40000000000E+01  0.51100000000E-03 0. -1.
    9000002   -1    0    0    0    0 -0.00000000000E+00 -0.00000000000E+00  0.00000000000E+00  0.93800000000E+00  0.93800000000E+00 0. -1.
         11    1    1    2    0    0 -0.94041052084E-01 -0.84790072772E-01  0.13773839431E+01  0.13831919114E+01  0.51100000000E-03 0. -1.
    9000002    1    1    2    0    0  0.30458333544E+00  0.22070918002E+00  0.95292399851E-01  0.10150902383E+01  0.93800000000E+00 0. -1.
         22    1    1    2    0    0 -0.21054228335E+00 -0.13591910724E+00  0.25273236244E+01  0.25397178504E+01  0.00000000000E+00 0. -1.
</event>
<event>
 5    1  0.6645559E+001  0.1599521E+01  0.7818608E-02  0.3353884E+00
         11   -1    0    0    0    0  0.00000000000E+00  0.00000000000E+00  0.39999999674E+01  0.40000000000E+01  0.51100000000E-03 0. -1.
    9000002   -1    0    0    0    0 -0.00000000000E+00 -0.00000000000E+00  0.00000000000E+00  0.93800000000E+00  0.93800000000E+00 0. -1.
         11    1    1    2    0    0  0.27900315107E-02  0.14641949348E-02  0.39993260813E-01  0.40120445836E-01  0.51100000000E-03 0. -1.
    9000002    1    1    2    0    0 -0.98754599272E-01 -0.37692619721E+00  0.10240454050E+00  0.10208606756E+01  0.93800000000E+00 0. -1.
         22    1    1    2    0    0  0.95964567762E-01  0.37546200228E+00  0.38576021660E+01  0.38770188786E+01  0.00000000000E+00 0. -1.
</event>
<event>
 5    1  0.6645559E+001  0.1513920E+01  0.7818608E-02  0.3452440E+00
         11   -1    0    0    0    0  0.00000000000E+00  0.00000000000E+00  0.39999999674E+01  0.40000000000E+01  0.51100000000E-03 0.  1.
    9000002   -1    0    0    0    0 -0.00000000000E+00 -0.00000000000E+00  0.00000000000E+00  0.93800000000E+00  0.93800000000E+00 0.  1.
         11    1    1    2    0    0  0.96805060913E-01 -0.25579985712E+00  0.96351403649E+00  0.10015809235E+01  0.51100000000E-03 0.  1.
    9000002    1    1    2    0    0 -0.67756953411E-01 -0.15354294469E+00  0.85153713043E-01  0.95669305184E+00  0.93800000000E+00 0.  1.
         22    1    1    2    0    0 -0.29048107501E-01  0.40934280180E+00  0.29513322178E+01  0.29797260246E+01  0.00000000000E+00 0.  1.
</event>
<event>
 5    1  0.6645559E+001  0.1599672E+01  0.7818608E-02  0.3353720E+00
         11   -1    0    0    0    0  0.00000000000E+00  0.00000000000E+00  0.39999999674E+01  0.40000000000E+01  0.51100000000E-03 0. -1.
    9000002   -1    0    0    0    0 -0.00000000000E+00 -0.00000000000E+00  0.00000000000E+00  0.93800000000E+00  0.93800000000E+00 0.  1.
         11    1    1    2    0    0  0.47165565543E-01  0.72768098379E-01  0.71718282956E+00  0.72240657448E+00  0.51100000000E-03 0. -1.
    9000002    1    1    2    0    0 -0.24206293231E+00 -0.39163665842E+00  0.14419807478E+00  0.10548036880E+01  0.93800000000E+00 0.  1.
         22    1    1    2    0    0  0.19489736677E+00  0.31886856005E+00  0.31386190630E+01  0.31607897375E+01  0.00000000000E+00 0. -1.
</event>
<event>
 5    1  0.6645559E+001  0.1599654E+01  0.7818608E-02  0.3353739E+00
         11   -1    0    0    0    0  0.00000000000E+00  0.00000000000E+00  0.39999999674E+01  0.40000000000E+01  0.51100000000E-03 0. -1.
    9000002   -1    0    0    0    0 -0.00000000000E+00 -0.00000000000E+00  0.00000000000E+00  0.93800000000E+00  0.93800000000E+00 0.  1.
         11    1    1    2    0    0 -0.30793036421E-01 -0.55463932007E-01  0.29130743722E+00  0.29813544397E+00  0.51100000000E-03 0. -1.
    9000002    1    1    2    0    0  0.40670806743E+00  0.65439960855E+00  0.43311778306E+00  0.12888309873E+01  0.93800000000E+00 0.  1.
         22    1    1    2    0    0 -0.37591503101E+00 -0.59893567654E+00  0.32755747471E+01  0.33510335687E+01  0.00000000000E+00 0. -1.
</event>
<event>
 5    1  0.6645559E+001  0.1599658E+01  0.7818608E-02  0.3353735E+00
         11   -1    0    0    0    0  0.00000000000E+00  0.00000000000E+00  0.39999999674E+01  0.40000000000E+01  0.51100000000E-03 0.  1.
    9000002   -1    0    0    0    0 -0.00000000000E+00 -0.00000000000E+00  0.00000000000E+00  0.93800000000E+00  0.93800000000E+00 0. -1.
         11    1    1    2    0    0 -0.45285368956E-01 -0.48279301595E-01  0.58119517096E+00  0.58495277030E+00  0.51100000000E-03 0.  1.
    9000002    1    1    2    0    0  0.30725891859E+00  0.34432298216E+00  0.14490906891E+00  0.10553714973E+01  0.93800000000E+00 0. -1.
         22    1    1    2    0    0 -0.26197354964E+00 -0.29604368057E+00  0.32738957275E+01  0.32976757324E+01  0.00000000000E+00 0.  1.
</event>
<event>
 5    1  0.6645559E+001  0.1595869E+01  0.7818608E-02  0.3357859E+00
         11   -1    0    0    0    0  0.00000000000E+00  0.00000000000E+00  0.39999999674E+01  0.40000000000E+01  0.51100000000E-03 0.  1.
    9000002   -1    0    0    0    0 -0.00000000000E+00 -0.00000000000E+00  0.00000000000E+00  0.93800000000E+00  0.93800000000E+00 0.  1.
         11    1    1    2    0    0  0.20156355125E-01 -0.54721205835E-01  0.25068369834E+00  0.25737767338E+00  0.51100000000E-03 0.  1.
    9000002    1    1    2    0    0 -0.26016635192E+00  0.28104166306E+00  0.10185972135E+00  0.10182781299E+01  0.93800000000E+00 0.  1.
         22    1    1    2    0    0  0.24000999679E+00 -0.22632045722E+00  0.36474565477E+01  0.36623441967E+01  0.00000000000E+00 0.  1.
</event>
<event>
 5    1  0.6645559E+001  0.1599587E+01  0.7818608E-02  0.3353812E+00
         11   -1    0    0    0    0  0.00000000000E+00  0.00000000000E+00  0.39999999674E+01  0.40000000000E+01  0.51100000000E-03 0. -1.
    9000002   -1    0    0    0    0 -0.00000000000E+00 -0.00000000000E+00  0.00000000000E+00  0.93800000000E+00  0.93800000000E+00 0. -1.
         11    1    1    2    0    0 -0.14690054307E-01 -0.10894065579E+00  0.11794693436E+01  0.11845809630E+01  0.51100000000E-03 0. -1.
    9000002    1    1    2    0    0  0.79173499259E-01  0.37671596791E+00  0.99838067693E-01  0.10188203979E+01  0.93800000000E+00 0.  1.
         22    1    1    2    0    0 -0.64483444952E-01 -0.26777531212E+00  0.27206925561E+01  0.27345986391E+01  0.00000000000E+00 0. -1.
</event>
<event>
 5    1  0.6645559E+001  0.1597934E+01  0.7818608E-02  0.3355609E+00
         11   -1    0    0    0    0  0.00000000000E+00  0.00000000000E+00  0.39999999674E+01  0.40000000000E+01  0.51100000000E-03 0. -1.
    9000002   -1    0    0    0    0 -0.00000000000E+00 -0.00000000000E+00  0.00000000000E+00  0.93800000000E+00  0.93800000000E+00 0.  1.
         11    1    1    2    0    0 -0.59939493650E-01  0.12112802047E+00  0.30742414421E+00  0.33581930529E+00  0.51100000000E-03 0. -1.
    9000002    1    1    2    0    0  0.25825850283E+00 -0.11253249979E+01  0.12123400133E+01  0.19190273873E+01  0.93800000000E+00 0.  1.
         22    1    1    2    0    0 -0.19831900918E+00  0.10041969774E+01  0.24802358098E+01  0.26831533075E+01  0.00000000000E+00 0. -1.
</event>
<event>
 5    1  0.6645559E+001  0.1570718E+01  0.7818608E-02  0.3385771E+00
         11   -1    0    0    0    0  0.00000000000E+00  0.00000000000E+00  0.39999999674E+01  0.40000000000E+01  0.51100000000E-03 0. -1.
    9000002   -1    0    0    0    0 -0.00000000000E+00 -0.00000000000E+00  0.00000000000E+00  0.93800000000E+00  0.93800000000E+00 0. -1.
         11    1    1    2    0    0 -0.89526188159E-01  0.11922957967E+00  0.88678382691E+00  0.89923103140E+00  0.51100000000E-03 0. -1.
    9000002    1    1    2    0    0 -0.35642863190E+00 -0.49180430990E+00  0.28743120216E+00  0.11538516130E+01  0.93800000000E+00 0. -1.
         22    1    1    2    0    0  0.44595482006E+00  0.37257473023E+00  0.28257849383E+01  0.28849173556E+01  0.00000000000E+00 0. -1.
</event>
<event>
 5    1  0.6645559E+001  0.1599677E+01  0.7818608E-02  0.3353714E+00
         11   -1    0    0    0    0  0.00000000000E+00  0.00000000000E+00  0.39999999674E+01  0.40000000000E+01  0.51100000000E-03 0. -1.
    9000002   -1    0    0    0    0 -0.00000000000E+00 -0.00000000000E+00  0.00000000000E+00  0.93800000000E+00  0.93800000000E+00 0.  1.
         11    1    1    2    0    0 -0.10850154668E+00 -0.77700011862E-01  0.12467215208E+01  0.12538439651E+01  0.51100000000E-03 0. -1.
    9000002    1    1    2    0    0  0.33881343664E+00  0.24351085954E+00  0.11769556571E+00  0.10333384391E+01  0.93800000000E+00 0.  1.
         22    1    1    2    0    0 -0.23031188996E+00 -0.16581084768E+00  0.26355828809E+01  0.26508175957E+01  0.00000000000E+00 0. -1.
</event>
<event>
 5    1  0.6645559E+001  0.1599561E+01  0.7818608E-02  0.3353840E+00
         11   -1    0    0    0    0  0.00000000000E+00  0.00000000000E+00  0.39999999674E+01  0.40000000000E+01  0.51100000000E-03 0. -1.
    9000002   -1    0    0    0    0 -0.00000000000E+00 -0.00000000000E+00  0.00000000000E+00  0.93800000000E+00  0.93800000000E+00 0. -1.
         11    1    1    2    0    0  0.12231433964E+00  0.47560190714E-01  0.12075176805E+01  0.12146283297E+01  0.51100000000E-03 0. -1.
    9000002    1    1    2    0    0 -0.42787572646E+00 -0.16255621137E+00  0.14255492160E+00  0.10534078340E+01  0.93800000000E+00 0. -1.
         22    1    1    2    0    0  0.30556138682E+00  0.11499602066E+00  0.26499273653E+01  0.26699638363E+01  0.00000000000E+00 0. -1.
</event>
<event>
 5    1  0.6645559E+001  0.1599537E+01  0.7818608E-02  0.3353866E+00
         11   -1    0    0    0    0  0.00000000000E+00  0.00000000000E+00  0.39999999674E+01  0.40000000000E+01  0.51100000000E-03 0. -1.
    9000002   -1    0    0    0    0 -0.00000000000E+00 -0.00000000000E+00  0.00000000000E+00  0.93800000000E+00  0.93800000000E+00 0. -1.
         11    1    1    2    0    0 -0.65340401135E-01 -0.30125384342E+00  0.14053040130E+01  0.14387157038E+01  0.51100000000E-03 0. -1.
    9000002    1    1    2    0    0  0.13123187236E+00  0.75795575411E+00  0.43168107624E+00  0.12875990374E+01  0.93800000000E+00 0. -1.
         22    1    1    2    0    0 -0.65891471227E-01 -0.45670191069E+00  0.21630148781E+01  0.22116852588E+01  0.00000000000E+00 0. -1.
</event>
<event>
 5    1  0.6645559E+001  0.1599673E+01  0.7818608E-02  0.3353719E+00
         11   -1    0    0    0    0  0.00000000000E+00  0.00000000000E+00  0.39999999674E+01  0.40000000000E+01  0.51100000000E-03 0.  1.
    9000002   -1    0    0    0    0 -0.00000000000E+00 -0.00000000000E+00  0.00000000000E+00  0.93800000000E+00  0.93800000000E+00 0. -1.
         11    1    1    2    0    0 -0.52503921563E-01 -0.89301116092E-01  0.92049564047E+00  0.92630655636E+00  0.51100000000E-03 0.  1.
    9000002    1    1    2    0    0  0.21678975760E+00  0.36818036687E+00  0.12358932399E+00  0.10381102555E+01  0.93800000000E+00 0. -1.
         22    1    1    2    0    0 -0.16428583604E+00 -0.27887925078E+00  0.29559150029E+01  0.29735831881E+01  0.00000000000E+00 0.  1.
</event>
<event>
 5    1  0.6645559E+001  0.1599641E+01  0.7818608E-02  0.3353753E+00
         11   -1    0    0    0    0  0.00000000000E+00  0.00000000000E+00  0.39999999674E+01  0.40000000000E+01  0.51100000000E-03 0.  1.
    9000002   -1    0    0    0    0 -0.00000000000E+00 -0.00000000000E+00  0.00000000000E+00  0.93800000000E+00  0.93800000000E+00 0. -1.
         11    1    1    2    0    0 -0.62431797349E-01  0.97936519494E-02  0.59107060480E+00  0.59443953933E+00  0.51100000000E-03 0.  1.
    9000002    1    1    2    0    0  0.43186037226E+00 -0.88686874130E-01  0.13186730427E+00  0.10447974582E+01  0.93800000000E+00 0. -1.
         22    1    1    2    0    0 -0.36942857491E+00  0.78893222180E-01  0.32770620583E+01  0.32987630024E+01  0.00000000000E+00 0.  1.
</event>
<event>
 5    1  0.6645559E+001  0.1588138E+01  0.7818608E-02  0.3366339E+00
         11   -1    0    0    0    0  0.00000000000E+00  0.00000000000E+00  0.39999999674E+01  0.40000000000E+01  0.51100000000E-03 0.  1.
    9000002   -1    0    0    0    0 -0.00000000000E+00 -0.00000000000E+00  0.00000000000E+00  0.93800000000E+00  0.93800000000E+00 0.  1.
         11    1    1    2    0    0  0.15454130221E+00 -0.16279815365E-01  0.13937442743E+01  0.14023806223E+01  0.51100000000E-03 0.  1.
    9000002    1    1    2    0    0 -0.23409868002E+00  0.32951200695E+00  0.11995567651E+00  0.10284034807E+01  0.93800000000E+00 0.  1.
         22    1    1    2    0    0  0.79557377805E-01 -0.31323219158E+00  0.24863000165E+01  0.25072158970E+01  0.00000000000E+00 0. -1.
</event>
<event>
 5    1  0.6645559E+001  0.1599038E+01  0.7818608E-02  0.3354408E+00
         11   -1    0    0    0    0  0.00000000000E+00  0.00000000000E+00  0.39999999674E+01  0.40000000000E+01  0.51100000000E-03 0. -1.
    9000002   -1    0    0    0    0 -0.00000000000E+00 -0.00000000000E+00  0.00000000000E+00  0.93800000000E+00  0.93800000000E+00 0.  1.
         11    1    1    2    0    0 -0.39744038704E-01  0.12413471128E+00  0.88364845790E+00  0.89320987087E+00  0.51100000000E-03 0. -1.
    9000002    1    1    2    0    0  0.10112502491E+00 -0.45507596558E+00  0.14851982792E+00  0.10579331474E+01  0.93800000000E+00 0.  1.
         22    1    1    2    0    0 -0.61380986202E-01  0.33094125430E+00  0.29678316815E+01  0.29868569817E+01  0.00000000000E+00 0. -1.
</event>
<event>
 5    1  0.6645559E+001  0.1599677E+01  0.7818608E-02  0.3353714E+00
         11   -1    0    0    0    0  0.00000000000E+00  0.00000000000E+00  0.39999999674E+01  0.40000000000E+01  0.51100000000E-03 0. -1.
    9000002   -1    0    0    0    0 -0.00000000000E+00 -0.00000000000E+00  0.00000000000E+00  0.93800000000E+00  0.93800000000E+00 0.  1.
         11    1    1    2    0    0 -0.10218618552E+00  0.95060916519E-01  0.12764737045E+01  0.12840809841E+01  0.51100000000E-03 0.  1.
    9000002    1    1    2    0    0  0.31053579453E+00 -0.28849083635E+00  0.12156862150E+00  0.10364759390E+01  0.93800000000E+00 0.  1.
         22    1    1    2    0    0 -0.20834960901E+00  0.19342991983E+00  0.26019576414E+01  0.26174430770E+01  0.00000000000E+00 0. -1.
</event>
<event>
 5    1  0.6645559E+001  0.1573597E+01  0.7818608E-02  0.3382529E+00
         11   -1    0    0    0    0  0.00000000000E+00  0.00000000000E+00  0.39999999674E+01  0.40000000000E+01  0.51100000000E-03 0. -1.
    9000002   -1    0    0    0    0 -0.00000000000E+00 -0.00000000000E+00  0.00000000000E+00  0.93800000000E+00  0.93800000000E+00 0.  1.
         11    1    1    2    0    0 -0.14308938282E+00  0.16615395727E+00  0.13813804290E+01  0.13986757522E+01  0.51100000000E-03 0. -1.
    9000002    1    1    2    0    0 -0.99378087648E-01 -0.32036428459E+00  0.96437978385E-01  0.10008264399E+01  0.93800000000E+00 0.  1.
         22    1    1    2    0    0  0.24246747047E+00  0.15421032733E+00  0.25221815600E+01  0.25384978079E+01  0.00000000000E+00 0. -1.
</event>
<event>
 5    1  0.6645559E+001  0.1598617E+01  0.7818608E-02  0.3354866E+00
         11   -1    0    0    0    0  0.00000000000E+00  0.00000000000E+00  0.39999999674E+01  0.40000000000E+01  0.51100000000E-03 0.  1.
    9000002   -1    0    0    0    0 -0.00000000000E+00 -0.00000000000E+00  0.00000000000E+00  0.93800000000E+00  0.93800000000E+00 0. -1.
         11    1    1    2    0    0  0.12693502033E+00 -0.97303380813E-01  0.12198314800E+01  0.12302721439E+01  0.51100000000E-03 0.  1.
    9000002    1    1    2    0    0 -0.33060606613E+00  0.39739049884E+00  0.18442861017E+00  0.10867738917E+01  0.93800000000E+00 0. -1.
         22    1    1    2    0    0  0.20367104580E+00 -0.30008711803E+00  0.25957398772E+01  0.26209539644E+01  0.00000000000E+00 0.  1.
</event>
<event>
 5    1  0.6645559E+001  0.1598574E+01  0.7818608E-02  0.3354913E+00
         11   -1    0    0    0    0  0.00000000000E+00  0.00000000000E+00  0.39999999674E+01  0.40000000000E+01  0.51100000000E-03 0.  1.
    9000002   -1    0    0    0    0 -0.00000000000E+00 -0.00000000000E+00  0.00000000000E+00  0.93800000000E+00  0.93800000000E+00 0. -1.
         11    1    1    2    0    0 -0.37493935308E-01  0.13154867809E+00  0.56772187612E+00  0.58396852624E+00  0.51100000000E-03 0.  1.
    9000002    1    1    2    0    0  0.88492645894E-01 -0.89992148483E+00  0.62875938964E+00  0.14466761895E+01  0.93800000000E+00 0. -1.
         22    1    1    2    0    0 -0.50998710587E-01  0.76837280675E+00  0.28035187016E+01  0.29073552843E+01  0.00000000000E+00 0.  1.
</event>
<event>
 5    1  0.6645559E+001  0.1599566E+01  0.7818608E-02  0.3353834E+00
         11   -1    0    0    0    0  0.00000000000E+00  0.00000000000E+00  0.39999999674E+01  0.40000000000E+01  0.51100000000E-03 0.  1.
    9000002   -1    0    0    0    0 -0.00000000000E+00 -0.00000000000E+00  0.00000000000E+00  0.93800000000E+00  0.93800000000E+00 0.  1.
         11    1    1    2    0    0  0.97849415652E-01 -0.24322437683E+00  0.68895163322E+00  0.73714803104E+00  0.51100000000E-03 0.  1.
    9000002    1    1    2    0    0 -0.38472228267E+00  0.10575641621E+01  0.11146620277E+01  0.18408608388E+01  0.93800000000E+00 0.  1.
         22    1    1    2    0    0  0.28687286701E+00 -0.81433978523E+00  0.21963863064E+01  0.23599911302E+01  0.00000000000E+00 0.  1.
</event>
<event>
 5    1  0.6645559E+001  0.1587004E+01  0.7818608E-02  0.3367591E+00
         11   -1    0    0    0    0  0.00000000000E+00  0.00000000000E+00  0.39999999674E+01  0.40000000000E+01  0.51100000000E-03 0. -1.
    9000002   -1    0    0    0    0 -0.00000000000E+00 -0.00000000000E+00  0.00000000000E+00  0.93800000000E+00  0.93800000000E+00 0. -1.
         11    1    1    2    0    0  0.22923088692E+00  0.24481432429E-01  0.13225670029E+01  0.13425088001E+01  0.51100000000E-03 0. -1.
    9000002    1    1    2    0    0 -0.34645795847E+00 -0.26465223463E+00  0.13974062157E+00  0.10437649944E+01  0.93800000000E+00 0. -1.
         22    1    1    2    0    0  0.11722707156E+00  0.24017080221E+00  0.25376923429E+01  0.25517262055E+01  0.00000000000E+00 0.  1.
</event>
<event>
 5    1  0.6645559E+001  0.1599639E+01  0.7818608E-02  0.3353756E+00
         11   -1    0    0    0    0  0.00000000000E+00  0.00000000000E+00  0.39999999674E+01  0.40000000000E+01  0.51100000000E-03 0.  1.
    9000002   -1    0    0    0    0 -0.00000000000E+00 -0.00000000000E+00  0.00000000000E+00  0.93800000000E+00  0.93800000000E+00 0.  1.
         11    1    1    2    0    0 -0.13179020588E+00 -0.73781086567E-01  0.12876638150E+01  0.12964916771E+01  0.51100000000E-03 0.  1.
    9000002    1    1    2    0    0  0.41047122648E+00  0.20701729622E+00  0.14378267955E+00  0.10544478402E+01  0.93800000000E+00 0.  1.
         22    1    1    2    0    0 -0.27868102060E+00 -0.13323620965E+00  0.25685534728E+01  0.25870604828E+01  0.00000000000E+00 0.  1.
</event>
<event>
 5    1  0.6645559E+001  0.1599599E+01  0.7818608E-02  0.3353798E+00
         11   -1    0    0    0    0  0.00000000000E+00  0.00000000000E+00  0.39999999674E+01  0.40000000000E+01  0.51100000000E-03 0. -1.
    9000002   -1    0    0    0    0 -0.00000000000E+00 -0.00000000000E+00  0.00000000000E+00  0.93800000000E+00  0.93800000000E+00 0. -1.
         11    1    1    2    0    0 -0.48825703482E-01  0.35229483267E-01  0.47924672817E+00  0.48301423726E+00  0.51100000000E-03 0. -1.
    9000002    1    1    2    0    0  0.35905136307E+00 -0.32821609877E+00  0.16170346872E+00  0.10689413925E+01  0.93800000000E+00 0. -1.
         22    1    1    2    0    0 -0.31022565959E+00  0.29298661550E+00  0.33590497705E+01  0.33860443702E+01  0.00000000000E+00 0. -1.
</event>
<event>
 5    1  0.6645559E+001  0.1597817E+01  0.7818608E-02  0.3355737E+00
         11   -1    0    0    0    0  0.00000000000E+00  0.00000000000E+00  0.39999999674E+01  0.40000000000E+01  0.51100000000E-03 0. -1.
    9000002   -1    0    0    0    0 -0.00000000000E+00 -0.00000000000E+00  0.00000000000E+00  0.93800000000E+00  0.93800000000E+00 0. -1.
         11    1    1    2    0    0  0.16383032679E+00  0.19687699892E+00  0.12196060100E+01  0.12462102589E+01  0.51100000000E-03 0. -1.
    9000002    1    1    2    0    0 -0.39168687515E+00 -0.49464000532E+00  0.28157269553E+00  0.11649955047E+01  0.93800000000E+00 0. -1.
         22    1    1    2    0    0  0.22785654836E+00  0.29776300640E+00  0.24988212618E+01  0.25267942364E+01  0.00000000000E+00 0. -1.
</event>
<event>
 5    1  0.9971135E+001  0.1599626E+01  0.7818608E-02  0.3353769E+00
         11   -1    0    0    0    0  0.00000000000E+00  0.00000000000E+00  0.39999999674E+01  0.40000000000E+01  0.51100000000E-03 0.  1.
    9000002   -1    0    0    0    0 -0.00000000000E+00 -0.00000000000E+00  0.00000000000E+00  0.93800000000E+00  0.93800000000E+00 0.  1.
         11    1    1    2    0    0  0.18391661363E+00 -0.95455715118E-01  0.14594417751E+01  0.14740785835E+01  0.51100000000E-03 0.  1.
    9000002    1    1    2    0    0 -0.49327301927E+00  0.26204696252E+00  0.21589225051E+00  0.11128523469E+01  0.93800000000E+00 0.  1.
         22    1    1    2    0    0  0.30935640564E+00 -0.16659124741E+00  0.23246659418E+01  0.23510690697E+01  0.00000000000E+00 0.  1.
</event>
<event>
 5    1  0.6645559E+001  0.1599677E+01  0.7818608E-02  0.3353714E+00
         11   -1    0    0    0    0  0.00000000000E+00  0.00000000000E+00  0.39999999674E+01  0.40000000000E+01  0.51100000000E-03 0. -1.
    9000002   -1    0    0    0    0 -0.00000000000E+00 -0.00000000000E+00  0.00000000000E+00  0.93800000000E+00  0.93800000000E+00 0.  1.
         11    1    1    2    0    0  0.11350667002E+00 -0.14551316525E-01  0.11054517546E+01  0.11113592344E+01  0.51100000000E-03 0. -1.
    9000002    1    1    2    0    0 -0.39965217405E+00  0.52523670147E-01  0.10964019929E+00  0.10268133080E+01  0.93800000000E+00 0.  1.
         22    1    1    2    0    0  0.28614550402E+00 -0.37972353621E-01  0.27849080135E+01  0.27998274577E+01  0.00000000000E+00 0. -1.
</event>
<event>
 5    1  0.6645559E+001  0.1599674E+01  0.7818608E-02  0.3353718E+00
         11   -1    0    0    0    0  0.00000000000E+00  0.00000000000E+00  0.39999999674E+01  0.40000000000E+01  0.51100000000E-03 0. -1.
    9000002   -1    0    0    0    0 -0.00000000000E+00 -0.00000000000E+00  0.00000000000E+00  0.93800000000E+00  0.93800000000E+00 0. -1.
         11    1    1    2    0    0  0.21861933763E-01 -0.25123877442E-01  0.29907304415E+00  0.30092208331E+00  0.51100000000E-03 0. -1.
    9000002    1    1    2    0    0 -0.27587663685E+00  0.31422625195E+00  0.11822227956E+00  0.10337633015E+01  0.93800000000E+00 0. -1.
         22    1    1    2    0    0  0.25401470309E+00 -0.28910237450E+00  0.35827046436E+01  0.36033146152E+01  0.00000000000E+00 0. -1.
</event>
<event>
 5    1  0.6645559E+001  0.1539045E+01  0.7818608E-02  0.3422300E+00
         11   -1    0    0    0    0  0.00000000000E+00  0.00000000000E+00  0.39999999674E+01  0.40000000000E+01  0.51100000000E-03 0. -1.
    9000002   -1    0    0    0    0 -0.00000000000E+00 -0.00000000000E+00  0.00000000000E+00  0.93800000000E+00  0.93800000000E+00 0. -1.
         11    1    1    2    0    0 -0.20733962680E+00  0.23615752740E-01  0.11507657306E+01  0.11695338612E+01  0.51100000000E-03 0. -1.
    9000002    1    1    2    0    0 -0.21270427907E+00 -0.10618694653E+00  0.85115095054E-01  0.97139454258E+00  0.93800000000E+00 0. -1.
         22    1    1    2    0    0  0.42004390587E+00  0.82571193790E-01  0.27641191417E+01  0.27970715963E+01  0.00000000000E+00 0. -1.
</event>
<event>
 5    1  0.6645559E+001  0.1470283E+01  0.7818608E-02  0.3507425E+00
         11   -1    0    0    0    0  0.00000000000E+00  0.00000000000E+00  0.39999999674E+01  0.40000000000E+01  0.51100000000E-03 0. -1.
    9000002   -1    0    0    0    0 -0.00000000000E+00 -0.00000000000E+00  0.00000000000E+00  0.93800000000E+00  0.93800000000E+00 0. -1.
         11    1    1    2    0    0  0.31743442213E+00 -0.22742162789E+00  0.10484522898E+01  0.11188108305E+01  0.51100000000E-03 0. -1.
    9000002    1    1    2    0    0  0.68381282458E-01  0.13189122929E+00  0.11695604712E+00  0.95686676874E+00  0.93800000000E+00 0. -1.
         22    1    1    2    0    0 -0.38581570459E+00  0.95530398608E-01  0.28345916304E+01  0.28623224008E+01  0.00000000000E+00 0. -1.
</event>
<event>
 5    1  0.6645559E+001  0.1599676E+01  0.7818608E-02  0.3353715E+00
         11   -1    0    0    0    0  0.00000000000E+00  0.00000000000E+00  0.39999999674E+01  0.40000000000E+01  0.51100000000E-03 0. -1.
    9000002   -1    0    0    0    0 -0.00000000000E+00 -0.00000000000E+00  0.00000000000E+00  0.93800000000E+00  0.93800000000E+00 0.  1.
         11    1    1    2    0    0  0.95787544071E-01  0.13760461845E-01  0.10736903276E+01  0.10780425709E+01  0.51100000000E-03 0. -1.
    9000002    1    1    2    0    0 -0.35200134658E+00 -0.49652084556E-01  0.84784744768E-01  0.10066790603E+01  0.93800000000E+00 0.  1.
         22    1    1    2    0    0  0.25621380251E+00  0.35891622711E-01  0.28415248950E+01  0.28532783688E+01  0.00000000000E+00 0. -1.
</event>
<event>
 5    1  0.6645559E+001  0.1599677E+01  0.7818608E-02  0.3353714E+00
         11   -1    0    0    0    0  0.00000000000E+00  0.00000000000E+00  0.39999999674E+01  0.40000000000E+01  0.51100000000E-03 0.  1.
    9000002   -1    0    0    0    0 -0.00000000000E+00 -0.00000000000E+00  0.00000000000E+00  0.93800000000E+00  0.93800000000E+00 0. -1.
         11    1    1    2    0    0 -0.69685671306E-01  0.70807992119E-01  0.99273810689E+00  0.99769688510E+00  0.51100000000E-03 0.  1.
    9000002    1    1    2    0    0  0.27294804752E+00 -0.27643598693E+00  0.10164915545E+00  0.10203401601E+01  0.93800000000E+00 0. -1.
         22    1    1    2    0    0 -0.20326237621E+00  0.20562799481E+00  0.29056127050E+01  0.29199629548E+01  0.00000000000E+00 0.  1.
</event>
<event>
 5    1  0.6645559E+001  0.1599548E+01  0.7818608E-02  0.3353854E+00
         11   -1    0    0    0    0  0.00000000000E+00  0.00000000000E+00  0.39999999674E+01  0.40000000000E+01  0.51100000000E-03 0. -1.
    9000002   -1    0    0    0    0 -0.00000000000E+00 -0.00000000000E+00  0.00000000000E+00  0.93800000000E+00  0.93800000000E+00 0.  1.
         11    1    1    2    0    0  0.61463625827E-01 -0.10875348532E+00  0.12500149515E+01  0.12562415126E+01  0.51100000000E-03 0. -1.
    9000002    1    1    2    0    0 -0.20405563629E+00  0.30200361794E+00  0.89324635360E-01  0.10102810393E+01  0.93800000000E+00 0.  1.
         22    1    1    2    0    0  0.14259201046E+00 -0.19325013262E+00  0.26606603805E+01  0.26714774480E+01  0.00000000000E+00 0. -1.
</event>
<event>
 5    1  0.7327570E+001  0.1599558E+01  0.7818608E-02  0.3353843E+00
         11   -1    0    0    0    0  0.00000000000E+00  0.00000000000E+00  0.39999999674E+01  0.40000000000E+01  0.51100000000E-03 0.  1.
    9000002   -1    0    0    0    0 -0.00000000000E+00 -0.00000000000E+00  0.00000000000E+00  0.93800000000E+00  0.93800000000E+00 0.  1.
         11    1    1    2    0    0 -0.65993657350E-01 -0.71966261026E-01  0.11615572983E+01  0.11656542900E+01  0.51100000000E-03 0.  1.
    9000002    1    1    2    0    0  0.20554529500E+00  0.27950408720E+00  0.80778899441E-01  0.10033646564E+01  0.93800000000E+00 0.  1.
         22    1    1    2    0    0 -0.13955163765E+00 -0.20753782618E+00  0.27576637697E+01  0.27689810536E+01  0.00000000000E+00 0.  1.
</event>
<event>
 5    1  0.6645559E+001  0.1598369E+01  0.7818608E-02  0.3355136E+00
         11   -1    0    0    0    0  0.00000000000E+00  0.00000000000E+00  0.39999999674E+01  0.40000000000E+01  0.51100000000E-03 0. -1.
    9000002   -1    0    0    0    0 -0.00000000000E+00 -0.00000000000E+00  0.00000000000E+00  0.93800000000E+00  0.93800000000E+00 0.  1.
         11    1    1    2    0    0  0.23327621854E-01 -0.22381483347E-01  0.27314606264E+00  0.27505297925E+00  0.51100000000E-03 0. -1.
    9000002    1    1    2    0    0 -0.56516043202E-01  0.47361555584E+00  0.15631288125E+00  0.10638531265E+01  0.93800000000E+00 0.  1.
         22    1    1    2    0    0  0.33188421349E-01 -0.45123407250E+00  0.35705410235E+01  0.35990938943E+01  0.00000000000E+00 0. -1.
</event>
<event>
 5    1  0.6645559E+001  0.1599677E+01  0.7818608E-02  0.3353715E+00
         11   -1    0    0    0    0  0.00000000000E+00  0.00000000000E+00  0.39999999674E+01  0.40000000000E+01  0.51100000000E-03 0.  1.
    9000002   -1    0    0    0    0 -0.00000000000E+00 -0.00000000000E+00  0.00000000000E+00  0.93800000000E+00  0.93800000000E+00 0. -1.
         11    1    1    2    0    0 -0.13235118235E+00 -0.38497552914E-01  0.61596320943E+00  0.63119714317E+00  0.51100000000E-03 0.  1.
    9000002    1    1    2    0    0  0.76272716562E+00  0.21939510581E+00  0.46299907674E+00  0.13130495370E+01  0.93800000000E+00 0. -1.
         22    1    1    2    0    0 -0.63037598326E+00 -0.18089755289E+00  0.29210376812E+01  0.29937533198E+01  0.00000000000E+00 0.  1.
</event>
<event>
 5    1  0.6645559E+001  0.1599220E+01  0.7818608E-02  0.3354211E+00
         11   -1    0    0    0    0  0.00000000000E+00  0.00000000000E+00  0.39999999674E+01  0.40000000000E+01  0.51100000000E-03 0. -1.
    9000002   -1    0    0    0    0 -0.00000000000E+00 -0.00000000000E+00  0.00000000000E+00  0.93800000000E+00  0.93800000000E+00 0. -1.
         11    1    1    2    0    0 -0.69852084753E-01  0.96844691710E-01  0.13449626622E+01  0.13502529510E+01  0.51100000000E-03 0. -1.
    9000002    1    1    2    0    0  0.26711041871E+00 -0.30809210390E+00  0.11264733355E+00  0.10289811184E+01  0.93800000000E+00 0. -1.
         22    1    1    2    0    0 -0.19725833396E+00  0.21124741219E+00  0.25423899716E+01  0.25587659306E+01  0.00000000000E+00 0. -1.
</event>
<event>
 5    1  0.6645559E+001  0.1599666E+01  0.7818608E-02  0.3353726E+00
         11   -1    0    0    0    0  0.00000000000E+00  0.00000000000E+00  0.39999999674E+01  0.40000000000E+01  0.51100000000E-03 0.  1.
    9000002   -1    0    0    0    0 -0.00000000000E+00 -0.00000000000E+00  0.00000000000E+00  0.93800000000E+00  0.93800000000E+00 0.  1.
         11    1    1    2    0    0  0.48648688086E-01  0.69686672821E-02  0.42234902306E+00  0.42519903054E+00  0.51100000000E-03 0.  1.
    9000002    1    1    2    0    0 -0.45688196918E+00 -0.82429383556E-01  0.14671248167E+00  0.10568369265E+01  0.93800000000E+00 0.  1.
         22    1    1    2    0    0  0.40823328109E+00  0.75460716274E-01  0.34309384626E+01  0.34559640429E+01  0.00000000000E+00 0.  1.
</event>
<event>
 5    1  0.6645559E+001  0.1590492E+01  0.7818608E-02  0.3363748E+00
         11   -1    0    0    0    0  0.00000000000E+00  0.00000000000E+00  0.39999999674E+01  0.40000000000E+01  0.51100000000E-03 0.  1.
    9000002   -1    0    0    0    0 -0.00000000000E+00 -0.00000000000E+00  0.00000000000E+00  0.93800000000E+00  0.93800000000E+00 0.  1.
         11    1    1    2    0    0 -0.56025172647E-01  0.74612519824E-01  0.10455281511E+01  0.10496833923E+01  0.51100000000E-03 0.  1.
    9000002    1    1    2    0    0  0.48728252035E+00 -0.48610514265E+00  0.34772972578E+00  0.12142909151E+01  0.93800000000E+00 0.  1.
         22    1    1    2    0    0 -0.43125734770E+00  0.41149262283E+00  0.26067420905E+01  0.26740256926E+01  0.00000000000E+00 0.  1.
</event>
<event>
 5    1  0.6645559E+001  0.1599670E+01  0.7818608E-02  0.3353721E+00
         11   -1    0    0    0    0  0.00000000000E+00  0.00000000000E+00  0.39999999674E+01  0.40000000000E+01  0.51100000000E-03 0.  1.
    9000002   -1    0    0    0    0 -0.00000000000E+00 -0.00000000000E+00  0.00000000000E+00  0.93800000000E+00  0.93800000000E+00 0. -1.
         11    1    1    2    0    0 -0.59787800966E-01  0.98504551146E-01  0.10977878767E+01  0.11038189213E+01  0.51100000000E-03 0.  1.
    9000002    1    1    2    0    0  0.21762262509E+00 -0.34094915926E+00  0.11042500522E+00  0.10274451897E+01  0.93800000000E+00 0. -1.
         22    1    1    2    0    0 -0.15783482413E+00  0.24244460812E+00  0.27917870855E+01  0.28067358890E+01  0.00000000000E+00 0.  1.
</event>
<event>
 5    1  0.6645559E+001  0.1599677E+01  0.7818608E-02  0.3353714E+00
         11   -1    0    0    0    0  0.00000000000E+00  0.00000000000E+00  0.39999999674E+01  0.40000000000E+01  0.51100000000E-03 0. -1.
    9000002   -1    0    0    0    0 -0.00000000000E+00 -0.00000000000E+00  0.00000000000E+00  0.93800000000E+00  0.93800000000E+00 0. -1.
         11    1    1    2    0    0 -0.63042486985E-01  0.94524098843E-01  0.89408902601E+00  0.90127942836E+00  0.51100000000E-03 0. -1.
    9000002    1    1    2    0    0  0.26835726843E+00 -0.40657524405E+00  0.16211417186E+00  0.10693194365E+01  0.93800000000E+00 0. -1.
         22    1    1    2    0    0 -0.20531478145E+00  0.31205114520E+00  0.29437967695E+01  0.29674011351E+01  0.00000000000E+00 0. -1.
</event>
<event>
 5    1  0.6645559E+001  0.1592257E+01  0.7818608E-02  0.3361811E+00
         11   -1    0    0    0    0  0.00000000000E+00  0.00000000000E+00  0.39999999674E+01  0.40000000000E+01  0.51100000000E-03 0.  1.
    9000002   -1    0    0    0    0 -0.00000000000E+00 -0.00000000000E+00  0.00000000000E+00  0.93800000000E+00  0.93800000000E+00 0.  1.
         11    1    1    2    0    0  0.79061467937E-01  0.17155014483E-01  0.54571323755E+00  0.55167763140E+00  0.51100000000E-03 0.  1.
    9000002    1    1    2    0    0 -0.10864590771E+00 -0.35975117175E+00  0.10107191022E+00  0.10155217230E+01  0.93800000000E+00 0.  1.
         22    1    1    2    0    0  0.29584439771E-01  0.34259615727E+00  0.33532148196E+01  0.33708006456E+01  0.00000000000E+00 0.  1.
</event>
<event>
 5    1  0.6645559E+001  0.1561874E+01  0.7818608E-02  0.3395813E+00
         11   -1    0    0    0    0  0.00000000000E+00  0.00000000000E+00  0.39999999674E+01  0.40000000000E+01  0.51100000000E-03 0.  1.
    9000002   -1    0    0    0    0 -0.00000000000E+00 -0.00000000000E+00  0.00000000000E+00  0.93800000000E+00  0.93800000000E+00 0.  1.
         11    1    1    2    0    0 -0.16862480451E+00  0.78509975813E-01  0.12646753335E+01  0.12782809165E+01  0.51100000000E-03 0.  1.
    9000002    1    1    2    0    0 -0.12371762427E+00 -0.40955966802E-01  0.39503788913E-01  0.94783331399E+00  0.93800000000E+00 0.  1.
         22    1    1    2    0    0  0.29234242878E+00 -0.37554009011E-01  0.26958208449E+01  0.27118857695E+01  0.00000000000E+00 0.  1.
</event>
<event>
 5    1  0.6645559E+001  0.1599677E+01  0.7818608E-02  0.3353714E+00
         11   -1    0    0    0    0  0.00000000000E+00  0.00000000000E+00  0.39999999674E+01  0.40000000000E+01  0.51100000000E-03 0. -1.
    9000002   -1    0    0    0    0 -0.00000000000E+00 -0.00000000000E+00  0.00000000000E+00  0.93800000000E+00  0.93800000000E+00 0.  1.
         11    1    1    2    0    0  0.10574753803E+00  0.81652887540E-01  0.14173003307E+01  0.14235835853E+01  0.51100000000E-03 0. -1.
    9000002    1    1    2    0    0 -0.29243097251E+00 -0.22606560825E+00  0.91811014638E-01  0.10123708783E+01  0.93800000000E+00 0.  1.
         22    1    1    2    0    0  0.18668343448E+00  0.14441272071E+00  0.24908886221E+01  0.25020455364E+01  0.00000000000E+00 0. -1.
</event>
<event>
 5    1  0.6645559E+001  0.1598783E+01  0.7818608E-02  0.3354685E+00
         11   -1    0    0    0    0  0.00000000000E+00  0.00000000000E+00  0.39999999674E+01  0.40000000000E+01  0.51100000000E-03 0. -1.
    9000002   -1    0    0    0    0 -0.00000000000E+00 -0.00000000000E+00  0.00000000000E+00  0.93800000000E+00  0.93800000000E+00 0.  1.
         11    1    1    2    0    0 -0.39186755276E-01 -0.94863969511E-01  0.56489381539E+00  0.57414289013E+00  0.51100000000E-03 0. -1.
    9000002    1    1    2    0    0  0.29836615008E+00  0.46657569163E+00  0.21285026455E+00  0.11098939006E+01  0.93800000000E+00 0.  1.
         22    1    1    2    0    0 -0.25917939481E+00 -0.37171172212E+00  0.32222558874E+01  0.32539632092E+01  0.00000000000E+00 0. -1.
</event>
<event>
 5    1  0.6645559E+001  0.1599635E+01  0.7818608E-02  0.3353760E+00
         11   -1    0    0    0    0  0.00000000000E+00  0.00000000000E+00  0.39999999674E+01  0.40000000000E+01  0.51100000000E-03 0. -1.
    9000002   -1    0    0    0    0 -0.00000000000E+00 -0.00000000000E+00  0.00000000000E+00  0.93800000000E+00  0.93800000000E+00 0. -1.
         11    1    1    2    0    0  0.51164378369E-01 -0.12228757622E+00  0.92933587533E+00  0.93874249675E+00  0.51100000000E-03 0. -1.
    9000002    1    1    2    0    0 -0.18717443887E+00  0.51581485486E+00  0.20795885995E+00  0.11064312552E+01  0.93800000000E+00 0. -1.
         22    1    1    2    0    0  0.13601006050E+00 -0.39352727864E+00  0.28627052321E+01  0.28928262480E+01  0.00000000000E+00 0. -1.
</event>
<event>
 5    1  0.6645559E+001  0.1597757E+01  0.7818608E-02  0.3355802E+00
         11   -1    0    0    0    0  0.00000000000E+00  0.00000000000E+00  0.39999999674E+01  0.40000000000E+01  0.51100000000E-03 0. -1.
    9000002   -1    0    0    0    0 -0.00000000000E+00 -0.00000000000E+00  0.00000000000E+00  0.93800000000E+00  0.93800000000E+00 0. -1.
         11    1    1    2    0    0  0.93795950707E-01  0.77223140499E-02  0.54700858805E+00  0.55504591794E+00  0.51100000000E-03 0. -1.
    9000002    1    1    2    0    0 -0.43417320137E+00  0.71960288584E-01  0.13300549678E+00  0.10446143375E+01  0.93800000000E+00 0. -1.
         22    1    1    2    0    0  0.34037725066E+00 -0.79682602633E-01  0.33199858825E+01  0.33383397446E+01  0.00000000000E+00 0. -1.
</event>
<event>
 5    1  0.6645559E+001  0.1599634E+01  0.7818608E-02  0.3353761E+00
         11   -1    0    0    0    0  0.00000000000E+00  0.00000000000E+00  0.39999999674E+01  0.40000000000E+01  0.51100000000E-03 0. -1.
    9000002   -1    0    0    0    0 -0.00000000000E+00 -0.00000000000E+00  0.00000000000E+00  0.93800000000E+00  0.93800000000E+00 0.  1.
         11    1    1    2    0    0  0.94129125648E-02 -0.39054457010E-01  0.33845460239E+00  0.34083079752E+00  0.51100000000E-03 0. -1.
    9000002    1    1    2    0    0 -0.60030964140E-01  0.42877581882E+00  0.12703923659E+00  0.10408820236E+01  0.93800000000E+00 0.  1.
         22    1    1    2    0    0  0.50618051575E-01 -0.38972136181E+00  0.35345061284E+01  0.35562871789E+01  0.00000000000E+00 0. -1.
</event>
<event>
 5    1  0.7642118E+001  0.1585992E+01  0.7818608E-02  0.3368709E+00
         11   -1    0    0    0    0  0.00000000000E+00  0.00000000000E+00  0.39999999674E+01  0.40000000000E+01  0.51100000000E-03 0.  1.
    9000002   -1    0    0    0    0 -0.00000000000E+00 -0.00000000000E+00  0.00000000000E+00  0.93800000000E+00  0.93800000000E+00 0.  1.
         11    1    1    2    0    0  0.60084016062E-01  0.31488244722E-01  0.51419186968E+00  0.51864741251E+00  0.51100000000E-03 0.  1.
    9000002    1    1    2    0    0  0.24935888839E+00 -0.85088382562E-01  0.56760419135E-01  0.97595370446E+00  0.93800000000E+00 0.  1.
         22    1    1    2    0    0 -0.30944290446E+00  0.53600137840E-01  0.34290476785E+01  0.34433988830E+01  0.00000000000E+00 0.  1.
</event>
<event>
 5    1  0.6645559E+001  0.1599674E+01  0.7818608E-02  0.3353717E+00
         11   -1    0    0    0    0  0.00000000000E+00  0.00000000000E+00  0.39999999674E+01  0.40000000000E+01  0.51100000000E-03 0. -1.
    9000002   -1    0    0    0    0 -0.00000000000E+00 -0.00000000000E+00  0.00000000000E+00  0.93800000000E+00  0.93800000000E+00 0. -1.
         11    1    1    2    0    0  0.13418378940E+00  0.48585446430E-01  0.13517595491E+01  0.13592718546E+01  0.51100000000E-03 0. -1.
    9000002    1    1    2    0    0 -0.38106514629E+00 -0.14276676476E+00  0.11179874783E+00  0.10285601367E+01  0.93800000000E+00 0. -1.
         22    1    1    2    0    0  0.24688135689E+00  0.94181318326E-01  0.25364416705E+01  0.25501680087E+01  0.00000000000E+00 0. -1.
</event>
<event>
 5    1  0.6645559E+001  0.1599600E+01  0.7818608E-02  0.3353797E+00
         11   -1    0    0    0    0  0.00000000000E+00  0.00000000000E+00  0.39999999674E+01  0.40000000000E+01  0.51100000000E-03 0. -1.
    9000002   -1    0    0    0    0 -0.00000000000E+00 -0.00000000000E+00  0.00000000000E+00  0.93800000000E+00  0.93800000000E+00 0. -1.
         11    1    1    2    0    0  0.10900342819E-02  0.38059207277E-02  0.27341729910E-01  0.27631585601E-01  0.51100000000E-03 0. -1.
    9000002    1    1    2    0    0  0.85303597887E-01 -0.51217145796E+00  0.18523548823E+00  0.10880039027E+01  0.93800000000E+00 0. -1.
         22    1    1    2    0    0 -0.86393632169E-01  0.50836553723E+00  0.37874227492E+01  0.38223645117E+01  0.00000000000E+00 0. -1.
</event>
<event>
 5    1  0.6645559E+001  0.1599604E+01  0.7818608E-02  0.3353794E+00
         11   -1    0    0    0    0  0.00000000000E+00  0.00000000000E+00  0.39999999674E+01  0.40000000000E+01  0.51100000000E-03 0. -1.
    9000002   -1    0    0    0    0 -0.00000000000E+00 -0.00000000000E+00  0.00000000000E+00  0.93800000000E+00  0.93800000000E+00 0.  1.
         11    1    1    2    0    0  0.60739504690E-01 -0.84334199046E-01  0.10681156619E+01  0.10731602270E+01  0.51100000000E-03 0. -1.
    9000002    1    1    2    0    0 -0.23580234840E+00  0.27795948395E+00  0.89292262512E-01  0.10102877463E+01  0.93800000000E+00 0.  1.
         22    1    1    2    0    0  0.17506284371E+00 -0.19362528491E+00  0.28425920429E+01  0.28545520266E+01  0.00000000000E+00 0. -1.
</event>
<event>
 5    1  0.6645559E+001  0.1597014E+01  0.7818608E-02  0.3356611E+00
         11   -1    0    0    0    0  0.00000000000E+00  0.00000000000E+00  0.39999999674E+01  0.40000000000E+01  0.51100000000E-03 0. -1.
    9000002   -1    0    0    0    0 -0.00000000000E+00 -0.00000000000E+00  0.00000000000E+00  0.93800000000E+00  0.93800000000E+00 0.  1.
         11    1    1    2    0    0 -0.79769946555E-02 -0.11536328439E+00  0.98065274913E+00  0.98744741396E+00  0.51100000000E-03 0. -1.
    9000002    1    1    2    0    0  0.23814880664E+00  0.40456662937E+00  0.15246621234E+00  0.10599429030E+01  0.93800000000E+00 0.  1.
         22    1    1    2    0    0 -0.23017181198E+00 -0.28920334498E+00  0.28668810059E+01  0.28906096830E+01  0.00000000000E+00 0. -1.
</event>
<event>
 5    1  0.6645559E+001  0.1544470E+01  0.7818608E-02  0.3415930E+00
         11   -1    0    0    0    0  0.00000000000E+00  0.00000000000E+00  0.39999999674E+01  0.40000000000E+01  0.51100000000E-03 0.  1.
    9000002   -1    0    0    0    0 -0.00000000000E+00 -0.00000000000E+00  0.00000000000E+00  0.93800000000E+00  0.93800000000E+00 0.  1.
         11    1    1    2    0    0  0.23044235670E-01 -0.37375756120E+00  0.77219869506E+00  0.85820559140E+00  0.51100000000E-03 0.  1.
    9000002    1    1    2    0    0 -0.25436686424E+00  0.63257466865E+00  0.39385971187E+00  0.12246724810E+01  0.93800000000E+00 0.  1.
         22    1    1    2    0    0  0.23132262857E+00 -0.25881710745E+00  0.28339415604E+01  0.28551219276E+01  0.00000000000E+00 0.  1.
</event>
<event>
 5    1  0.6645559E+001  0.1599675E+01  0.7818608E-02  0.3353716E+00
         11   -1    0    0    0    0  0.00000000000E+00  0.00000000000E+00  0.39999999674E+01  0.40000000000E+01  0.51100000000E-03 0.  1.
    9000002   -1    0    0    0    0 -0.00000000000E+00 -0.00000000000E+00  0.00000000000E+00  0.93800000000E+00  0.93800000000E+00 0.  1.
         11    1    1    2    0    0  0.17484597054E+00  0.16775321336E+00  0.14495041371E+01  0.14696172150E+01  0.51100000000E-03 0.  1.
    9000002    1    1    2    0    0 -0.44659728309E+00 -0.43462542776E+00  0.27233481401E+00  0.11586020225E+01  0.93800000000E+00 0. -1.
         22    1    1    2    0    0  0.27175131255E+00  0.26687221440E+00  0.22781610163E+01  0.23097807625E+01  0.00000000000E+00 0.  1.
</event>
<event>
 5    1  0.6645559E+001  0.1599618E+01  0.7818608E-02  0.3353778E+00
         11   -1    0    0    0    0  0.00000000000E+00  0.00000000000E+00  0.39999999674E+01  0.40000000000E+01  0.51100000000E-03 0.  1.
    9000002   -1    0    0    0    0 -0.00000000000E+00 -0.00000000000E+00  0.00000000000E+00  0.93800000000E+00  0.93800000000E+00 0.  1.
         11    1    1    2    0    0 -0.11599655592E+00 -0.11516150596E-01  0.10340081601E+01  0.10405580037E+01  0.51100000000E-03 0.  1.
    9000002    1    1    2    0    0  0.40698679464E+00  0.53463855128E-01  0.11385877260E+00  0.10301963186E+01  0.93800000000E+00 0.  1.
         22    1    1    2    0    0 -0.29099023872E+00 -0.41947704532E-01  0.28521330346E+01  0.28672456777E+01  0.00000000000E+00 0.  1.
</event>
<event>
 5    1  0.6645559E+001  0.1553578E+01  0.7818608E-02  0.3405343E+00
         11   -1    0    0    0    0  0.00000000000E+00  0.00000000000E+00  0.39999999674E+01  0.40000000000E+01  0.51100000000E-03 0. -1.
    9000002   -1    0    0    0    0 -0.00000000000E+00 -0.00000000000E+00  0.00000000000E+00  0.93800000000E+00  0.93800000000E+00 0.  1.
         11    1    1    2    0    0 -0.12046677801E+00  0.26817084217E+00  0.89379403073E-01  0.30727314235E+00  0.51100000000E-03 0. -1.
    9000002    1    1    2    0    0 -0.43750856275E+00 -0.46237743919E+00  0.62913527180E+00  0.12964805548E+01  0.93800000000E+00 0.  1.
         22    1    1    2    0    0  0.55797534076E+00  0.19420659702E+00  0.32814852925E+01  0.33342463028E+01  0.00000000000E+00 0. -1.
</event>
<event>
 5    1  0.6645559E+001  0.1599651E+01  0.7818608E-02  0.3353743E+00
         11   -1    0    0    0    0  0.00000000000E+00  0.00000000000E+00  0.39999999674E+01  0.40000000000E+01  0.51100000000E-03 0.  1.
    9000002   -1    0    0    0    0 -0.00000000000E+00 -0.00000000000E+00  0.00000000000E+00  0.93800000000E+00  0.93800000000E+00 0.  1.
         11    1    1    2    0    0 -0.31723792305E+00  0.13534709603E+00  0.13538379090E+01  0.13970812723E+01  0.51100000000E-03 0.  1.
    9000002    1    1    2    0    0  0.79592747437E+00 -0.35620957505E+00  0.57527800721E+00  0.14039852533E+01  0.93800000000E+00 0.  1.
         22    1    1    2    0    0 -0.47868955132E+00  0.22086247903E+00  0.20708840511E+01  0.21369334745E+01  0.00000000000E+00 0. -1.
</event>
<event>
 5    1  0.6645559E+001  0.1575558E+01  0.7818608E-02  0.3380327E+00
         11   -1    0    0    0    0  0.00000000000E+00  0.00000000000E+00  0.39999999674E+01  0.40000000000E+01  0.51100000000E-03 0. -1.
    9000002   -1    0    0    0    0 -0.00000000000E+00 -0.00000000000E+00  0.00000000000E+00  0.93800000000E+00  0.93800000000E+00 0.  1.
         11    1    1    2    0    0 -0.56696780481E-01 -0.12125672165E+00  0.73042850896E+00  0.74259261058E+00  0.51100000000E-03 0. -1.
    9000002    1    1    2    0    0  0.45932243010E+00 -0.11710504579E+00  0.17472732294E+00  0.10653939759E+01  0.93800000000E+00 0.  1.
         22    1    1    2    0    0 -0.40262564962E+00  0.23836176744E+00  0.30948441355E+01  0.31300134135E+01  0.00000000000E+00 0. -1.
</event>
<event>
 5    1  0.6645559E+001  0.1579721E+01  0.7818608E-02  0.3375672E+00
         11   -1    0    0    0    0  0.00000000000E+00  0.00000000000E+00  0.39999999674E+01  0.40000000000E+01  0.51100000000E-03 0.  1.
    9000002   -1    0    0    0    0 -0.00000000000E+00 -0.00000000000E+00  0.00000000000E+00  0.93800000000E+00  0.93800000000E+00 0.  1.
         11    1    1    2    0    0  0.14835470293E-01 -0.93020628277E-01  0.45601654153E+00  0.46564393665E+00  0.51100000000E-03 0.  1.
    9000002    1    1    2    0    0 -0.29428062612E+00 -0.12424985123E+00  0.84154750800E-01  0.99446726166E+00  0.93800000000E+00 0.  1.
         22    1    1    2    0    0  0.27944515582E+00  0.21727047951E+00  0.34598286750E+01  0.34778888017E+01  0.00000000000E+00 0.  1.
</event>
<event>
 5    1  0.6645559E+001  0.1599676E+01  0.7818608E-02  0.3353715E+00
         11   -1    0    0    0    0  0.00000000000E+00  0.00000000000E+00  0.39999999674E+01  0.40000000000E+01  0.51100000000E-03 0.  1.
    9000002   -1    0    0    0    0 -0.00000000000E+00 -0.00000000000E+00  0.00000000000E+00  0.93800000000E+00  0.93800000000E+00 0.  1.
         11    1    1    2    0    0  0.59752092328E-01 -0.51164233442E-01  0.61996104524E+00  0.62493203635E+00  0.51100000000E-03 0.  1.
    9000002    1    1    2    0    0 -0.37129096003E+00  0.31958784227E+00  0.16401434705E+00  0.10708585677E+01  0.93800000000E+00 0.  1.
         22    1    1    2    0    0  0.31153886770E+00 -0.26842360883E+00  0.32160245751E+01  0.32422093960E+01  0.00000000000E+00 0.  1.
</event>
<event>
 5    1  0.6645559E+001  0.1598491E+01  0.7818608E-02  0.3355003E+00
         11   -1    0    0    0    0  0.00000000000E+00  0.00000000000E+00  0.39999999674E+01  0.40000000000E+01  0.51100000000E-03 0.  1.
    9000002   -1    0    0    0    0 -0.00000000000E+00 -0.00000000000E+00  0.00000000000E+00  0.93800000000E+00  0.93800000000E+00 0. -1.
         11    1    1    2    0    0 -0.16791827992E-01  0.16657303430E+00  0.13008366150E+01  0.13115657442E+01  0.51100000000E-03 0.  1.
    9000002    1    1    2    0    0 -0.43404290686E-01 -0.42602278868E+00  0.12516866844E+00  0.10386965604E+01  0.93800000000E+00 0. -1.
         22    1    1    2    0    0  0.60196118678E-01  0.25944975439E+00  0.25739946839E+01  0.25877376955E+01  0.00000000000E+00 0.  1.
</event>
<event>
 5    1  0.6645559E+001  0.1599360E+01  0.7818608E-02  0.3354059E+00
         11   -1    0    0    0    0  0.00000000000E+00  0.00000000000E+00  0.39999999674E+01  0.40000000000E+01  0.51100000000E-03 0.  1.
    9000002   -1    0    0    0    0 -0.00000000000E+00 -0.00000000000E+00  0.00000000000E+00  0.93800000000E+00  0.93800000000E+00 0. -1.
         11    1    1    2    0    0  0.32495264054E+00  0.21674703411E+00  0.13764010832E+01  0.14307528432E+01  0.51100000000E-03 0.  1.
    9000002    1    1    2    0    0 -0.80064770864E+00 -0.55178623547E+00  0.74975154056E+00  0.15451460046E+01  0.93800000000E+00 0. -1.
         22    1    1    2    0    0  0.47569506810E+00  0.33503920136E+00  0.18738473436E+01  0.19621011521E+01  0.00000000000E+00 0.  1.
</event>
<event>
 5    1  0.6645559E+001  0.1599673E+01  0.7818608E-02  0.3353718E+00
         11   -1    0    0    0    0  0.00000000000E+00  0.00000000000E+00  0.39999999674E+01  0.40000000000E+01  0.51100000000E-03 0.  1.
    9000002   -1    0    0    0    0 -0.00000000000E+00 -0.00000000000E+00  0.00000000000E+00  0.93800000000E+00  0.93800000000E+00 0. -1.
         11    1    1    2    0    0 -0.11955236908E+00 -0.80898571318E-01  0.12425610001E+01  0.12509178422E+01  0.51100000000E-03 0.  1.
    9000002    1    1    2    0    0  0.36567950324E+00  0.25373217898E+00  0.13445363206E+00  0.10469113128E+01  0.93800000000E+00 0. -1.
         22    1    1    2    0    0 -0.24612713416E+00 -0.17283360766E+00  0.26229853352E+01  0.26401708450E+01  0.00000000000E+00 0.  1.
</event>
<event>
 5    1  0.6645559E+001  0.1599262E+01  0.7818608E-02  0.3354165E+00
         11   -1    0    0    0    0  0.00000000000E+00  0.00000000000E+00  0.39999999674E+01  0.40000000000E+01  0.51100000000E-03 0. -1.
    9000002   -1    0    0    0    0 -0.00000000000E+00 -0.00000000000E+00  0.00000000000E+00  0.93800000000E+00  0.93800000000E+00 0.  1.
         11    1    1    2    0    0 -0.51862451424E-03  0.23537433219E-01  0.20600961827E+00  0.20735116029E+00  0.51100000000E-03 0. -1.
    9000002    1    1    2    0    0 -0.15178125547E+00 -0.55667014417E+00  0.23157096449E+00  0.11253391980E+01  0.93800000000E+00 0.  1.
         22    1    1    2    0    0  0.15229987999E+00  0.53313271095E+00  0.35624193846E+01  0.36053096417E+01  0.00000000000E+00 0. -1.
</event>
<event>
 5    1  0.6645559E+001  0.1599443E+01  0.7818608E-02  0.3353968E+00
         11   -1    0    0    0    0  0.00000000000E+00  0.00000000000E+00  0.39999999674E+01  0.40000000000E+01  0.51100000000E-03 0.  1.
    9000002   -1    0    0    0    0 -0.00000000000E+00 -0.00000000000E+00  0.00000000000E+00  0.93800000000E+00  0.93800000000E+00 0.  1.
         11    1    1    2    0    0 -0.97041528269E-01 -0.82926510544E-01  0.10832875119E+01  0.10907822692E+01  0.51100000000E-03 0.  1.
    9000002    1    1    2    0    0  0.35896994123E+00  0.23860228944E+00  0.12604170470E+00  0.10399620101E+01  0.93800000000E+00 0.  1.
         22    1    1    2    0    0 -0.26192841296E+00 -0.15567577889E+00  0.27906707508E+01  0.28072557206E+01  0.00000000000E+00 0.  1.
</event>
<event>
 5    1  0.6645559E+001  0.1599677E+01  0.7818608E-02  0.3353714E+00
         11   -1    0    0    0    0  0.00000000000E+00  0.00000000000E+00  0.39999999674E+01  0.40000000000E+01  0.51100000000E-03 0.  1.
    9000002   -1    0    0    0    0 -0.00000000000E+00 -0.00000000000E+00  0.00000000000E+00  0.93800000000E+00  0.93800000000E+00 0. -1.
         11    1    1    2    0    0  0.10230985558E+00  0.61636326629E-01  0.12447699408E+01  0.12504874289E+01  0.51100000000E-03 0.  1.
    9000002    1    1    2    0    0 -0.32228944066E+00 -0.19480560852E+00  0.95383109559E-01  0.10152643233E+01  0.93800000000E+00 0. -1.
         22    1    1    2    0    0  0.21997958508E+00  0.13316928189E+00  0.26598469170E+01  0.26722482477E+01  0.00000000000E+00 0.  1.
</event>
<event>
 5    1  0.6645559E+001  0.1599661E+01  0.7818608E-02  0.3353732E+00
         11   -1    0    0    0    0  0.00000000000E+00  0.00000000000E+00  0.39999999674E+01  0.40000000000E+01  0.51100000000E-03 0.  1.
    9000002   -1    0    0    0    0 -0.00000000000E+00 -0.00000000000E+00  0.00000000000E+00  0.93800000000E+00  0.93800000000E+00 0. -1.
         11    1    1    2    0    0 -0.17606290339E+00 -0.31088127900E-01  0.14058507572E+01  0.14171736769E+01  0.51100000000E-03 0.  1.
    9000002    1    1    2    0    0  0.46861099276E+00  0.85328010076E-01  0.15472647885E+00  0.10633256393E+01  0.93800000000E+00 0. -1.
         22    1    1    2    0    0 -0.29254808937E+00 -0.54239882176E-01  0.24394227313E+01  0.24575006839E+01  0.00000000000E+00 0.  1.
</event>
<event>
 5    1  0.6645559E+001  0.1596837E+01  0.7818608E-02  0.3356803E+00
         11   -1    0    0    0    0  0.00000000000E+00  0.00000000000E+00  0.39999999674E+01  0.40000000000E+01  0.51100000000E-03 0.  1.
    9000002   -1    0    0    0    0 -0.00000000000E+00 -0.00000000000E+00  0.00000000000E+00  0.93800000000E+00  0.93800000000E+00 0. -1.
         11    1    1    2    0    0 -0.42699196582E-01  0.41001662270E-02  0.87906862899E+00  0.88011473590E+00  0.51100000000E-03 0.  1.
    9000002    1    1    2    0    0  0.40299224086E+00  0.84865900692E-01  0.11696516628E+00  0.10310818675E+01  0.93800000000E+00 0. -1.
         22    1    1    2    0    0 -0.36029304428E+00 -0.88966066919E-01  0.30039661721E+01  0.30268033966E+01  0.00000000000E+00 0.  1.
</event>
<event>
 5    1  0.6645559E+001  0.1286330E+01  0.7818608E-02  0.3808428E+00
         11   -1    0    0    0    0  0.00000000000E+00  0.00000000000E+00  0.39999999674E+01  0.40000000000E+01  0.51100000000E-03 0. -1.
    9000002   -1    0    0    0    0 -0.00000000000E+00 -0.00000000000E+00  0.00000000000E+00  0.93800000000E+00  0.93800000000E+00 0.  1.
         11    1    1    2    0    0 -0.65852192189E+00 -0.45376749696E+00  0.11482672896E+01  0.13993120068E+01  0.51100000000E-03 0. -1.
    9000002    1    1    2    0    0  0.42901926636E+00  0.17378238733E+00  0.50018099907E+00  0.11594321372E+01  0.93800000000E+00 0.  1.
         22    1    1    2    0    0  0.22950265552E+00  0.27998510963E+00  0.23515516787E+01  0.23792558560E+01  0.00000000000E+00 0. -1.
</event>
<event>
 5    1  0.6645559E+001  0.1599677E+01  0.7818608E-02  0.3353714E+00
         11   -1    0    0    0    0  0.00000000000E+00  0.00000000000E+00  0.39999999674E+01  0.40000000000E+01  0.51100000000E-03 0. -1.
    9000002   -1    0    0    0    0 -0.00000000000E+00 -0.00000000000E+00  0.00000000000E+00  0.93800000000E+00  0.93800000000E+00 0. -1.
         11    1    1    2    0    0 -0.10443642844E+00  0.11819166059E+00  0.14387056012E+01  0.14473252241E+01  0.51100000000E-03 0. -1.
    9000002    1    1    2    0    0  0.28129285914E+00 -0.31750830981E+00  0.12176213361E+00  0.10366326334E+01  0.93800000000E+00 0. -1.
         22    1    1    2    0    0 -0.17685643070E+00  0.19931664922E+00  0.24395322325E+01  0.24540421425E+01  0.00000000000E+00 0. -1.
</event>
<event>
 5    1  0.6645559E+001  0.1599509E+01  0.7818608E-02  0.3353896E+00
         11   -1    0    0    0    0  0.00000000000E+00  0.00000000000E+00  0.39999999674E+01  0.40000000000E+01  0.51100000000E-03 0. -1.
    9000002   -1    0    0    0    0 -0.00000000000E+00 -0.00000000000E+00  0.00000000000E+00  0.93800000000E+00  0.93800000000E+00 0. -1.
         11    1    1    2    0    0 -0.12190668649E+00 -0.16603572679E+00  0.14066934878E+01  0.14216947396E+01  0.51100000000E-03 0. -1.
    9000002    1    1    2    0    0  0.34306180854E+00  0.41036952639E+00  0.19720547234E+00  0.10976468243E+01  0.93800000000E+00 0. -1.
         22    1    1    2    0    0 -0.22115512205E+00 -0.24433379961E+00  0.23961010072E+01  0.24186584361E+01  0.00000000000E+00 0. -1.
</event>
<event>
 5    1  0.8276588E+001  0.1596617E+01  0.7818608E-02  0.3357044E+00
         11   -1    0    0    0    0  0.00000000000E+00  0.00000000000E+00  0.39999999674E+01  0.40000000000E+01  0.51100000000E-03 0.  1.
    9000002   -1    0    0    0    0 -0.00000000000E+00 -0.00000000000E+00  0.00000000000E+00  0.93800000000E+00  0.93800000000E+00 0. -1.
         11    1    1    2    0    0  0.17147418956E-01  0.89768207450E-02  0.11242080184E+01  0.11243747360E+01  0.51100000000E-03 0.  1.
    9000002    1    1    2    0    0 -0.26368893041E+00 -0.88139396957E-01  0.53839653850E-01  0.97981789820E+00  0.93800000000E+00 0. -1.
         22    1    1    2    0    0  0.24654151145E+00  0.79162576212E-01  0.28219522951E+01  0.28338073657E+01  0.00000000000E+00 0.  1.
</event>
<event>
 5    1  0.6645559E+001  0.1599429E+01  0.7818608E-02  0.3353984E+00
         11   -1    0    0    0    0  0.00000000000E+00  0.00000000000E+00  0.39999999674E+01  0.40000000000E+01  0.51100000000E-03 0. -1.
    9000002   -1    0    0    0    0 -0.00000000000E+00 -0.00000000000E+00  0.00000000000E+00  0.93800000000E+00  0.93800000000E+00 0. -1.
         11    1    1    2    0    0  0.12530091507E+00 -0.62465505514E-01  0.11583995677E+01  0.11668299269E+01  0.51100000000E-03 0. -1.
    9000002    1    1    2    0    0 -0.37313149378E+00  0.24511965036E+00  0.13551189290E+00  0.10476250416E+01  0.93800000000E+00 0. -1.
         22    1    1    2    0    0  0.24783057871E+00 -0.18265414485E+00  0.27060885067E+01  0.27235450315E+01  0.00000000000E+00 0.  1.
</event>
<event>
 5    1  0.6645559E+001  0.1599169E+01  0.7818608E-02  0.3354266E+00
         11   -1    0    0    0    0  0.00000000000E+00  0.00000000000E+00  0.39999999674E+01  0.40000000000E+01  0.51100000000E-03 0. -1.
    9000002   -1    0    0    0    0 -0.00000000000E+00 -0.00000000000E+00  0.00000000000E+00  0.93800000000E+00  0.93800000000E+00 0. -1.
         11    1    1    2    0    0 -0.38654981425E-01 -0.11586771316E-02  0.48919863402E+00  0.49072509083E+00  0.51100000000E-03 0. -1.
    9000002    1    1    2    0    0  0.37516505114E+00  0.13554893371E+00  0.10773854780E+00  0.10249750844E+01  0.93800000000E+00 0. -1.
         22    1    1    2    0    0 -0.33651006971E+00 -0.13439025658E+00  0.34030627855E+01  0.34222998247E+01  0.00000000000E+00 0. -1.
</event>
<event>
 5    1  0.6645559E+001  0.1595144E+01  0.7818608E-02  0.3358651E+00
         11   -1    0    0    0    0  0.00000000000E+00  0.00000000000E+00  0.39999999674E+01  0.40000000000E+01  0.51100000000E-03 0. -1.
    9000002   -1    0    0    0    0 -0.00000000000E+00 -0.00000000000E+00  0.00000000000E+00  0.93800000000E+00  0.93800000000E+00 0.  1.
         11    1    1    2    0    0  0.41018699853E-01 -0.90976369551E-01  0.41601754622E+00  0.42782016484E+00  0.51100000000E-03 0. -1.
    9000002    1    1    2    0    0 -0.23782980332E+00  0.39217699374E+00  0.14701440909E+00  0.10544301998E+01  0.93800000000E+00 0.  1.
         22    1    1    2    0    0  0.19681110347E+00 -0.30120062419E+00  0.34369680120E+01  0.34557496354E+01  0.00000000000E+00 0. -1.
</event>
<event>
 5    1  0.6645559E+001  0.1599607E+01  0.7818608E-02  0.3353790E+00
         11   -1    0    0    0    0  0.00000000000E+00  0.00000000000E+00  0.39999999674E+01  0.40000000000E+01  0.51100000000E-03 0.  1.
    9000002   -1    0    0    0    0 -0.00000000000E+00 -0.00000000000E+00  0.00000000000E+00  0.93800000000E+00  0.93800000000E+00 0.  1.
         11    1    1    2    0    0  0.60732636883E-01 -0.70146681967E-02  0.41456497931E+00  0.41904897320E+00  0.51100000000E-03 0.  1.
    9000002    1    1    2    0    0 -0.54172672033E+00  0.86588649663E-02  0.20250343388E+00  0.11019956698E+01  0.93800000000E+00 0.  1.
         22    1    1    2    0    0  0.48099408344E+00 -0.16441967696E-02  0.33829315542E+01  0.34169553570E+01  0.00000000000E+00 0.  1.
</event>
<event>
 5    1  0.6645559E+001  0.1599676E+01  0.7818608E-02  0.3353715E+00
         11   -1    0    0    0    0  0.00000000000E+00  0.00000000000E+00  0.39999999674E+01  0.40000000000E+01  0.51100000000E-03 0. -1.
    9000002   -1    0    0    0    0 -0.00000000000E+00 -0.00000000000E+00  0.00000000000E+00  0.93800000000E+00  0.93800000000E+00 0. -1.
         11    1    1    2    0    0  0.40286979336E-01  0.76964240930E-01  0.67094736823E+00  0.67654797845E+00  0.51100000000E-03 0. -1.
    9000002    1    1    2    0    0 -0.22704132874E+00 -0.43843608864E+00  0.16670339437E+00  0.10730368076E+01  0.93800000000E+00 0. -1.
         22    1    1    2    0    0  0.18675434940E+00  0.36147184771E+00  0.31623492048E+01  0.31884152139E+01  0.00000000000E+00 0. -1.
</event>
<event>
 5    1  0.6645559E+001  0.1598352E+01  0.7818608E-02  0.3355154E+00
         11   -1    0    0    0    0  0.00000000000E+00  0.00000000000E+00  0.39999999674E+01  0.40000000000E+01  0.51100000000E-03 0. -1.
    9000002   -1    0    0    0    0 -0.00000000000E+00 -0.00000000000E+00  0.00000000000E+00  0.93800000000E+00  0.93800000000E+00 0. -1.
         11    1    1    2    0    0  0.22065622349E-01  0.22363617980E+00  0.13433498801E+01  0.13620165909E+01  0.51100000000E-03 0. -1.
    9000002    1    1    2    0    0 -0.73498795991E-01 -0.51530782444E+00  0.18734984560E+00  0.10889849363E+01  0.93800000000E+00 0. -1.
         22    1    1    2    0    0  0.51433173642E-01  0.29167164464E+00  0.24693002417E+01  0.24869984727E+01  0.00000000000E+00 0.  1.
</event>
<event>
 5    1  0.6645559E+001  0.1547488E+01  0.7818608E-02  0.3412407E+00
         11   -1    0    0    0    0  0.00000000000E+00  0.00000000000E+00  0.39999999674E+01  0.40000000000E+01  0.51100000000E-03 0. -1.
    9000002   -1    0    0    0    0 -0.00000000000E+00 -0.00000000000E+00  0.00000000000E+00  0.93800000000E+00  0.93800000000E+00 0.  1.
         11    1    1    2    0    0 -0.14529255269E+00 -0.26408026347E+00  0.13915283646E+01  0.14237976549E+01  0.51100000000E-03 0. -1.
    9000002    1    1    2    0    0  0.22198235838E+00  0.25855131973E-01  0.73658516004E-01  0.96706475081E+00  0.93800000000E+00 0.  1.
         22    1    1    2    0    0 -0.76689805693E-01  0.23822513150E+00  0.25348130867E+01  0.25471375943E+01  0.00000000000E+00 0. -1.
</event>
<event>
 5    1  0.6645559E+001  0.1450142E+01  0.7818608E-02  0.3534015E+00
         11   -1    0    0    0    0  0.00000000000E+00  0.00000000000E+00  0.39999999674E+01  0.40000000000E+01  0.51100000000E-03 0. -1.
    9000002   -1    0    0    0    0 -0.00000000000E+00 -0.00000000000E+00  0.00000000000E+00  0.93800000000E+00  0.93800000000E+00 0. -1.
         11    1    1    2    0    0  0.53431327204E+00 -0.13727392895E+00  0.10102657972E+01  0.11510743010E+01  0.51100000000E-03 0. -1.
    9000002    1    1    2    0    0 -0.57328089129E+00 -0.33884590779E+00  0.50436675285E+00  0.12560642304E+01  0.93800000000E+00 0. -1.
         22    1    1    2    0    0  0.38967619253E-01  0.47611983673E+00  0.24853674173E+01  0.25308614686E+01  0.00000000000E+00 0. -1.
</event>
<event>
 5    1  0.6645559E+001  0.1599676E+01  0.7818608E-02  0.3353715E+00
         11   -1    0    0    0    0  0.00000000000E+00  0.00000000000E+00  0.39999999674E+01  0.40000000000E+01  0.51100000000E-03 0. -1.
    9000002   -1    0    0    0    0 -0.00000000000E+00 -0.00000000000E+00  0.00000000000E+00  0.93800000000E+00  0.93800000000E+00 0. -1.
         11    1    1    2    0    0 -0.19527162588E+00 -0.37619373793E-01  0.13826873197E+01  0.13969147112E+01  0.51100000000E-03 0. -1.
    9000002    1    1    2    0    0  0.53388351049E+00  0.10470121132E+00  0.20421486473E+00  0.11034227011E+01  0.93800000000E+00 0. -1.
         22    1    1    2    0    0 -0.33861188461E+00 -0.67081837527E-01  0.24130977830E+01  0.24376625877E+01  0.00000000000E+00 0. -1.
</event>
<event>
 5    1  0.6645559E+001  0.1588449E+01  0.7818608E-02  0.3365996E+00
         11   -1    0    0    0    0  0.00000000000E+00  0.00000000000E+00  0.39999999674E+01  0.40000000000E+01  0.51100000000E-03 0. -1.
    9000002   -1    0    0    0    0 -0.00000000000E+00 -0.00000000000E+00  0.00000000000E+00  0.93800000000E+00  0.93800000000E+00 0. -1.
         11    1    1    2    0    0 -0.15808294220E+00 -0.51994221839E-01  0.92022274151E+00  0.93514906343E+00  0.51100000000E-03 0. -1.
    9000002    1    1    2    0    0  0.23453520421E+00  0.37638140688E+00  0.14315892573E+00  0.10473815940E+01  0.93800000000E+00 0. -1.
         22    1    1    2    0    0 -0.76452262006E-01 -0.32438718504E+00  0.29366183001E+01  0.29554693426E+01  0.00000000000E+00 0.  1.
</event>
<event>
 5    1  0.6645559E+001  0.1598034E+01  0.7818608E-02  0.3355500E+00
         11   -1    0    0    0    0  0.00000000000E+00  0.00000000000E+00  0.39999999674E+01  0.40000000000E+01  0.51100000000E-03 0.  1.
    9000002   -1    0    0    0    0 -0.00000000000E+00 -0.00000000000E+00  0.00000000000E+00  0.93800000000E+00  0.93800000000E+00 0. -1.
         11    1    1    2    0    0 -0.97848970736E-01  0.40869631500E-01  0.50617013984E+00  0.51715879519E+00  0.51100000000E-03 0.  1.
    9000002    1    1    2    0    0  0.54039555035E+00 -0.14181166171E+00  0.21751961284E+00  0.11132370279E+01  0.93800000000E+00 0. -1.
         22    1    1    2    0    0 -0.44254657961E+00  0.10094203021E+00  0.32763102147E+01  0.33076041769E+01  0.00000000000E+00 0.  1.
</event>
<event>
 5    1  0.6645559E+001  0.1599677E+01  0.7818608E-02  0.3353714E+00
         11   -1    0    0    0    0  0.00000000000E+00  0.00000000000E+00  0.39999999674E+01  0.40000000000E+01  0.51100000000E-03 0. -1.
    9000002   -1    0    0    0    0 -0.00000000000E+00 -0.00000000000E+00  0.00000000000E+00  0.93800000000E+00  0.93800000000E+00 0.  1.
         11    1    1    2    0    0  0.53822106975E-01 -0.51851967513E-01  0.81684273602E+00  0.82025469353E+00  0.51100000000E-03 0. -1.
    9000002    1    1    2    0    0 -0.25636972875E+00  0.24636528636E+00  0.84819561738E-01  0.10067073310E+01  0.93800000000E+00 0.  1.
         22    1    1    2    0    0  0.20254762177E+00 -0.19451331885E+00  0.30983376696E+01  0.31110379755E+01  0.00000000000E+00 0. -1.
</event>
<event>
 5    1  0.6645559E+001  0.1452606E+01  0.7818608E-02  0.3530718E+00
         11   -1    0    0    0    0  0.00000000000E+00  0.00000000000E+00  0.39999999674E+01  0.40000000000E+01  0.51100000000E-03 0. -1.
    9000002   -1    0    0    0    0 -0.00000000000E+00 -0.00000000000E+00  0.00000000000E+00  0.93800000000E+00  0.93800000000E+00 0. -1.
         11    1    1    2    0    0 -0.36445442103E-01 -0.11620004076E+00 -0.68766893114E-02  0.12197651290E+00  0.51100000000E-03 0. -1.
    9000002    1    1    2    0    0 -0.12300048353E+00  0.41385460010E+00  0.27457174680E+00  0.10684747976E+01  0.93800000000E+00 0. -1.
         22    1    1    2    0    0  0.15944592563E+00 -0.29765455934E+00  0.37323049099E+01  0.37475486895E+01  0.00000000000E+00 0. -1.
</event>
<event>
 5    1  0.6645559E+001  0.1599645E+01  0.7818608E-02  0.3353749E+00
         11   -1    0    0    0    0  0.00000000000E+00  0.00000000000E+00  0.39999999674E+01  0.40000000000E+01  0.51100000000E-03 0.  1.
    9000002   -1    0    0    0    0 -0.00000000000E+00 -0.00000000000E+00  0.00000000000E+00  0.93800000000E+00  0.93800000000E+00 0.  1.
         11    1    1    2    0    0 -0.83139131622E-01 -0.49901155783E-01  0.84092626441E+00  0.84649836612E+00  0.51100000000E-03 0.  1.
    9000002    1    1    2    0    0  0.36990720554E+00  0.20799460807E+00  0.12189763646E+00  0.10367237489E+01  0.93800000000E+00 0.  1.
         22    1    1    2    0    0 -0.28676807392E+00 -0.15809345229E+00  0.30371760665E+01  0.30547778850E+01  0.00000000000E+00 0.  1.
</event>
<event>
 5    1  0.6645559E+001  0.1599676E+01  0.7818608E-02  0.3353715E+00
         11   -1    0    0    0    0  0.00000000000E+00  0.00000000000E+00  0.39999999674E+01  0.40000000000E+01  0.51100000000E-03 0.  1.
    9000002   -1    0    0    0    0 -0.00000000000E+00 -0.00000000000E+00  0.00000000000E+00  0.93800000000E+00  0.93800000000E+00 0. -1.
         11    1    1    2    0    0 -0.30319588040E-01  0.12125224196E+00  0.10324911859E+01  0.10400286985E+01  0.51100000000E-03 0.  1.
    9000002    1    1    2    0    0  0.10904714641E+00 -0.45269369416E+00  0.14761091904E+00  0.10575707278E+01  0.93800000000E+00 0. -1.
         22    1    1    2    0    0 -0.78727558365E-01  0.33144145220E+00  0.28198978624E+01  0.28404005737E+01  0.00000000000E+00 0.  1.
</event>
<event>
 5    1  0.6645559E+001  0.1599651E+01  0.7818608E-02  0.3353743E+00
         11   -1    0    0    0    0  0.00000000000E+00  0.00000000000E+00  0.39999999674E+01  0.40000000000E+01  0.51100000000E-03 0. -1.
    9000002   -1    0    0    0    0 -0.00000000000E+00 -0.00000000000E+00  0.00000000000E+00  0.93800000000E+00  0.93800000000E+00 0. -1.
         11    1    1    2    0    0 -0.32083876599E-01 -0.77857306109E-01  0.88063629224E+00  0.88465342117E+00  0.51100000000E-03 0. -1.
    9000002    1    1    2    0    0  0.12064316954E+00  0.33927758699E+00  0.87060765569E-01  0.10085076263E+01  0.93800000000E+00 0. -1.
         22    1    1    2    0    0 -0.88559292938E-01 -0.26142028088E+00  0.30323029095E+01  0.30448389525E+01  0.00000000000E+00 0. -1.
</event>
<event>
 5    1  0.6645559E+001  0.1598280E+01  0.7818608E-02  0.3355232E+00
         11   -1    0    0    0    0  0.00000000000E+00  0.00000000000E+00  0.39999999674E+01  0.40000000000E+01  0.51100000000E-03 0. -1.
    9000002   -1    0    0    0    0 -0.00000000000E+00 -0.00000000000E+00  0.00000000000E+00  0.93800000000E+00  0.93800000000E+00 0. -1.
         11    1    1    2    0    0 -0.55257479072E-01 -0.14966427870E-01  0.43927491894E+00  0.44298995303E+00  0.51100000000E-03 0. -1.
    9000002    1    1    2    0    0  0.27220529254E+00  0.25983366646E+00  0.96382637009E-01  0.10152550755E+01  0.93800000000E+00 0. -1.
         22    1    1    2    0    0 -0.21694781346E+00 -0.24486723859E+00  0.34643424114E+01  0.34797549715E+01  0.00000000000E+00 0. -1.
</event>
<event>
 5    1  0.6645559E+001  0.1599669E+01  0.7818608E-02  0.3353723E+00
         11   -1    0    0    0    0  0.00000000000E+00  0.00000000000E+00  0.39999999674E+01  0.40000000000E+01  0.51100000000E-03 0. -1.
    9000002   -1    0    0    0    0 -0.00000000000E+00 -0.00000000000E+00  0.00000000000E+00  0.93800000000E+00  0.93800000000E+00 0. -1.
         11    1    1    2    0    0 -0.22797397503E+00  0.11714276681E+00  0.13437547841E+01  0.13679808997E+01  0.51100000000E-03 0. -1.
    9000002    1    1    2    0    0  0.62558445740E+00 -0.31198568299E+00  0.34917602660E+00  0.12208435106E+01  0.93800000000E+00 0. -1.
         22    1    1    2    0    0 -0.39761048237E+00  0.19484291617E+00  0.23070691566E+01  0.23491755897E+01  0.00000000000E+00 0.  1.
</event>
<event>
 5    1  0.6645559E+001  0.1599674E+01  0.7818608E-02  0.3353717E+00
         11   -1    0    0    0    0  0.00000000000E+00  0.00000000000E+00  0.39999999674E+01  0.40000000000E+01  0.51100000000E-03 0.  1.
    9000002   -1    0    0    0    0 -0.00000000000E+00 -0.00000000000E+00  0.00000000000E+00  0.93800000000E+00  0.93800000000E+00 0. -1.
         11    1    1    2    0    0  0.24696754351E-01  0.13298776430E+00  0.12759904593E+01  0.12831397385E+01  0.51100000000E-03 0.  1.
    9000002    1    1    2    0    0 -0.78984794030E-01 -0.40064098907E+00  0.11260197288E+00  0.10292108647E+01  0.93800000000E+00 0. -1.
         22    1    1    2    0    0  0.54288039679E-01  0.26765322477E+00  0.26114075352E+01  0.26256493968E+01  0.00000000000E+00 0. -1.
</event>
<event>
 5    1  0.6645559E+001  0.1599570E+01  0.7818608E-02  0.3353830E+00
         11   -1    0    0    0    0  0.00000000000E+00  0.00000000000E+00  0.39999999674E+01  0.40000000000E+01  0.51100000000E-03 0. -1.
    9000002   -1    0    0    0    0 -0.00000000000E+00 -0.00000000000E+00  0.00000000000E+00  0.93800000000E+00  0.93800000000E+00 0. -1.
         11    1    1    2    0    0  0.18662862701E-01  0.27008937099E-02  0.18813302131E+00  0.18907641868E+00  0.51100000000E-03 0. -1.
    9000002    1    1    2    0    0 -0.44503706953E+00 -0.14496098665E+00  0.14928978789E+00  0.10588687934E+01  0.93800000000E+00 0. -1.
         22    1    1    2    0    0  0.42637420683E+00  0.14226009294E+00  0.36625771582E+01  0.36900547879E+01  0.00000000000E+00 0. -1.
</event>
<event>
 5    1  0.6645559E+001  0.1599407E+01  0.7818608E-02  0.3354007E+00
         11   -1    0    0    0    0  0.00000000000E+00  0.00000000000E+00  0.39999999674E+01  0.40000000000E+01  0.51100000000E-03 0. -1.
    9000002   -1    0    0    0    0 -0.00000000000E+00 -0.00000000000E+00  0.00000000000E+00  0.93800000000E+00  0.93800000000E+00 0.  1.
         11    1    1    2    0    0 -0.53257907192E-02 -0.23025432148E-01  0.15760133265E+00  0.15936428630E+00  0.51100000000E-03 0. -1.
    9000002    1    1    2    0    0  0.22748027888E+00  0.39798069079E+00  0.14313489183E+00  0.10537872199E+01  0.93800000000E+00 0.  1.
         22    1    1    2    0    0 -0.22215448816E+00 -0.37495525864E+00  0.36992637429E+01  0.37248484938E+01  0.00000000000E+00 0. -1.
</event>
<event>
 5    1  0.6645559E+001  0.1599672E+01  0.7818608E-02  0.3353720E+00
         11   -1    0    0    0    0  0.00000000000E+00  0.00000000000E+00  0.39999999674E+01  0.40000000000E+01  0.51100000000E-03 0. -1.
    9000002   -1    0    0    0    0 -0.00000000000E+00 -0.00000000000E+00  0.00000000000E+00  0.93800000000E+00  0.93800000000E+00 0. -1.
         11    1    1    2    0    0 -0.23648587807E-01 -0.54804205072E-02  0.26327842475E+00  0.26439568978E+00  0.51100000000E-03 0. -1.
    9000002    1    1    2    0    0  0.36609274033E+00  0.68894548657E-01  0.93291083517E-01  0.10135667613E+01  0.93800000000E+00 0. -1.
         22    1    1    2    0    0 -0.34244415252E+00 -0.63414128150E-01  0.36434304591E+01  0.36600375489E+01  0.00000000000E+00 0. -1.
</event>
<event>
 5    1  0.6645559E+001  0.1597586E+01  0.7818608E-02  0.3355988E+00
         11   -1    0    0    0    0  0.00000000000E+00  0.00000000000E+00  0.39999999674E+01  0.40000000000E+01  0.51100000000E-03 0.  1.
    9000002   -1    0    0    0    0 -0.00000000000E+00 -0.00000000000E+00  0.00000000000E+00  0.93800000000E+00  0.93800000000E+00 0. -1.
         11    1    1    2    0    0 -0.11983853753E-01  0.14060560095E+00  0.11670660882E+01  0.11755666987E+01  0.51100000000E-03 0.  1.
    9000002    1    1    2    0    0 -0.12671934557E+00 -0.44968426531E+00  0.15046681856E+00  0.10586585826E+01  0.93800000000E+00 0. -1.
         22    1    1    2    0    0  0.13870319932E+00  0.30907866436E+00  0.26824670606E+01  0.27037747187E+01  0.00000000000E+00 0. -1.
</event>
<event>
 5    1  0.6645559E+001  0.1598448E+01  0.7818608E-02  0.3355049E+00
         11   -1    0    0    0    0  0.00000000000E+00  0.00000000000E+00  0.39999999674E+01  0.40000000000E+01  0.51100000000E-03 0. -1.
    9000002   -1    0    0    0    0 -0.00000000000E+00 -0.00000000000E+00  0.00000000000E+00  0.93800000000E+00  0.93800000000E+00 0.  1.
         11    1    1    2    0    0 -0.22473304654E-01  0.38392567723E-02  0.98843727650E-01  0.10144029245E+00  0.51100000000E-03 0. -1.
    9000002    1    1    2    0    0  0.51747246023E+00  0.24253216828E+00  0.22771474297E+00  0.11217386522E+01  0.93800000000E+00 0.  1.
         22    1    1    2    0    0 -0.49499915557E+00 -0.24637142505E+00  0.36734414967E+01  0.37148210553E+01  0.00000000000E+00 0. -1.
</event>
<event>
 5    1  0.6645559E+001  0.1592882E+01  0.7818608E-02  0.3361126E+00
         11   -1    0    0    0    0  0.00000000000E+00  0.00000000000E+00  0.39999999674E+01  0.40000000000E+01  0.51100000000E-03 0. -1.
    9000002   -1    0    0    0    0 -0.00000000000E+00 -0.00000000000E+00  0.00000000000E+00  0.93800000000E+00  0.93800000000E+00 0. -1.
         11    1    1    2    0    0  0.23438126098E-01 -0.15534146876E-01  0.98475713380E-01  0.10241280545E+00  0.51100000000E-03 0. -1.
    9000002    1    1    2    0    0 -0.16324978267E+00 -0.36133518567E+00  0.11165783911E+00  0.10244633136E+01  0.93800000000E+00 0. -1.
         22    1    1    2    0    0  0.13981165657E+00  0.37686933254E+00  0.37898664149E+01  0.38111238809E+01  0.00000000000E+00 0. -1.
</event>
<event>
 5    1  0.6645559E+001  0.1594217E+01  0.7818608E-02  0.3359664E+00
         11   -1    0    0    0    0  0.00000000000E+00  0.00000000000E+00  0.39999999674E+01  0.40000000000E+01  0.51100000000E-03 0.  1.
    9000002   -1    0    0    0    0 -0.00000000000E+00 -0.00000000000E+00  0.00000000000E+00  0.93800000000E+00  0.93800000000E+00 0.  1.
         11    1    1    2    0    0  0.16344964407E+00  0.40507961878E-01  0.98786458873E+00  0.10021144585E+01  0.51100000000E-03 0.  1.
    9000002    1    1    2    0    0 -0.43354223146E+00  0.65997532475E-01  0.13508767933E+00  0.10442256566E+01  0.93800000000E+00 0.  1.
         22    1    1    2    0    0  0.27009258739E+00 -0.10650549435E+00  0.28770476993E+01  0.28916598849E+01  0.00000000000E+00 0.  1.
</event>
<event>
 5    1  0.6645559E+001  0.1539893E+01  0.7818608E-02  0.3421301E+00
         11   -1    0    0    0    0  0.00000000000E+00  0.00000000000E+00  0.39999999674E+01  0.40000000000E+01  0.51100000000E-03 0.  1.
    9000002   -1    0    0    0    0 -0.00000000000E+00 -0.00000000000E+00  0.00000000000E+00  0.93800000000E+00  0.93800000000E+00 0. -1.
         11    1    1    2    0    0  0.23952302831E+00  0.32884531203E-01  0.10197400655E+01  0.10480089388E+01  0.51100000000E-03 0.  1.
    9000002    1    1    2    0    0  0.72255319308E-01 -0.13628884863E+00  0.61264458186E-01  0.95257168511E+00  0.93800000000E+00 0. -1.
         22    1    1    2    0    0 -0.31177834761E+00  0.10340431743E+00  0.29189954437E+01  0.29374193761E+01  0.00000000000E+00 0.  1.
</event>
<event>
 5    1  0.6645559E+001  0.1560353E+01  0.7818608E-02  0.3397552E+00
         11   -1    0    0    0    0  0.00000000000E+00  0.00000000000E+00  0.39999999674E+01  0.40000000000E+01  0.51100000000E-03 0. -1.
    9000002   -1    0    0    0    0 -0.00000000000E+00 -0.00000000000E+00  0.00000000000E+00  0.93800000000E+00  0.93800000000E+00 0. -1.
         11    1    1    2    0    0 -0.80476789799E-01  0.16535332540E+00  0.66003838887E+00  0.68517820442E+00  0.51100000000E-03 0. -1.
    9000002    1    1    2    0    0  0.39679034894E+00  0.85994858298E-01  0.14489916189E+00  0.10323165521E+01  0.93800000000E+00 0. -1.
         22    1    1    2    0    0 -0.31631355914E+00 -0.25134818370E+00  0.31950624166E+01  0.32205052435E+01  0.00000000000E+00 0. -1.
</event>
<event>
 5    1  0.6645559E+001  0.1546366E+01  0.7818608E-02  0.3413716E+00
         11   -1    0    0    0    0  0.00000000000E+00  0.00000000000E+00  0.39999999674E+01  0.40000000000E+01  0.51100000000E-03 0.  1.
    9000002   -1    0    0    0    0 -0.00000000000E+00 -0.00000000000E+00  0.00000000000E+00  0.93800000000E+00  0.93800000000E+00 0.  1.
         11    1    1    2    0    0 -0.16061973610E+00 -0.39924709126E-01  0.39357002808E+00  0.42695469332E+00  0.51100000000E-03 0.  1.
    9000002    1    1    2    0    0  0.55530120700E-01 -0.28999603684E+00  0.10099050587E+00  0.98854659878E+00  0.93800000000E+00 0.  1.
         22    1    1    2    0    0  0.10508961540E+00  0.32992074596E+00  0.35054394334E+01  0.35224987079E+01  0.00000000000E+00 0.  1.
</event>
<event>
 5    1  0.6645559E+001  0.1599674E+01  0.7818608E-02  0.3353717E+00
         11   -1    0    0    0    0  0.00000000000E+00  0.00000000000E+00  0.39999999674E+01  0.40000000000E+01  0.51100000000E-03 0. -1.
    9000002   -1    0    0    0    0 -0.00000000000E+00 -0.00000000000E+00  0.00000000000E+00  0.93800000000E+00  0.93800000000E+00 0.  1.
         11    1    1    2    0    0  0.19626009990E+00  0.20045056374E-01  0.90570532381E+00  0.92694240695E+00  0.51100000000E-03 0. -1.
    9000002    1    1    2    0    0 -0.76758557853E+00 -0.74547919302E-01  0.43398843087E+00  0.12895483592E+01  0.93800000000E+00 0.  1.
         22    1    1    2    0    0  0.57132547863E+00  0.54502862928E-01  0.26603062127E+01  0.27215092338E+01  0.00000000000E+00 0. -1.
</event>
<event>
 5    1  0.6645559E+001  0.1599676E+01  0.7818608E-02  0.3353715E+00
         11   -1    0    0    0    0  0.00000000000E+00  0.00000000000E+00  0.39999999674E+01  0.40000000000E+01  0.51100000000E-03 0. -1.
    9000002   -1    0    0    0    0 -0.00000000000E+00 -0.00000000000E+00  0.00000000000E+00  0.93800000000E+00  0.93800000000E+00 0. -1.
         11    1    1    2    0    0 -0.81163546016E-01  0.39167950972E-01  0.83780224112E+00  0.84263545257E+00  0.51100000000E-03 0.  1.
    9000002    1    1    2    0    0  0.37652565229E+00 -0.18491871006E+00  0.11899914360E+00  0.10343941668E+01  0.93800000000E+00 0. -1.
         22    1    1    2    0    0 -0.29536210627E+00  0.14575075909E+00  0.30431985826E+01  0.30609703806E+01  0.00000000000E+00 0. -1.
</event>
<event>
 5    1  0.6645559E+001  0.1599662E+01  0.7818608E-02  0.3353731E+00
         11   -1    0    0    0    0  0.00000000000E+00  0.00000000000E+00  0.39999999674E+01  0.40000000000E+01  0.51100000000E-03 0.  1.
    9000002   -1    0    0    0    0 -0.00000000000E+00 -0.00000000000E+00  0.00000000000E+00  0.93800000000E+00  0.93800000000E+00 0.  1.
         11    1    1    2    0    0  0.12936577333E+00  0.16721162778E+00  0.13123584682E+01  0.13292780905E+01  0.51100000000E-03 0.  1.
    9000002    1    1    2    0    0 -0.35704768280E+00 -0.47987375870E+00  0.24952565174E+00  0.11401179426E+01  0.93800000000E+00 0.  1.
         22    1    1    2    0    0  0.22768190947E+00  0.31266213093E+00  0.24381158475E+01  0.24686039669E+01  0.00000000000E+00 0.  1.
</event>
<event>
 5    1  0.6645559E+001  0.1599674E+01  0.7818608E-02  0.3353717E+00
         11   -1    0    0    0    0  0.00000000000E+00  0.00000000000E+00  0.39999999674E+01  0.40000000000E+01  0.51100000000E-03 0. -1.
    9000002   -1    0    0    0    0 -0.00000000000E+00 -0.00000000000E+00  0.00000000000E+00  0.93800000000E+00  0.93800000000E+00 0.  1.
         11    1    1    2    0    0  0.71761793314E-01 -0.41324375932E-01  0.82759941993E+00  0.83173224058E+00  0.51100000000E-03 0. -1.
    9000002    1    1    2    0    0 -0.33191234767E+00  0.19089063351E+00  0.98678619044E-01  0.10179324685E+01  0.93800000000E+00 0.  1.
         22    1    1    2    0    0  0.26015055436E+00 -0.14956625758E+00  0.30737219284E+01  0.30883352910E+01  0.00000000000E+00 0. -1.
</event>
<event>
 5    1  0.6645559E+001  0.1595310E+01  0.7818608E-02  0.3358470E+00
         11   -1    0    0    0    0  0.00000000000E+00  0.00000000000E+00  0.39999999674E+01  0.40000000000E+01  0.51100000000E-03 0.  1.
    9000002   -1    0    0    0    0 -0.00000000000E+00 -0.00000000000E+00  0.00000000000E+00  0.93800000000E+00  0.93800000000E+00 0.  1.
         11    1    1    2    0    0  0.19849559876E-01  0.81716446942E-02  0.27447258541E+00  0.27531117316E+00  0.51100000000E-03 0.  1.
    9000002    1    1    2    0    0 -0.52786425552E-01 -0.63237190068E+00  0.28764651466E+00  0.11684456106E+01  0.93800000000E+00 0.  1.
         22    1    1    2    0    0  0.32936865676E-01  0.62420025599E+00  0.34378808673E+01  0.34942432163E+01  0.00000000000E+00 0.  1.
</event>
<event>
 5    1  0.6645559E+001  0.1599676E+01  0.7818608E-02  0.3353715E+00
         11   -1    0    0    0    0  0.00000000000E+00  0.00000000000E+00  0.39999999674E+01  0.40000000000E+01  0.51100000000E-03 0.  1.
    9000002   -1    0    0    0    0 -0.00000000000E+00 -0.00000000000E+00  0.00000000000E+00  0.93800000000E+00  0.93800000000E+00 0.  1.
         11    1    1    2    0    0  0.29969795196E-01  0.12537411822E+00  0.11826505897E+01  0.11896552175E+01  0.51100000000E-03 0.  1.
    9000002    1    1    2    0    0 -0.10233851705E+00 -0.41096945388E+00  0.12136747859E+00  0.10363122739E+01  0.93800000000E+00 0.  1.
         22    1    1    2    0    0  0.72368721856E-01  0.28559533566E+00  0.26959818991E+01  0.27120325086E+01  0.00000000000E+00 0.  1.
</event>
<event>
 5    1  0.6645559E+001  0.1572831E+01  0.7818608E-02  0.3383390E+00
         11   -1    0    0    0    0  0.00000000000E+00  0.00000000000E+00  0.39999999674E+01  0.40000000000E+01  0.51100000000E-03 0. -1.
    9000002   -1    0    0    0    0 -0.00000000000E+00 -0.00000000000E+00  0.00000000000E+00  0.93800000000E+00  0.93800000000E+00 0. -1.
         11    1    1    2    0    0 -0.96753944778E-01  0.61751304114E-02  0.10565365186E+01  0.10609755578E+01  0.51100000000E-03 0. -1.
    9000002    1    1    2    0    0 -0.27918210500E+00  0.96732800016E-01  0.79480787256E-01  0.98664131167E+00  0.93800000000E+00 0. -1.
         22    1    1    2    0    0  0.37593604977E+00 -0.10290793043E+00  0.28639826615E+01  0.28903831305E+01  0.00000000000E+00 0. -1.
</event>
<event>
 5    1  0.6645559E+001  0.1543923E+01  0.7818608E-02  0.3416571E+00
         11   -1    0    0    0    0  0.00000000000E+00  0.00000000000E+00  0.39999999674E+01  0.40000000000E+01  0.51100000000E-03 0. -1.
    9000002   -1    0    0    0    0 -0.00000000000E+00 -0.00000000000E+00  0.00000000000E+00  0.93800000000E+00  0.93800000000E+00 0. -1.
         11    1    1    2    0    0 -0.37877643512E-01  0.16377293379E+00  0.11120113833E+01  0.11246447739E+01  0.51100000000E-03 0. -1.
    9000002    1    1    2    0    0 -0.91108478614E-01  0.29696713083E+00  0.10969693447E+00  0.99416681151E+00  0.93800000000E+00 0. -1.
         22    1    1    2    0    0  0.12898612213E+00 -0.46074006463E+00  0.27782916496E+01  0.28191884146E+01  0.00000000000E+00 0. -1.
</event>
<event>
 5    1  0.6645559E+001  0.1599676E+01  0.7818608E-02  0.3353715E+00
         11   -1    0    0    0    0  0.00000000000E+00  0.00000000000E+00  0.39999999674E+01  0.40000000000E+01  0.51100000000E-03 0.  1.
    9000002   -1    0    0    0    0 -0.00000000000E+00 -0.00000000000E+00  0.00000000000E+00  0.93800000000E+00  0.93800000000E+00 0.  1.
         11    1    1    2    0    0 -0.12417168703E+00 -0.44518971667E-01  0.13465356674E+01  0.13529815636E+01  0.51100000000E-03 0.  1.
    9000002    1    1    2    0    0  0.35946150680E+00  0.12574955275E+00  0.97589544293E-01  0.10170512495E+01  0.93800000000E+00 0.  1.
         22    1    1    2    0    0 -0.23528981977E+00 -0.81230581087E-01  0.25558747557E+01  0.25679671869E+01  0.00000000000E+00 0.  1.
</event>
<event>
 5    1  0.6645559E+001  0.1596944E+01  0.7818608E-02  0.3356687E+00
         11   -1    0    0    0    0  0.00000000000E+00  0.00000000000E+00  0.39999999674E+01  0.40000000000E+01  0.51100000000E-03 0.  1.
    9000002   -1    0    0    0    0 -0.00000000000E+00 -0.00000000000E+00  0.00000000000E+00  0.93800000000E+00  0.93800000000E+00 0.  1.
         11    1    1    2    0    0 -0.24080647863E-01 -0.37512626379E-03  0.86365880761E+00  0.86399468482E+00  0.51100000000E-03 0.  1.
    9000002    1    1    2    0    0  0.23314961370E+00  0.20460429828E+00  0.66406318972E-01  0.99018960833E+00  0.93800000000E+00 0.  1.
         22    1    1    2    0    0 -0.20906896584E+00 -0.20422917201E+00  0.30699348408E+01  0.30838157069E+01  0.00000000000E+00 0.  1.
</event>
<event>
 5    1  0.6645559E+001  0.1599676E+01  0.7818608E-02  0.3353715E+00
         11   -1    0    0    0    0  0.00000000000E+00  0.00000000000E+00  0.39999999674E+01  0.40000000000E+01  0.51100000000E-03 0.  1.
    9000002   -1    0    0    0    0 -0.00000000000E+00 -0.00000000000E+00  0.00000000000E+00  0.93800000000E+00  0.93800000000E+00 0. -1.
         11    1    1    2    0    0 -0.12397268140E+00 -0.67294421137E-01  0.13991104530E+01  0.14062034297E+01  0.51100000000E-03 0.  1.
    9000002    1    1    2    0    0  0.34246484997E+00  0.18517308422E+00  0.10210105118E+00  0.10207055742E+01  0.93800000000E+00 0. -1.
         22    1    1    2    0    0 -0.21849216857E+00 -0.11787866309E+00  0.24987884632E+01  0.25110909961E+01  0.00000000000E+00 0.  1.
</event>
<event>
 5    1  0.6645559E+001  0.1598823E+01  0.7818608E-02  0.3354642E+00
         11   -1    0    0    0    0  0.00000000000E+00  0.00000000000E+00  0.39999999674E+01  0.40000000000E+01  0.51100000000E-03 0. -1.
    9000002   -1    0    0    0    0 -0.00000000000E+00 -0.00000000000E+00  0.00000000000E+00  0.93800000000E+00  0.93800000000E+00 0. -1.
         11    1    1    2    0    0 -0.34853976177E-01  0.88076594040E-01  0.68277147590E+00  0.68931084099E+00  0.51100000000E-03 0. -1.
    9000002    1    1    2    0    0  0.24977983812E+00 -0.35609339122E+00  0.12894722679E+00  0.10419519462E+01  0.93800000000E+00 0. -1.
         22    1    1    2    0    0 -0.21492586194E+00  0.26801679718E+00  0.31882812647E+01  0.32067372129E+01  0.00000000000E+00 0. -1.
</event>
<event>
 5    1  0.7830366E+001  0.1599484E+01  0.7818608E-02  0.3353924E+00
         11   -1    0    0    0    0  0.00000000000E+00  0.00000000000E+00  0.39999999674E+01  0.40000000000E+01  0.51100000000E-03 0.  1.
    9000002   -1    0    0    0    0 -0.00000000000E+00 -0.00000000000E+00  0.00000000000E+00  0.93800000000E+00  0.93800000000E+00 0. -1.
         11    1    1    2    0    0 -0.10937294203E+00  0.69460340710E-01  0.14374199844E+01  0.14432476060E+01  0.51100000000E-03 0.  1.
    9000002    1    1    2    0    0  0.29712086698E+00 -0.23253899016E+00  0.95909376540E-01  0.10155775697E+01  0.93800000000E+00 0. -1.
         22    1    1    2    0    0 -0.18774792495E+00  0.16307864945E+00  0.24666706064E+01  0.24791748244E+01  0.00000000000E+00 0.  1.
</event>
<event>
 5    1  0.6645559E+001  0.1592579E+01  0.7818608E-02  0.3361458E+00
         11   -1    0    0    0    0  0.00000000000E+00  0.00000000000E+00  0.39999999674E+01  0.40000000000E+01  0.51100000000E-03 0.  1.
    9000002   -1    0    0    0    0 -0.00000000000E+00 -0.00000000000E+00  0.00000000000E+00  0.93800000000E+00  0.93800000000E+00 0. -1.
         11    1    1    2    0    0 -0.61734166855E-01  0.58689874524E-01  0.56789361864E+00  0.57424649058E+00  0.51100000000E-03 0.  1.
    9000002    1    1    2    0    0 -0.35919989056E-01 -0.57147462318E+00  0.23434962658E+00  0.11236713212E+01  0.93800000000E+00 0. -1.
         22    1    1    2    0    0  0.97654155911E-01  0.51278474865E+00  0.31977567221E+01  0.32400821882E+01  0.00000000000E+00 0.  1.
</event>
<event>
 5    1  0.6645559E+001  0.1566494E+01  0.7818608E-02  0.3390553E+00
         11   -1    0    0    0    0  0.00000000000E+00  0.00000000000E+00  0.39999999674E+01  0.40000000000E+01  0.51100000000E-03 0. -1.
    9000002   -1    0    0    0    0 -0.00000000000E+00 -0.00000000000E+00  0.00000000000E+00  0.93800000000E+00  0.93800000000E+00 0. -1.
         11    1    1    2    0    0  0.77162606579E-01 -0.22886927658E-01  0.11354329665E+00  0.13917694006E+00  0.51100000000E-03 0. -1.
    9000002    1    1    2    0    0 -0.56058003845E-02  0.38585219269E+00  0.12813651812E+00  0.10223386459E+01  0.93800000000E+00 0. -1.
         22    1    1    2    0    0 -0.71556806195E-01 -0.36296526503E+00  0.37583201526E+01  0.37764844140E+01  0.00000000000E+00 0. -1.
</event>
<event>
 5    1  0.6645559E+001  0.1546009E+01  0.7818608E-02  0.3414133E+00
         11   -1    0    0    0    0  0.00000000000E+00  0.00000000000E+00  0.39999999674E+01  0.40000000000E+01  0.51100000000E-03 0. -1.
    9000002   -1    0    0    0    0 -0.00000000000E+00 -0.00000000000E+00  0.00000000000E+00  0.93800000000E+00  0.93800000000E+00 0.  1.
         11    1    1    2    0    0 -0.15631037310E+00  0.94825425870E-01  0.12571292954E+01  0.12703539351E+01  0.51100000000E-03 0. -1.
    9000002    1    1    2    0    0 -0.19118438428E+00  0.14912358877E+00  0.81092167809E-01  0.97221872704E+00  0.93800000000E+00 0.  1.
         22    1    1    2    0    0  0.34749475738E+00 -0.24394901464E+00  0.26617785042E+01  0.26954273378E+01  0.00000000000E+00 0. -1.
</event>
<event>
 5    1  0.6645559E+001  0.1593251E+01  0.7818608E-02  0.3360721E+00
         11   -1    0    0    0    0  0.00000000000E+00  0.00000000000E+00  0.39999999674E+01  0.40000000000E+01  0.51100000000E-03 0. -1.
    9000002   -1    0    0    0    0 -0.00000000000E+00 -0.00000000000E+00  0.00000000000E+00  0.93800000000E+00  0.93800000000E+00 0. -1.
         11    1    1    2    0    0 -0.20226477379E-01  0.73287711746E-01  0.86370759390E+00  0.86704744274E+00  0.51100000000E-03 0. -1.
    9000002    1    1    2    0    0 -0.24383733244E+00 -0.19455168153E+00  0.70067151766E-01  0.99098961005E+00  0.93800000000E+00 0. -1.
         22    1    1    2    0    0  0.26406380982E+00  0.12126396978E+00  0.30662252217E+01  0.30799629472E+01  0.00000000000E+00 0.  1.
</event>
<event>
 5    1  0.6645559E+001  0.1599647E+01  0.7818608E-02  0.3353747E+00
         11   -1    0    0    0    0  0.00000000000E+00  0.00000000000E+00  0.39999999674E+01  0.40000000000E+01  0.51100000000E-03 0.  1.
    9000002   -1    0    0    0    0 -0.00000000000E+00 -0.00000000000E+00  0.00000000000E+00  0.93800000000E+00  0.93800000000E+00 0.  1.
         11    1    1    2    0    0 -0.10406625667E+00 -0.85296772178E-01  0.68758722406E+00  0.70062955757E+00  0.51100000000E-03 0.  1.
    9000002    1    1    2    0    0  0.55623109546E+00  0.47438784601E+00  0.38530448876E+00  0.12500961599E+01  0.93800000000E+00 0.  1.
         22    1    1    2    0    0 -0.45216483879E+00 -0.38909107383E+00  0.29271082545E+01  0.29872742825E+01  0.00000000000E+00 0.  1.
</event>
<event>
 5    1  0.6645559E+001  0.1527004E+01  0.7818608E-02  0.3436612E+00
         11   -1    0    0    0    0  0.00000000000E+00  0.00000000000E+00  0.39999999674E+01  0.40000000000E+01  0.51100000000E-03 0. -1.
    9000002   -1    0    0    0    0 -0.00000000000E+00 -0.00000000000E+00  0.00000000000E+00  0.93800000000E+00  0.93800000000E+00 0. -1.
         11    1    1    2    0    0 -0.48137037120E-01  0.30736782882E-01  0.91791621463E-02  0.57848442532E-01  0.51100000000E-03 0. -1.
    9000002    1    1    2    0    0 -0.35312468858E+00  0.59826756968E-01  0.14743964567E+00  0.10148195582E+01  0.93800000000E+00 0. -1.
         22    1    1    2    0    0  0.40126172570E+00 -0.90563539851E-01  0.38433811595E+01  0.38653319993E+01  0.00000000000E+00 0. -1.
</event>
<event>
 5    1  0.6645559E+001  0.1599617E+01  0.7818608E-02  0.3353779E+00
         11   -1    0    0    0    0  0.00000000000E+00  0.00000000000E+00  0.39999999674E+01  0.40000000000E+01  0.51100000000E-03 0. -1.
    9000002   -1    0    0    0    0 -0.00000000000E+00 -0.00000000000E+00  0.00000000000E+00  0.93800000000E+00  0.93800000000E+00 0.  1.
         11    1    1    2    0    0 -0.87448549957E-02 -0.83157614259E-01  0.10143470898E+01  0.10177877681E+01  0.51100000000E-03 0. -1.
    9000002    1    1    2    0    0  0.51293664660E-01  0.34746073275E+00  0.82773725027E-01  0.10050151692E+01  0.93800000000E+00 0.  1.
         22    1    1    2    0    0 -0.42548809665E-01 -0.26430311849E+00  0.29028791526E+01  0.29151970626E+01  0.00000000000E+00 0. -1.
</event>
<event>
 5    1  0.6645559E+001  0.1599672E+01  0.7818608E-02  0.3353719E+00
         11   -1    0    0    0    0  0.00000000000E+00  0.00000000000E+00  0.39999999674E+01  0.40000000000E+01  0.51100000000E-03 0.  1.
    9000002   -1    0    0    0    0 -0.00000000000E+00 -0.00000000000E+00  0.00000000000E+00  0.93800000000E+00  0.93800000000E+00 0.  1.
         11    1    1    2    0    0 -0.64911147917E-01  0.14609084445E-01  0.60380291055E+00  0.60745789845E+00  0.51100000000E-03 0.  1.
    9000002    1    1    2    0    0  0.42644247445E+00 -0.86931796909E-01  0.12837396835E+00  0.10419856991E+01  0.93800000000E+00 0.  1.
         22    1    1    2    0    0 -0.36153132653E+00  0.72322712464E-01  0.32678230885E+01  0.32885564025E+01  0.00000000000E+00 0.  1.
</event>
<event>
 5    1  0.6645559E+001  0.1599635E+01  0.7818608E-02  0.3353760E+00
         11   -1    0    0    0    0  0.00000000000E+00  0.00000000000E+00  0.39999999674E+01  0.40000000000E+01  0.51100000000E-03 0. -1.
    9000002   -1    0    0    0    0 -0.00000000000E+00 -0.00000000000E+00  0.00000000000E+00  0.93800000000E+00  0.93800000000E+00 0.  1.
         11    1    1    2    0    0 -0.49244147467E-01  0.12274687983E-01  0.48622225879E+00  0.48886398935E+00  0.51100000000E-03 0. -1.
    9000002    1    1    2    0    0  0.35877583581E+00 -0.11768373769E+00  0.95932976498E-01  0.10156853344E+01  0.93800000000E+00 0.  1.
         22    1    1    2    0    0 -0.30953168834E+00  0.10540904971E+00  0.34178447321E+01  0.34334506763E+01  0.00000000000E+00 0. -1.
</event>
<event>
 5    1  0.6645559E+001  0.1485760E+01  0.7818608E-02  0.3487523E+00
         11   -1    0    0    0    0  0.00000000000E+00  0.00000000000E+00  0.39999999674E+01  0.40000000000E+01  0.51100000000E-03 0. -1.
    9000002   -1    0    0    0    0 -0.00000000000E+00 -0.00000000000E+00  0.00000000000E+00  0.93800000000E+00  0.93800000000E+00 0. -1.
         11    1    1    2    0    0 -0.11018802775E+00 -0.21677304959E+00  0.94164764954E-01  0.26076660171E+00  0.51100000000E-03 0. -1.
    9000002    1    1    2    0    0  0.48295680655E+00  0.21239681677E+00  0.39459517827E+00  0.11462587140E+01  0.93800000000E+00 0. -1.
         22    1    1    2    0    0 -0.37276877880E+00  0.43762328156E-02  0.35112400241E+01  0.35309746843E+01  0.00000000000E+00 0. -1.
</event>
<event>
 5    1  0.6645559E+001  0.1599677E+01  0.7818608E-02  0.3353714E+00
         11   -1    0    0    0    0  0.00000000000E+00  0.00000000000E+00  0.39999999674E+01  0.40000000000E+01  0.51100000000E-03 0.  1.
    9000002   -1    0    0    0    0 -0.00000000000E+00 -0.00000000000E+00  0.00000000000E+00  0.93800000000E+00  0.93800000000E+00 0. -1.
         11    1    1    2    0    0  0.14778638795E+00  0.66359070430E-01  0.13596523818E+01  0.13692695875E+01  0.51100000000E-03 0.  1.
    9000002    1    1    2    0    0 -0.42025799186E+00 -0.18738874387E+00  0.14402293961E+00  0.10546648416E+01  0.93800000000E+00 0. -1.
         22    1    1    2    0    0  0.27247160391E+00  0.12102967344E+00  0.24963246460E+01  0.25140655709E+01  0.00000000000E+00 0.  1.
</event>
<event>
 5    1  0.6645559E+001  0.1599619E+01  0.7818608E-02  0.3353777E+00
         11   -1    0    0    0    0  0.00000000000E+00  0.00000000000E+00  0.39999999674E+01  0.40000000000E+01  0.51100000000E-03 0.  1.
    9000002   -1    0    0    0    0 -0.00000000000E+00 -0.00000000000E+00  0.00000000000E+00  0.93800000000E+00  0.93800000000E+00 0.  1.
         11    1    1    2    0    0  0.22269580068E+00  0.44375306904E-01  0.10169517725E+01  0.10419950846E+01  0.51100000000E-03 0.  1.
    9000002    1    1    2    0    0 -0.76034768556E+00 -0.13413955437E+00  0.43518528525E+00  0.12904852791E+01  0.93800000000E+00 0.  1.
         22    1    1    2    0    0  0.53765188488E+00  0.89764247469E-01  0.25478629096E+01  0.26055196364E+01  0.00000000000E+00 0.  1.
</event>
<event>
 5    1  0.6645559E+001  0.1597942E+01  0.7818608E-02  0.3355600E+00
         11   -1    0    0    0    0  0.00000000000E+00  0.00000000000E+00  0.39999999674E+01  0.40000000000E+01  0.51100000000E-03 0.  1.
    9000002   -1    0    0    0    0 -0.00000000000E+00 -0.00000000000E+00  0.00000000000E+00  0.93800000000E+00  0.93800000000E+00 0.  1.
         11    1    1    2    0    0  0.25733849285E-01 -0.23210520382E-01  0.91431711379E+00  0.91497377282E+00  0.51100000000E-03 0.  1.
    9000002    1    1    2    0    0 -0.29320332665E+00  0.10102104436E+00  0.65586371754E-01  0.99011060712E+00  0.93800000000E+00 0.  1.
         22    1    1    2    0    0  0.26746947736E+00 -0.77810523979E-01  0.30200964818E+01  0.30329156201E+01  0.00000000000E+00 0.  1.
</event>
<event>
 5    1  0.6645559E+001  0.1599624E+01  0.7818608E-02  0.3353772E+00
         11   -1    0    0    0    0  0.00000000000E+00  0.00000000000E+00  0.39999999674E+01  0.40000000000E+01  0.51100000000E-03 0. -1.
    9000002   -1    0    0    0    0 -0.00000000000E+00 -0.00000000000E+00  0.00000000000E+00  0.93800000000E+00  0.93800000000E+00 0.  1.
         11    1    1    2    0    0 -0.35191258727E-01 -0.81410854875E-01  0.81669352079E+00  0.82149541691E+00  0.51100000000E-03 0. -1.
    9000002    1    1    2    0    0  0.13425408659E+00  0.38052817804E+00  0.10992369549E+00  0.10270117199E+01  0.93800000000E+00 0.  1.
         22    1    1    2    0    0 -0.99062827864E-01 -0.29911732316E+00  0.30733827511E+01  0.30894928632E+01  0.00000000000E+00 0. -1.
</event>
<event>
 5    1  0.6645559E+001  0.1599523E+01  0.7818608E-02  0.3353881E+00
         11   -1    0    0    0    0  0.00000000000E+00  0.00000000000E+00  0.39999999674E+01  0.40000000000E+01  0.51100000000E-03 0. -1.
    9000002   -1    0    0    0    0 -0.00000000000E+00 -0.00000000000E+00  0.00000000000E+00  0.93800000000E+00  0.93800000000E+00 0. -1.
         11    1    1    2    0    0 -0.16487012107E+00 -0.28085920323E-01  0.14818710782E+01  0.14912790246E+01  0.51100000000E-03 0. -1.
    9000002    1    1    2    0    0  0.46068775662E+00  0.52565866367E-01  0.14645694979E+00  0.10565462685E+01  0.93800000000E+00 0. -1.
         22    1    1    2    0    0 -0.29581763555E+00 -0.24479946044E-01  0.23716719394E+01  0.23901747069E+01  0.00000000000E+00 0. -1.
</event>
<event>
 5    1  0.6645559E+001  0.1595753E+01  0.7818608E-02  0.3357985E+00
         11   -1    0    0    0    0  0.00000000000E+00  0.00000000000E+00  0.39999999674E+01  0.40000000000E+01  0.51100000000E-03 0. -1.
    9000002   -1    0    0    0    0 -0.00000000000E+00 -0.00000000000E+00  0.00000000000E+00  0.93800000000E+00  0.93800000000E+00 0. -1.
         11    1    1    2    0    0 -0.16236724962E+00 -0.85284331455E-01  0.95237689729E+00  0.96987553663E+00  0.51100000000E-03 0. -1.
    9000002    1    1    2    0    0  0.38663763325E+00  0.35731789968E+00  0.19423735855E+00  0.10930402062E+01  0.93800000000E+00 0. -1.
         22    1    1    2    0    0 -0.22427038363E+00 -0.27203356822E+00  0.28533857115E+01  0.28750842572E+01  0.00000000000E+00 0. -1.
</event>
<event>
 5    1  0.6645559E+001  0.1562186E+01  0.7818608E-02  0.3395457E+00
         11   -1    0    0    0    0  0.00000000000E+00  0.00000000000E+00  0.39999999674E+01  0.40000000000E+01  0.51100000000E-03 0. -1.
    9000002   -1    0    0    0    0 -0.00000000000E+00 -0.00000000000E+00  0.00000000000E+00  0.93800000000E+00  0.93800000000E+00 0. -1.
         11    1    1    2    0    0 -0.25782689150E+00 -0.34593199453E+00  0.73314062564E+00  0.85066978841E+00  0.51100000000E-03 0. -1.
    9000002    1    1    2    0    0  0.63183658003E+00  0.73124550328E+00  0.80807966469E+00  0.15705967638E+01  0.93800000000E+00 0. -1.
         22    1    1    2    0    0 -0.37400968853E+00 -0.38531350875E+00  0.24587796770E+01  0.25167334478E+01  0.00000000000E+00 0. -1.
</event>
<event>
 5    1  0.6645559E+001  0.1599675E+01  0.7818608E-02  0.3353716E+00
         11   -1    0    0    0    0  0.00000000000E+00  0.00000000000E+00  0.39999999674E+01  0.40000000000E+01  0.51100000000E-03 0. -1.
    9000002   -1    0    0    0    0 -0.00000000000E+00 -0.00000000000E+00  0.00000000000E+00  0.93800000000E+00  0.93800000000E+00 0. -1.
         11    1    1    2    0    0 -0.12978736782E-01  0.15915204446E+00  0.11945447344E+01  0.12051701973E+01  0.51100000000E-03 0. -1.
    9000002    1    1    2    0    0  0.43518737244E-01 -0.51274611269E+00  0.18172637914E+00  0.10852054798E+01  0.93800000000E+00 0. -1.
         22    1    1    2    0    0 -0.30540000463E-01  0.35359406822E+00  0.26237288538E+01  0.26476243229E+01  0.00000000000E+00 0. -1.
</event>
<event>
 5    1  0.6645559E+001  0.1599367E+01  0.7818608E-02  0.3354051E+00
         11   -1    0    0    0    0  0.00000000000E+00  0.00000000000E+00  0.39999999674E+01  0.40000000000E+01  0.51100000000E-03 0.  1.
    9000002   -1    0    0    0    0 -0.00000000000E+00 -0.00000000000E+00  0.00000000000E+00  0.93800000000E+00  0.93800000000E+00 0. -1.
         11    1    1    2    0    0 -0.41908345513E-01  0.86110367944E-01  0.10522204350E+01  0.10565696427E+01  0.51100000000E-03 0.  1.
    9000002    1    1    2    0    0  0.15026877453E+00 -0.38744515344E+00  0.11698516319E+00  0.10325812220E+01  0.93800000000E+00 0. -1.
         22    1    1    2    0    0 -0.10836042902E+00  0.30133478550E+00  0.28307943691E+01  0.28488491353E+01  0.00000000000E+00 0.  1.
</event>
<event>
 5    1  0.6645559E+001  0.1512483E+01  0.7818608E-02  0.3454196E+00
         11   -1    0    0    0    0  0.00000000000E+00  0.00000000000E+00  0.39999999674E+01  0.40000000000E+01  0.51100000000E-03 0.  1.
    9000002   -1    0    0    0    0 -0.00000000000E+00 -0.00000000000E+00  0.00000000000E+00  0.93800000000E+00  0.93800000000E+00 0.  1.
         11    1    1    2    0    0 -0.29458955004E+00 -0.18910518596E+00  0.94907843243E+00  0.10115799061E+01  0.51100000000E-03 0.  1.
    9000002    1    1    2    0    0  0.29233167026E+00 -0.10165494121E+00  0.13603419729E+00  0.99706611383E+00  0.93800000000E+00 0.  1.
         22    1    1    2    0    0  0.22578797758E-02  0.29076012717E+00  0.29148873376E+01  0.29293539801E+01  0.00000000000E+00 0.  1.
</event>
<event>
 5    1  0.6645559E+001  0.1460510E+01  0.7818608E-02  0.3520226E+00
         11   -1    0    0    0    0  0.00000000000E+00  0.00000000000E+00  0.39999999674E+01  0.40000000000E+01  0.51100000000E-03 0. -1.
    9000002   -1    0    0    0    0 -0.00000000000E+00 -0.00000000000E+00  0.00000000000E+00  0.93800000000E+00  0.93800000000E+00 0. -1.
         11    1    1    2    0    0  0.40416929092E+00  0.18514604520E+00  0.12852786517E+01  0.13599902012E+01  0.51100000000E-03 0. -1.
    9000002    1    1    2    0    0  0.15195654738E+00 -0.29813140305E+00  0.22046425402E+00  0.10200105946E+01  0.93800000000E+00 0. -1.
         22    1    1    2    0    0 -0.55612583830E+00  0.11298535784E+00  0.24942570616E+01  0.25579992042E+01  0.00000000000E+00 0. -1.
</event>
<event>
 5    1  0.6645559E+001  0.1599677E+01  0.7818608E-02  0.3353714E+00
         11   -1    0    0    0    0  0.00000000000E+00  0.00000000000E+00  0.39999999674E+01  0.40000000000E+01  0.51100000000E-03 0. -1.
    9000002   -1    0    0    0    0 -0.00000000000E+00 -0.00000000000E+00  0.00000000000E+00  0.93800000000E+00  0.93800000000E+00 0.  1.
         11    1    1    2    0    0 -0.26896515437E+00  0.19083260212E+00  0.13766884150E+01  0.14156378737E+01  0.51100000000E-03 0. -1.
    9000002    1    1    2    0    0  0.68010623748E+00 -0.48317607073E+00  0.51893342571E+00  0.13583591241E+01  0.93800000000E+00 0.  1.
         22    1    1    2    0    0 -0.41114108311E+00  0.29234346861E+00  0.21043781266E+01  0.21640030023E+01  0.00000000000E+00 0. -1.
</event>
<event>
 5    1  0.6645559E+001  0.1599676E+01  0.7818608E-02  0.3353716E+00
         11   -1    0    0    0    0  0.00000000000E+00  0.00000000000E+00  0.39999999674E+01  0.40000000000E+01  0.51100000000E-03 0.  1.
    9000002   -1    0    0    0    0 -0.00000000000E+00 -0.00000000000E+00  0.00000000000E+00  0.93800000000E+00  0.93800000000E+00 0. -1.
         11    1    1    2    0    0  0.15792433902E-01 -0.96920006909E-02  0.19526587163E+00  0.19614371668E+00  0.51100000000E-03 0.  1.
    9000002    1    1    2    0    0 -0.31897891351E+00  0.18612258296E+00  0.91652514845E-01  0.10122417432E+01  0.93800000000E+00 0. -1.
         22    1    1    2    0    0  0.30318647961E+00 -0.17643058227E+00  0.37130815809E+01  0.37296145401E+01  0.00000000000E+00 0.  1.
</event>
<event>
 5    1  0.6645559E+001  0.1591407E+01  0.7818608E-02  0.3362743E+00
         11   -1    0    0    0    0  0.00000000000E+00  0.00000000000E+00  0.39999999674E+01  0.40000000000E+01  0.51100000000E-03 0. -1.
    9000002   -1    0    0    0    0 -0.00000000000E+00 -0.00000000000E+00  0.00000000000E+00  0.93800000000E+00  0.93800000000E+00 0.  1.
         11    1    1    2    0    0  0.30262538545E-01  0.16321169980E+00  0.14738404502E+01  0.14831587285E+01  0.51100000000E-03 0. -1.
    9000002    1    1    2    0    0 -0.25117854586E+00 -0.20968334204E+00  0.78208695869E-01  0.99650306870E+00  0.93800000000E+00 0.  1.
         22    1    1    2    0    0  0.22091600731E+00  0.46471642233E-01  0.24479508213E+01  0.24583382028E+01  0.00000000000E+00 0. -1.
</event>
<event>
 5    1  0.6645559E+001  0.1599676E+01  0.7818608E-02  0.3353715E+00
         11   -1    0    0    0    0  0.00000000000E+00  0.00000000000E+00  0.39999999674E+01  0.40000000000E+01  0.51100000000E-03 0. -1.
    9000002   -1    0    0    0    0 -0.00000000000E+00 -0.00000000000E+00  0.00000000000E+00  0.93800000000E+00  0.93800000000E+00 0.  1.
         11    1    1    2    0    0 -0.82551262402E-01  0.12918640737E+00  0.10281011708E+01  0.10394691517E+01  0.51100000000E-03 0. -1.
    9000002    1    1    2    0    0  0.30617903772E+00 -0.47599016814E+00  0.22192504350E+00  0.11177687454E+01  0.93800000000E+00 0.  1.
         22    1    1    2    0    0 -0.22362777532E+00  0.34680376078E+00  0.27499737531E+01  0.27807621029E+01  0.00000000000E+00 0. -1.
</event>
<event>
 5    1  0.6645559E+001  0.1599473E+01  0.7818608E-02  0.3353935E+00
         11   -1    0    0    0    0  0.00000000000E+00  0.00000000000E+00  0.39999999674E+01  0.40000000000E+01  0.51100000000E-03 0. -1.
    9000002   -1    0    0    0    0 -0.00000000000E+00 -0.00000000000E+00  0.00000000000E+00  0.93800000000E+00  0.93800000000E+00 0. -1.
         11    1    1    2    0    0  0.35165780617E-01  0.51064955959E-02  0.20791161119E+00  0.21092701963E+00  0.51100000000E-03 0. -1.
    9000002    1    1    2    0    0 -0.51278092843E+00 -0.15386086443E+00  0.19761700077E+00  0.10979589815E+01  0.93800000000E+00 0. -1.
         22    1    1    2    0    0  0.47761514781E+00  0.14875436883E+00  0.35944713554E+01  0.36291139988E+01  0.00000000000E+00 0. -1.
</event>
<event>
 5    1  0.6645559E+001  0.1599672E+01  0.7818608E-02  0.3353720E+00
         11   -1    0    0    0    0  0.00000000000E+00  0.00000000000E+00  0.39999999674E+01  0.40000000000E+01  0.51100000000E-03 0.  1.
    9000002   -1    0    0    0    0 -0.00000000000E+00 -0.00000000000E+00  0.00000000000E+00  0.93800000000E+00  0.93800000000E+00 0.  1.
         11    1    1    2    0    0  0.25585774663E-02  0.23068995198E-01  0.23064237208E+00  0.23180787256E+00  0.51100000000E-03 0. -1.
    9000002    1    1    2    0    0 -0.62761541677E-01 -0.38470870585E+00  0.10235842763E+00  0.10209118704E+01  0.93800000000E+00 0.  1.
         22    1    1    2    0    0  0.60202964211E-01  0.36163971066E+00  0.36669991676E+01  0.36852802570E+01  0.00000000000E+00 0.  1.
</event>
<event>
 5    1  0.6645559E+001  0.1599553E+01  0.7818608E-02  0.3353849E+00
         11   -1    0    0    0    0  0.00000000000E+00  0.00000000000E+00  0.39999999674E+01  0.40000000000E+01  0.51100000000E-03 0.  1.
    9000002   -1    0    0    0    0 -0.00000000000E+00 -0.00000000000E+00  0.00000000000E+00  0.93800000000E+00  0.93800000000E+00 0. -1.
         11    1    1    2    0    0 -0.21797332104E-01  0.11935899453E+00  0.10025140319E+01  0.10098298562E+01  0.51100000000E-03 0.  1.
    9000002    1    1    2    0    0  0.42528839887E-01 -0.44206264365E+00  0.13394525406E+00  0.10464288864E+01  0.93800000000E+00 0. -1.
         22    1    1    2    0    0 -0.20731507783E-01  0.32270364912E+00  0.28635406814E+01  0.28817412574E+01  0.00000000000E+00 0.  1.
</event>
<event>
 5    1  0.6645559E+001  0.1599675E+01  0.7818608E-02  0.3353716E+00
         11   -1    0    0    0    0  0.00000000000E+00  0.00000000000E+00  0.39999999674E+01  0.40000000000E+01  0.51100000000E-03 0. -1.
    9000002   -1    0    0    0    0 -0.00000000000E+00 -0.00000000000E+00  0.00000000000E+00  0.93800000000E+00  0.93800000000E+00 0. -1.
         11    1    1    2    0    0 -0.69922407731E-01  0.16763417321E-01  0.60517737373E+00  0.60943422128E+00  0.51100000000E-03 0. -1.
    9000002    1    1    2    0    0  0.44394383898E+00 -0.11467501086E+00  0.14297273493E+00  0.10538129308E+01  0.93800000000E+00 0. -1.
         22    1    1    2    0    0 -0.37402143125E+00  0.97911593543E-01  0.32518498587E+01  0.32747528479E+01  0.00000000000E+00 0. -1.
</event>
<event>
 5    1  0.6645559E+001  0.1597244E+01  0.7818608E-02  0.3356361E+00
         11   -1    0    0    0    0  0.00000000000E+00  0.00000000000E+00  0.39999999674E+01  0.40000000000E+01  0.51100000000E-03 0.  1.
    9000002   -1    0    0    0    0 -0.00000000000E+00 -0.00000000000E+00  0.00000000000E+00  0.93800000000E+00  0.93800000000E+00 0.  1.
         11    1    1    2    0    0 -0.92732144802E-01  0.80351755900E-01  0.79602520293E+00  0.80542661998E+00  0.51100000000E-03 0.  1.
    9000002    1    1    2    0    0  0.21768780596E+00 -0.37147268957E+00  0.12762901044E+00  0.10399582224E+01  0.93800000000E+00 0.  1.
         22    1    1    2    0    0 -0.12495566116E+00  0.29112093367E+00  0.30763457540E+01  0.30926151577E+01  0.00000000000E+00 0.  1.
</event>
<event>
 5    1  0.6645559E+001  0.1599670E+01  0.7818608E-02  0.3353721E+00
         11   -1    0    0    0    0  0.00000000000E+00  0.00000000000E+00  0.39999999674E+01  0.40000000000E+01  0.51100000000E-03 0. -1.
    9000002   -1    0    0    0    0 -0.00000000000E+00 -0.00000000000E+00  0.00000000000E+00  0.93800000000E+00  0.93800000000E+00 0.  1.
         11    1    1    2    0    0  0.13526918398E+00  0.34120849285E-01  0.14072199013E+01  0.14141181338E+01  0.51100000000E-03 0. -1.
    9000002    1    1    2    0    0 -0.37444782306E+00 -0.10270975617E+00  0.10154604867E+00  0.10202529423E+01  0.93800000000E+00 0.  1.
         22    1    1    2    0    0  0.23917863908E+00  0.68588906883E-01  0.24912340174E+01  0.25036289239E+01  0.00000000000E+00 0. -1.
</event>
<event>
 5    1  0.6645559E+001  0.1599525E+01  0.7818608E-02  0.3353879E+00
         11   -1    0    0    0    0  0.00000000000E+00  0.00000000000E+00  0.39999999674E+01  0.40000000000E+01  0.51100000000E-03 0.  1.
    9000002   -1    0    0    0    0 -0.00000000000E+00 -0.00000000000E+00  0.00000000000E+00  0.93800000000E+00  0.93800000000E+00 0.  1.
         11    1    1    2    0    0  0.29290369157E-01 -0.99368031010E-01  0.76177217303E+00  0.76878412837E+00  0.51100000000E-03 0.  1.
    9000002    1    1    2    0    0 -0.13004325856E+00  0.44517572703E+00  0.14652324135E+00  0.10566010303E+01  0.93800000000E+00 0.  1.
         22    1    1    2    0    0  0.10075288940E+00 -0.34580769602E+00  0.30917045530E+01  0.31126148413E+01  0.00000000000E+00 0.  1.
</event>
<event>
 5    1  0.6645559E+001  0.1503037E+01  0.7818608E-02  0.3465831E+00
         11   -1    0    0    0    0  0.00000000000E+00  0.00000000000E+00  0.39999999674E+01  0.40000000000E+01  0.51100000000E-03 0. -1.
    9000002   -1    0    0    0    0 -0.00000000000E+00 -0.00000000000E+00  0.00000000000E+00  0.93800000000E+00  0.93800000000E+00 0. -1.
         11    1    1    2    0    0 -0.71024251598E-01 -0.13285450662E+00  0.15346104290E+00  0.21504724377E+00  0.51100000000E-03 0. -1.
    9000002    1    1    2    0    0 -0.29266367707E+00 -0.25206465520E-01  0.13716711870E+00  0.99244456381E+00  0.93800000000E+00 0. -1.
         22    1    1    2    0    0  0.36368792867E+00  0.15806097214E+00  0.37093718058E+01  0.37305081924E+01  0.00000000000E+00 0. -1.
</event>
<event>
 5    1  0.6645559E+001  0.1599677E+01  0.7818608E-02  0.3353714E+00
         11   -1    0    0    0    0  0.00000000000E+00  0.00000000000E+00  0.39999999674E+01  0.40000000000E+01  0.51100000000E-03 0.  1.
    9000002   -1    0    0    0    0 -0.00000000000E+00 -0.00000000000E+00  0.00000000000E+00  0.93800000000E+00  0.93800000000E+00 0.  1.
         11    1    1    2    0    0  0.68921159448E-01 -0.47036551559E-01  0.46903967951E+00  0.47640428785E+00  0.51100000000E-03 0. -1.
    9000002    1    1    2    0    0 -0.54237404003E+00  0.36914855896E+00  0.30418643409E+00  0.11844043417E+01  0.93800000000E+00 0.  1.
         22    1    1    2    0    0  0.47345288059E+00 -0.32211200740E+00  0.32267738538E+01  0.32771913705E+01  0.00000000000E+00 0.  1.
</event>
<event>
 5    1  0.6645559E+001  0.1599457E+01  0.7818608E-02  0.3353953E+00
         11   -1    0    0    0    0  0.00000000000E+00  0.00000000000E+00  0.39999999674E+01  0.40000000000E+01  0.51100000000E-03 0.  1.
    9000002   -1    0    0    0    0 -0.00000000000E+00 -0.00000000000E+00  0.00000000000E+00  0.93800000000E+00  0.93800000000E+00 0. -1.
         11    1    1    2    0    0 -0.53848086231E-01  0.20288084107E-01  0.35782409589E+00  0.36242180876E+00  0.51100000000E-03 0.  1.
    9000002    1    1    2    0    0  0.52730796470E+00 -0.31576269106E+00  0.26462407663E+00  0.11522281322E+01  0.93800000000E+00 0. -1.
         22    1    1    2    0    0 -0.47345987847E+00  0.29547460695E+00  0.33775517948E+01  0.34233500590E+01  0.00000000000E+00 0.  1.
</event>
<event>
 5    1  0.6645559E+001  0.1599438E+01  0.7818608E-02  0.3353973E+00
         11   -1    0    0    0    0  0.00000000000E+00  0.00000000000E+00  0.39999999674E+01  0.40000000000E+01  0.51100000000E-03 0.  1.
    9000002   -1    0    0    0    0 -0.00000000000E+00 -0.00000000000E+00  0.00000000000E+00  0.93800000000E+00  0.93800000000E+00 0.  1.
         11    1    1    2    0    0 -0.15070399030E+00  0.47492455386E-01  0.12206194546E+01  0.12308043468E+01  0.51100000000E-03 0.  1.
    9000002    1    1    2    0    0  0.42722803604E+00 -0.17513866680E+00  0.14526326244E+00  0.10555296125E+01  0.93800000000E+00 0.  1.
         22    1    1    2    0    0 -0.27652404574E+00  0.12764621141E+00  0.26341172503E+01  0.26516660408E+01  0.00000000000E+00 0.  1.
</event>
<event>
 5    1  0.6645559E+001  0.1599389E+01  0.7818608E-02  0.3354027E+00
         11   -1    0    0    0    0  0.00000000000E+00  0.00000000000E+00  0.39999999674E+01  0.40000000000E+01  0.51100000000E-03 0. -1.
    9000002   -1    0    0    0    0 -0.00000000000E+00 -0.00000000000E+00  0.00000000000E+00  0.93800000000E+00  0.93800000000E+00 0.  1.
         11    1    1    2    0    0 -0.11002980194E+00  0.55200567663E-01  0.75573713626E+00  0.76569742081E+00  0.51100000000E-03 0. -1.
    9000002    1    1    2    0    0  0.47483216824E+00 -0.25125768371E+00  0.19912602657E+00  0.10991320149E+01  0.93800000000E+00 0.  1.
         22    1    1    2    0    0 -0.36480236630E+00  0.19605711605E+00  0.30451368045E+01  0.30731705643E+01  0.00000000000E+00 0. -1.
</event>
<event>
 5    1  0.6645559E+001  0.1599676E+01  0.7818608E-02  0.3353715E+00
         11   -1    0    0    0    0  0.00000000000E+00  0.00000000000E+00  0.39999999674E+01  0.40000000000E+01  0.51100000000E-03 0.  1.
    9000002   -1    0    0    0    0 -0.00000000000E+00 -0.00000000000E+00  0.00000000000E+00  0.93800000000E+00  0.93800000000E+00 0.  1.
         11    1    1    2    0    0  0.86007119822E-01  0.10502210406E+00  0.12816146310E+01  0.12887836089E+01  0.51100000000E-03 0.  1.
    9000002    1    1    2    0    0 -0.26401184260E+00 -0.31834094159E+00  0.11557802751E+00  0.10316227453E+01  0.93800000000E+00 0.  1.
         22    1    1    2    0    0  0.17800472278E+00  0.21331883753E+00  0.26028073088E+01  0.26175936458E+01  0.00000000000E+00 0.  1.
</event>
<event>
 5    1  0.6645559E+001  0.1599677E+01  0.7818608E-02  0.3353714E+00
         11   -1    0    0    0    0  0.00000000000E+00  0.00000000000E+00  0.39999999674E+01  0.40000000000E+01  0.51100000000E-03 0. -1.
    9000002   -1    0    0    0    0 -0.00000000000E+00 -0.00000000000E+00  0.00000000000E+00  0.93800000000E+00  0.93800000000E+00 0. -1.
         11    1    1    2    0    0 -0.87808309480E-01  0.10513364227E+00  0.11208099451E+01  0.11291494924E+01  0.51100000000E-03 0. -1.
    9000002    1    1    2    0    0  0.29984719130E+00 -0.36193472068E+00  0.15049080242E+00  0.10599040342E+01  0.93800000000E+00 0. -1.
         22    1    1    2    0    0 -0.21203888182E+00  0.25680107842E+00  0.27286992198E+01  0.27489464734E+01  0.00000000000E+00 0. -1.
</event>
<event>
 5    1  0.6645559E+001  0.1599674E+01  0.7818608E-02  0.3353717E+00
         11   -1    0    0    0    0  0.00000000000E+00  0.00000000000E+00  0.39999999674E+01  0.40000000000E+01  0.51100000000E-03 0. -1.
    9000002   -1    0    0    0    0 -0.00000000000E+00 -0.00000000000E+00  0.00000000000E+00  0.93800000000E+00  0.93800000000E+00 0. -1.
         11    1    1    2    0    0 -0.52408356269E-01 -0.12853154533E+00  0.11594932647E+01  0.11677721893E+01  0.51100000000E-03 0. -1.
    9000002    1    1    2    0    0  0.17595897761E+00  0.43250178406E+00  0.14845606206E+00  0.10582544861E+01  0.93800000000E+00 0. -1.
         22    1    1    2    0    0 -0.12355062134E+00 -0.30397023873E+00  0.26920506406E+01  0.27119733246E+01  0.00000000000E+00 0. -1.
</event>
<event>
 5    1  0.6645559E+001  0.1590093E+01  0.7818608E-02  0.3364186E+00
         11   -1    0    0    0    0  0.00000000000E+00  0.00000000000E+00  0.39999999674E+01  0.40000000000E+01  0.51100000000E-03 0.  1.
    9000002   -1    0    0    0    0 -0.00000000000E+00 -0.00000000000E+00  0.00000000000E+00  0.93800000000E+00  0.93800000000E+00 0.  1.
         11    1    1    2    0    0 -0.10733373172E+00  0.80587454133E-01  0.10906714812E+01  0.10988991804E+01  0.51100000000E-03 0.  1.
    9000002    1    1    2    0    0  0.13895905277E+00 -0.56549850347E+00  0.24512298757E+00  0.11309409599E+01  0.93800000000E+00 0.  1.
         22    1    1    2    0    0 -0.31625321050E-01  0.48491104934E+00  0.26642054986E+01  0.27081598597E+01  0.00000000000E+00 0.  1.
</event>
<event>
 5    1  0.6645559E+001  0.1599151E+01  0.7818608E-02  0.3354285E+00
         11   -1    0    0    0    0  0.00000000000E+00  0.00000000000E+00  0.39999999674E+01  0.40000000000E+01  0.51100000000E-03 0.  1.
    9000002   -1    0    0    0    0 -0.00000000000E+00 -0.00000000000E+00  0.00000000000E+00  0.93800000000E+00  0.93800000000E+00 0. -1.
         11    1    1    2    0    0  0.26706571355E-01  0.36631421190E-01  0.63845211197E+00  0.64005973344E+00  0.51100000000E-03 0.  1.
    9000002    1    1    2    0    0 -0.19191506369E+00 -0.34505983940E+00  0.10552288011E+00  0.10231699579E+01  0.93800000000E+00 0. -1.
         22    1    1    2    0    0  0.16520849234E+00  0.30842841821E+00  0.32560249753E+01  0.32747703087E+01  0.00000000000E+00 0.  1.
</event>
<event>
 5    1  0.6645559E+001  0.1599665E+01  0.7818608E-02  0.3353727E+00
         11   -1    0    0    0    0  0.00000000000E+00  0.00000000000E+00  0.39999999674E+01  0.40000000000E+01  0.51100000000E-03 0.  1.
    9000002   -1    0    0    0    0 -0.00000000000E+00 -0.00000000000E+00  0.00000000000E+00  0.93800000000E+00  0.93800000000E+00 0. -1.
         11    1    1    2    0    0 -0.11743490175E-01 -0.95736966932E-01  0.98413810963E+00  0.98885365769E+00  0.51100000000E-03 0.  1.
    9000002    1    1    2    0    0  0.34962772608E-01  0.38722492493E+00  0.10182960488E+00  0.10204796943E+01  0.93800000000E+00 0. -1.
         22    1    1    2    0    0 -0.23219282433E-01 -0.29148795800E+00  0.29140322529E+01  0.29286666480E+01  0.00000000000E+00 0.  1.
</event>
<event>
 5    1  0.6645559E+001  0.1595171E+01  0.7818608E-02  0.3358622E+00
         11   -1    0    0    0    0  0.00000000000E+00  0.00000000000E+00  0.39999999674E+01  0.40000000000E+01  0.51100000000E-03 0. -1.
    9000002   -1    0    0    0    0 -0.00000000000E+00 -0.00000000000E+00  0.00000000000E+00  0.93800000000E+00  0.93800000000E+00 0. -1.
         11    1    1    2    0    0 -0.17806402850E-01 -0.67287484563E-02  0.36741628483E-01  0.41382996784E-01  0.51100000000E-03 0. -1.
    9000002    1    1    2    0    0  0.22316919320E+00  0.29038990998E+00  0.93776077370E-01  0.10113202961E+01  0.93800000000E+00 0. -1.
         22    1    1    2    0    0 -0.20536279035E+00 -0.28366116152E+00  0.38694822615E+01  0.38852967071E+01  0.00000000000E+00 0. -1.
</event>
<event>
 5    1  0.6645559E+001  0.1599605E+01  0.7818608E-02  0.3353792E+00
         11   -1    0    0    0    0  0.00000000000E+00  0.00000000000E+00  0.39999999674E+01  0.40000000000E+01  0.51100000000E-03 0.  1.
    9000002   -1    0    0    0    0 -0.00000000000E+00 -0.00000000000E+00  0.00000000000E+00  0.93800000000E+00  0.93800000000E+00 0. -1.
         11    1    1    2    0    0  0.61122153599E-01  0.13369735978E+00  0.80683267177E+00  0.82011592048E+00  0.51100000000E-03 0.  1.
    9000002    1    1    2    0    0 -0.25871534416E+00 -0.58326542954E+00  0.28655673885E+00  0.11700816019E+01  0.93800000000E+00 0. -1.
         22    1    1    2    0    0  0.19759319056E+00  0.44956806976E+00  0.29066105567E+01  0.29478024776E+01  0.00000000000E+00 0.  1.
</event>
<event>
 5    1  0.6645559E+001  0.1584165E+01  0.7818608E-02  0.3370732E+00
         11   -1    0    0    0    0  0.00000000000E+00  0.00000000000E+00  0.39999999674E+01  0.40000000000E+01  0.51100000000E-03 0. -1.
    9000002   -1    0    0    0    0 -0.00000000000E+00 -0.00000000000E+00  0.00000000000E+00  0.93800000000E+00  0.93800000000E+00 0. -1.
         11    1    1    2    0    0 -0.27041519979E+00  0.38097702210E-01  0.14080339608E+01  0.14342718400E+01  0.51100000000E-03 0. -1.
    9000002    1    1    2    0    0  0.54213611613E+00  0.24216717648E+00  0.26113480386E+00  0.11404349589E+01  0.93800000000E+00 0. -1.
         22    1    1    2    0    0 -0.27172091634E+00 -0.28026487869E+00  0.23308312027E+01  0.23632932011E+01  0.00000000000E+00 0. -1.
</event>
<event>
 5    1  0.6645559E+001  0.1470643E+01  0.7818608E-02  0.3506956E+00
         11   -1    0    0    0    0  0.00000000000E+00  0.00000000000E+00  0.39999999674E+01  0.40000000000E+01  0.51100000000E-03 0.  1.
    9000002   -1    0    0    0    0 -0.00000000000E+00 -0.00000000000E+00  0.00000000000E+00  0.93800000000E+00  0.93800000000E+00 0.  1.
         11    1    1    2    0    0  0.84965079422E-01  0.22591274217E+00  0.23472443754E+00  0.33667707748E+00  0.51100000000E-03 0.  1.
    9000002    1    1    2    0    0 -0.40714923706E+00  0.52566811172E+00  0.53314294736E+00  0.12673527004E+01  0.93800000000E+00 0.  1.
         22    1    1    2    0    0  0.32218415763E+00 -0.75158085390E+00  0.32321325825E+01  0.33339702221E+01  0.00000000000E+00 0.  1.
</event>
<event>
 5    1  0.6645559E+001  0.1599449E+01  0.7818608E-02  0.3353961E+00
         11   -1    0    0    0    0  0.00000000000E+00  0.00000000000E+00  0.39999999674E+01  0.40000000000E+01  0.51100000000E-03 0.  1.
    9000002   -1    0    0    0    0 -0.00000000000E+00 -0.00000000000E+00  0.00000000000E+00  0.93800000000E+00  0.93800000000E+00 0. -1.
         11    1    1    2    0    0  0.16882629904E-01 -0.57758963959E-01  0.65187105397E+00  0.65464284403E+00  0.51100000000E-03 0.  1.
    9000002    1    1    2    0    0 -0.17639457818E+00  0.31568826457E+00  0.87984796791E-01  0.10091379747E+01  0.93800000000E+00 0. -1.
         22    1    1    2    0    0  0.15951194827E+00 -0.25792930061E+00  0.32601441166E+01  0.32742191812E+01  0.00000000000E+00 0.  1.
</event>
<event>
 5    1  0.6645559E+001  0.1599677E+01  0.7818608E-02  0.3353714E+00
         11   -1    0    0    0    0  0.00000000000E+00  0.00000000000E+00  0.39999999674E+01  0.40000000000E+01  0.51100000000E-03 0.  1.
    9000002   -1    0    0    0    0 -0.00000000000E+00 -0.00000000000E+00  0.00000000000E+00  0.93800000000E+00  0.93800000000E+00 0.  1.
         11    1    1    2    0    0 -0.57872300718E-01 -0.72968215969E-01  0.75083815379E+00  0.75659220062E+00  0.51100000000E-03 0.  1.
    9000002    1    1    2    0    0  0.29702080000E+00  0.37105147763E+00  0.15402143011E+00  0.10627639228E+01  0.93800000000E+00 0.  1.
         22    1    1    2    0    0 -0.23914849928E+00 -0.29808326166E+00  0.30951403835E+01  0.31186438766E+01  0.00000000000E+00 0.  1.
</event>
<event>
 5    1  0.6645559E+001  0.1599676E+01  0.7818608E-02  0.3353715E+00
         11   -1    0    0    0    0  0.00000000000E+00  0.00000000000E+00  0.39999999674E+01  0.40000000000E+01  0.51100000000E-03 0. -1.
    9000002   -1    0    0    0    0 -0.00000000000E+00 -0.00000000000E+00  0.00000000000E+00  0.93800000000E+00  0.93800000000E+00 0. -1.
         11    1    1    2    0    0 -0.74638534167E-01  0.77317529414E-03  0.77719794684E+00  0.78077424284E+00  0.51100000000E-03 0. -1.
    9000002    1    1    2    0    0  0.37038843329E+00 -0.16963116776E-02  0.92202628825E-01  0.10126874117E+01  0.93800000000E+00 0. -1.
         22    1    1    2    0    0 -0.29574989912E+00  0.92313638342E-03  0.31305993917E+01  0.31445383455E+01  0.00000000000E+00 0. -1.
</event>
<event>
 5    1  0.6645559E+001  0.1599525E+01  0.7818608E-02  0.3353879E+00
         11   -1    0    0    0    0  0.00000000000E+00  0.00000000000E+00  0.39999999674E+01  0.40000000000E+01  0.51100000000E-03 0.  1.
    9000002   -1    0    0    0    0 -0.00000000000E+00 -0.00000000000E+00  0.00000000000E+00  0.93800000000E+00  0.93800000000E+00 0. -1.
         11    1    1    2    0    0 -0.11173391845E+00 -0.11279785837E+00  0.10298180459E+01  0.10419852658E+01  0.51100000000E-03 0.  1.
    9000002    1    1    2    0    0  0.36869001067E+00  0.43954297211E+00  0.22853216427E+00  0.11230321894E+01  0.93800000000E+00 0. -1.
         22    1    1    2    0    0 -0.25695609222E+00 -0.32674511373E+00  0.27416497572E+01  0.27729825448E+01  0.00000000000E+00 0.  1.
</event>
<event>
 5    1  0.6645559E+001  0.1598719E+01  0.7818608E-02  0.3354754E+00
         11   -1    0    0    0    0  0.00000000000E+00  0.00000000000E+00  0.39999999674E+01  0.40000000000E+01  0.51100000000E-03 0.  1.
    9000002   -1    0    0    0    0 -0.00000000000E+00 -0.00000000000E+00  0.00000000000E+00  0.93800000000E+00  0.93800000000E+00 0. -1.
         11    1    1    2    0    0 -0.94519213874E-01  0.10822554614E+00  0.10269773923E+01  0.10369809429E+01  0.51100000000E-03 0.  1.
    9000002    1    1    2    0    0  0.23146976389E+00 -0.42358322988E+00  0.15989972802E+00  0.10669643514E+01  0.93800000000E+00 0. -1.
         22    1    1    2    0    0 -0.13695055002E+00  0.31535768374E+00  0.28131228470E+01  0.28340547056E+01  0.00000000000E+00 0.  1.
</event>
<event>
 5    1  0.6645559E+001  0.1599676E+01  0.7818608E-02  0.3353715E+00
         11   -1    0    0    0    0  0.00000000000E+00  0.00000000000E+00  0.39999999674E+01  0.40000000000E+01  0.51100000000E-03 0.  1.
    9000002   -1    0    0    0    0 -0.00000000000E+00 -0.00000000000E+00  0.00000000000E+00  0.93800000000E+00  0.93800000000E+00 0.  1.
         11    1    1    2    0    0 -0.82596949174E-01 -0.24506107592E-02  0.77052685835E+00  0.77494526392E+00  0.51100000000E-03 0. -1.
    9000002    1    1    2    0    0  0.41924630837E+00  0.14904157358E-01  0.11901533995E+00  0.10344071984E+01  0.93800000000E+00 0.  1.
         22    1    1    2    0    0 -0.33664935920E+00 -0.12453546598E-01  0.31104577691E+01  0.31286475377E+01  0.00000000000E+00 0.  1.
</event>
<event>
 5    1  0.6645559E+001  0.1599645E+01  0.7818608E-02  0.3353749E+00
         11   -1    0    0    0    0  0.00000000000E+00  0.00000000000E+00  0.39999999674E+01  0.40000000000E+01  0.51100000000E-03 0.  1.
    9000002   -1    0    0    0    0 -0.00000000000E+00 -0.00000000000E+00  0.00000000000E+00  0.93800000000E+00  0.93800000000E+00 0. -1.
         11    1    1    2    0    0  0.73026111033E-01 -0.11508267309E-01  0.81668604397E+00  0.82002537074E+00  0.51100000000E-03 0.  1.
    9000002    1    1    2    0    0 -0.37555561474E+00  0.51714072434E-01  0.96714270755E-01  0.10163237748E+01  0.93800000000E+00 0. -1.
         22    1    1    2    0    0  0.30252950371E+00 -0.40205805126E-01  0.30865996526E+01  0.31016508545E+01  0.00000000000E+00 0.  1.
</event>
<event>
 5    1  0.6645559E+001  0.1598950E+01  0.7818608E-02  0.3354504E+00
         11   -1    0    0    0    0  0.00000000000E+00  0.00000000000E+00  0.39999999674E+01  0.40000000000E+01  0.51100000000E-03 0. -1.
    9000002   -1    0    0    0    0 -0.00000000000E+00 -0.00000000000E+00  0.00000000000E+00  0.93800000000E+00  0.93800000000E+00 0. -1.
         11    1    1    2    0    0  0.16412508540E-01  0.32712890686E-01  0.22975103011E+00  0.23264844855E+00  0.51100000000E-03 0. -1.
    9000002    1    1    2    0    0 -0.33735003179E+00 -0.73524549578E+00  0.48447370573E+00  0.13300187046E+01  0.93800000000E+00 0. -1.
         22    1    1    2    0    0  0.32093752325E+00  0.70253260509E+00  0.32857752315E+01  0.33753328469E+01  0.00000000000E+00 0. -1.
</event>
<event>
 5    1  0.6645559E+001  0.1599232E+01  0.7818608E-02  0.3354198E+00
         11   -1    0    0    0    0  0.00000000000E+00  0.00000000000E+00  0.39999999674E+01  0.40000000000E+01  0.51100000000E-03 0.  1.
    9000002   -1    0    0    0    0 -0.00000000000E+00 -0.00000000000E+00  0.00000000000E+00  0.93800000000E+00  0.93800000000E+00 0. -1.
         11    1    1    2    0    0  0.11275995814E+00 -0.27261099785E-03  0.14190908694E+01  0.14235638514E+01  0.51100000000E-03 0.  1.
    9000002    1    1    2    0    0 -0.36406036882E+00 -0.40481634195E-01  0.90496789159E-01  0.10110451937E+01  0.93800000000E+00 0. -1.
         22    1    1    2    0    0  0.25130041068E+00  0.40754245192E-01  0.24904123088E+01  0.25033909549E+01  0.00000000000E+00 0.  1.
</event>
<event>
 5    1  0.6645559E+001  0.1599617E+01  0.7818608E-02  0.3353779E+00
         11   -1    0    0    0    0  0.00000000000E+00  0.00000000000E+00  0.39999999674E+01  0.40000000000E+01  0.51100000000E-03 0.  1.
    9000002   -1    0    0    0    0 -0.00000000000E+00 -0.00000000000E+00  0.00000000000E+00  0.93800000000E+00  0.93800000000E+00 0. -1.
         11    1    1    2    0    0 -0.62532920065E-01 -0.20538237213E-01  0.54041141484E+00  0.54440512828E+00  0.51100000000E-03 0.  1.
    9000002    1    1    2    0    0  0.40207913049E+00  0.14871491182E+00  0.12449331316E+00  0.10388100583E+01  0.93800000000E+00 0. -1.
         22    1    1    2    0    0 -0.33954621043E+00 -0.12817667460E+00  0.33350952394E+01  0.33547848134E+01  0.00000000000E+00 0.  1.
</event>
<event>
 5    1  0.6645559E+001  0.1599677E+01  0.7818608E-02  0.3353714E+00
         11   -1    0    0    0    0  0.00000000000E+00  0.00000000000E+00  0.39999999674E+01  0.40000000000E+01  0.51100000000E-03 0. -1.
    9000002   -1    0    0    0    0 -0.00000000000E+00 -0.00000000000E+00  0.00000000000E+00  0.93800000000E+00  0.93800000000E+00 0.  1.
         11    1    1    2    0    0 -0.57098063335E-01  0.15059152023E-01  0.57911526383E+00  0.58211830140E+00  0.51100000000E-03 0. -1.
    9000002    1    1    2    0    0  0.38491079039E+00 -0.10348448308E+00  0.10713866701E+00  0.10247868309E+01  0.93800000000E+00 0.  1.
         22    1    1    2    0    0 -0.32781272705E+00  0.88425331056E-01  0.33137460365E+01  0.33310948677E+01  0.00000000000E+00 0. -1.
</event>
<event>
 5    1  0.6645559E+001  0.1599396E+01  0.7818608E-02  0.3354020E+00
         11   -1    0    0    0    0  0.00000000000E+00  0.00000000000E+00  0.39999999674E+01  0.40000000000E+01  0.51100000000E-03 0.  1.
    9000002   -1    0    0    0    0 -0.00000000000E+00 -0.00000000000E+00  0.00000000000E+00  0.93800000000E+00  0.93800000000E+00 0.  1.
         11    1    1    2    0    0  0.12741267955E-01  0.15245439279E+00  0.12945449343E+01  0.13035534242E+01  0.51100000000E-03 0.  1.
    9000002    1    1    2    0    0 -0.86316702584E-01 -0.42556461060E+00  0.12801290503E+00  0.10415311396E+01  0.93800000000E+00 0.  1.
         22    1    1    2    0    0  0.73575434628E-01  0.27311021782E+00  0.25774421280E+01  0.25929154362E+01  0.00000000000E+00 0.  1.
</event>
<event>
 5    1  0.6645559E+001  0.1599674E+01  0.7818608E-02  0.3353717E+00
         11   -1    0    0    0    0  0.00000000000E+00  0.00000000000E+00  0.39999999674E+01  0.40000000000E+01  0.51100000000E-03 0. -1.
    9000002   -1    0    0    0    0 -0.00000000000E+00 -0.00000000000E+00  0.00000000000E+00  0.93800000000E+00  0.93800000000E+00 0.  1.
         11    1    1    2    0    0 -0.20101446693E+00 -0.51736388607E-01  0.11824909155E+01  0.12005700714E+01  0.51100000000E-03 0. -1.
    9000002    1    1    2    0    0  0.62469959092E+00  0.16536099655E+00  0.29441145177E+00  0.11764845690E+01  0.93800000000E+00 0.  1.
         22    1    1    2    0    0 -0.42368512399E+00 -0.11362460795E+00  0.25230976001E+01  0.25609453597E+01  0.00000000000E+00 0. -1.
</event>
<event>
 5    1  0.6645559E+001  0.1580328E+01  0.7818608E-02  0.3374996E+00
         11   -1    0    0    0    0  0.00000000000E+00  0.00000000000E+00  0.39999999674E+01  0.40000000000E+01  0.51100000000E-03 0. -1.
    9000002   -1    0    0    0    0 -0.00000000000E+00 -0.00000000000E+00  0.00000000000E+00  0.93800000000E+00  0.93800000000E+00 0.  1.
         11    1    1    2    0    0 -0.90039775534E-01 -0.20095193465E+00  0.12670282237E+01  0.12860208482E+01  0.51100000000E-03 0. -1.
    9000002    1    1    2    0    0 -0.16539454959E+00  0.42038557588E+00  0.15557395883E+00  0.10526759454E+01  0.93800000000E+00 0.  1.
         22    1    1    2    0    0  0.25543432512E+00 -0.21943364124E+00  0.25773977848E+01  0.25993032063E+01  0.00000000000E+00 0. -1.
</event>
<event>
 5    1  0.6645559E+001  0.1599676E+01  0.7818608E-02  0.3353715E+00
         11   -1    0    0    0    0  0.00000000000E+00  0.00000000000E+00  0.39999999674E+01  0.40000000000E+01  0.51100000000E-03 0. -1.
    9000002   -1    0    0    0    0 -0.00000000000E+00 -0.00000000000E+00  0.00000000000E+00  0.93800000000E+00  0.93800000000E+00 0.  1.
         11    1    1    2    0    0 -0.77664376030E-01  0.16004069181E+00  0.79368858315E+00  0.81337974310E+00  0.51100000000E-03 0. -1.
    9000002    1    1    2    0    0  0.34291793454E+00 -0.71307117830E+00  0.45981913476E+00  0.13104735220E+01  0.93800000000E+00 0.  1.
         22    1    1    2    0    0 -0.26525355851E+00  0.55303048649E+00  0.27464922495E+01  0.28141467349E+01  0.00000000000E+00 0. -1.
</event>
<event>
 5    1  0.6645559E+001  0.1599674E+01  0.7818608E-02  0.3353717E+00
         11   -1    0    0    0    0  0.00000000000E+00  0.00000000000E+00  0.39999999674E+01  0.40000000000E+01  0.51100000000E-03 0. -1.
    9000002   -1    0    0    0    0 -0.00000000000E+00 -0.00000000000E+00  0.00000000000E+00  0.93800000000E+00  0.93800000000E+00 0. -1.
         11    1    1    2    0    0  0.79565141465E-01  0.50411649684E-01  0.10065255784E+01  0.10109233142E+01  0.51100000000E-03 0. -1.
    9000002    1    1    2    0    0 -0.30799435965E+00 -0.18896508642E+00  0.87661472680E-01  0.10090078608E+01  0.93800000000E+00 0. -1.
         22    1    1    2    0    0  0.22842921819E+00  0.13855343673E+00  0.29058129163E+01  0.29180688249E+01  0.00000000000E+00 0. -1.
</event>
<event>
 5    1  0.6645559E+001  0.1599677E+01  0.7818608E-02  0.3353714E+00
         11   -1    0    0    0    0  0.00000000000E+00  0.00000000000E+00  0.39999999674E+01  0.40000000000E+01  0.51100000000E-03 0. -1.
    9000002   -1    0    0    0    0 -0.00000000000E+00 -0.00000000000E+00  0.00000000000E+00  0.93800000000E+00  0.93800000000E+00 0.  1.
         11    1    1    2    0    0 -0.40923106759E-01  0.78399484789E-01  0.59671176021E+00  0.60322994436E+00  0.51100000000E-03 0.  1.
    9000002    1    1    2    0    0  0.25968679168E+00 -0.49686960454E+00  0.21754356104E+00  0.11142198323E+01  0.93800000000E+00 0.  1.
         22    1    1    2    0    0 -0.21876368492E+00  0.41847011975E+00  0.31857446461E+01  0.32205502234E+01  0.00000000000E+00 0. -1.
</event>
<event>
 5    1  0.6645559E+001  0.1593754E+01  0.7818608E-02  0.3360171E+00
         11   -1    0    0    0    0  0.00000000000E+00  0.00000000000E+00  0.39999999674E+01  0.40000000000E+01  0.51100000000E-03 0. -1.
    9000002   -1    0    0    0    0 -0.00000000000E+00 -0.00000000000E+00  0.00000000000E+00  0.93800000000E+00  0.93800000000E+00 0.  1.
         11    1    1    2    0    0  0.24432305939E-01 -0.13649896835E-01  0.58836938947E+00  0.58903485198E+00  0.51100000000E-03 0. -1.
    9000002    1    1    2    0    0  0.27725088768E+00  0.12347196618E+00  0.66129297900E-01  0.98809436047E+00  0.93800000000E+00 0.  1.
         22    1    1    2    0    0 -0.30168319362E+00 -0.10982206934E+00  0.33455012800E+01  0.33608707876E+01  0.00000000000E+00 0. -1.
</event>
<event>
 5    1  0.6645559E+001  0.1599659E+01  0.7818608E-02  0.3353733E+00
         11   -1    0    0    0    0  0.00000000000E+00  0.00000000000E+00  0.39999999674E+01  0.40000000000E+01  0.51100000000E-03 0. -1.
    9000002   -1    0    0    0    0 -0.00000000000E+00 -0.00000000000E+00  0.00000000000E+00  0.93800000000E+00  0.93800000000E+00 0.  1.
         11    1    1    2    0    0 -0.46230276899E-03 -0.21595405998E-02  0.28047122150E-01  0.28138577102E-01  0.51100000000E-03 0. -1.
    9000002    1    1    2    0    0  0.79220313254E-01  0.39520871165E+00  0.10964466198E+00  0.10268065717E+01  0.93800000000E+00 0.  1.
         22    1    1    2    0    0 -0.78758010485E-01 -0.39304917105E+00  0.38623081832E+01  0.38830548512E+01  0.00000000000E+00 0. -1.
</event>
<event>
 5    1  0.6645559E+001  0.1552803E+01  0.7818608E-02  0.3406238E+00
         11   -1    0    0    0    0  0.00000000000E+00  0.00000000000E+00  0.39999999674E+01  0.40000000000E+01  0.51100000000E-03 0.  1.
    9000002   -1    0    0    0    0 -0.00000000000E+00 -0.00000000000E+00  0.00000000000E+00  0.93800000000E+00  0.93800000000E+00 0.  1.
         11    1    1    2    0    0  0.10672801250E+00 -0.22016052619E+00  0.14735695997E+01  0.14937433355E+01  0.51100000000E-03 0.  1.
    9000002    1    1    2    0    0  0.25938868724E+00  0.19093265834E+00  0.10745937042E+00  0.99756167097E+00  0.93800000000E+00 0.  1.
         22    1    1    2    0    0 -0.36611669974E+00  0.29227867853E-01  0.24189709972E+01  0.24466949936E+01  0.00000000000E+00 0.  1.
</event>
<event>
 5    1  0.6645559E+001  0.1589498E+01  0.7818608E-02  0.3364842E+00
         11   -1    0    0    0    0  0.00000000000E+00  0.00000000000E+00  0.39999999674E+01  0.40000000000E+01  0.51100000000E-03 0. -1.
    9000002   -1    0    0    0    0 -0.00000000000E+00 -0.00000000000E+00  0.00000000000E+00  0.93800000000E+00  0.93800000000E+00 0. -1.
         11    1    1    2    0    0  0.97313229110E-01  0.38545237618E-01  0.60049751052E+00  0.60955157383E+00  0.51100000000E-03 0. -1.
    9000002    1    1    2    0    0 -0.20126938247E+00 -0.61893824326E+00  0.30977326774E+00  0.11829612803E+01  0.93800000000E+00 0. -1.
         22    1    1    2    0    0  0.10395615336E+00  0.58039300564E+00  0.30897291891E+01  0.31454871459E+01  0.00000000000E+00 0. -1.
</event>
<event>
 5    1  0.6645559E+001  0.1599265E+01  0.7818608E-02  0.3354161E+00
         11   -1    0    0    0    0  0.00000000000E+00  0.00000000000E+00  0.39999999674E+01  0.40000000000E+01  0.51100000000E-03 0. -1.
    9000002   -1    0    0    0    0 -0.00000000000E+00 -0.00000000000E+00  0.00000000000E+00  0.93800000000E+00  0.93800000000E+00 0. -1.
         11    1    1    2    0    0  0.29988794242E-01 -0.32083189920E-01  0.48269169434E+00  0.48468566284E+00  0.51100000000E-03 0. -1.
    9000002    1    1    2    0    0 -0.19653003147E+00  0.37952407036E+00  0.12401055172E+00  0.10382124976E+01  0.93800000000E+00 0. -1.
         22    1    1    2    0    0  0.16654123723E+00 -0.34744088044E+00  0.33932977213E+01  0.34151018395E+01  0.00000000000E+00 0. -1.
</event>
<event>
 5    1  0.6645559E+001  0.1598993E+01  0.7818608E-02  0.3354457E+00
         11   -1    0    0    0    0  0.00000000000E+00  0.00000000000E+00  0.39999999674E+01  0.40000000000E+01  0.51100000000E-03 0. -1.
    9000002   -1    0    0    0    0 -0.00000000000E+00 -0.00000000000E+00  0.00000000000E+00  0.93800000000E+00  0.93800000000E+00 0.  1.
         11    1    1    2    0    0 -0.20978369897E+00 -0.11919414400E+00  0.13798419000E+01  0.14007784887E+01  0.51100000000E-03 0. -1.
    9000002    1    1    2    0    0  0.48961838735E+00  0.31323866183E+00  0.23545744334E+00  0.11283301078E+01  0.93800000000E+00 0.  1.
         22    1    1    2    0    0 -0.27983468838E+00 -0.19404451783E+00  0.23847006240E+01  0.24088914035E+01  0.00000000000E+00 0. -1.
</event>
<event>
 5    1  0.6645559E+001  0.1571506E+01  0.7818608E-02  0.3384883E+00
         11   -1    0    0    0    0  0.00000000000E+00  0.00000000000E+00  0.39999999674E+01  0.40000000000E+01  0.51100000000E-03 0. -1.
    9000002   -1    0    0    0    0 -0.00000000000E+00 -0.00000000000E+00  0.00000000000E+00  0.93800000000E+00  0.93800000000E+00 0. -1.
         11    1    1    2    0    0 -0.29790075036E+00  0.36351103328E-01  0.13165442798E+01  0.13503167634E+01  0.51100000000E-03 0. -1.
    9000002    1    1    2    0    0  0.41107304426E+00 -0.43894464712E+00  0.28101476011E+00  0.11491156366E+01  0.93800000000E+00 0. -1.
         22    1    1    2    0    0 -0.11317229390E+00  0.40259354380E+00  0.24024409274E+01  0.24385675999E+01  0.00000000000E+00 0. -1.
</event>
<event>
 5    1  0.6645559E+001  0.1597775E+01  0.7818608E-02  0.3355782E+00
         11   -1    0    0    0    0  0.00000000000E+00  0.00000000000E+00  0.39999999674E+01  0.40000000000E+01  0.51100000000E-03 0.  1.
    9000002   -1    0    0    0    0 -0.00000000000E+00 -0.00000000000E+00  0.00000000000E+00  0.93800000000E+00  0.93800000000E+00 0.  1.
         11    1    1    2    0    0  0.76648302891E-01  0.18817538590E-01  0.39300489825E+00  0.40085180961E+00  0.51100000000E-03 0.  1.
    9000002    1    1    2    0    0 -0.54679870922E+00  0.62332622937E-01  0.21100675198E+00  0.11078095656E+01  0.93800000000E+00 0.  1.
         22    1    1    2    0    0  0.47015040633E+00 -0.81150161527E-01  0.33959883171E+01  0.34293386248E+01  0.00000000000E+00 0.  1.
</event>
<event>
 5    1  0.6645559E+001  0.1599676E+01  0.7818608E-02  0.3353715E+00
         11   -1    0    0    0    0  0.00000000000E+00  0.00000000000E+00  0.39999999674E+01  0.40000000000E+01  0.51100000000E-03 0.  1.
    9000002   -1    0    0    0    0 -0.00000000000E+00 -0.00000000000E+00  0.00000000000E+00  0.93800000000E+00  0.93800000000E+00 0. -1.
         11    1    1    2    0    0  0.40024316487E-02  0.19292969854E-01  0.17683166219E+00  0.17792677151E+00  0.51100000000E-03 0. -1.
    9000002    1    1    2    0    0 -0.85985751571E-01 -0.41738517086E+00  0.12292407072E+00  0.10375732540E+01  0.93800000000E+00 0. -1.
         22    1    1    2    0    0  0.81983319922E-01  0.39809220101E+00  0.37002442345E+01  0.37224999745E+01  0.00000000000E+00 0.  1.
</event>
<event>
 5    1  0.7135011E+001  0.1592410E+01  0.7818608E-02  0.3361642E+00
         11   -1    0    0    0    0  0.00000000000E+00  0.00000000000E+00  0.39999999674E+01  0.40000000000E+01  0.51100000000E-03 0.  1.
    9000002   -1    0    0    0    0 -0.00000000000E+00 -0.00000000000E+00  0.00000000000E+00  0.93800000000E+00  0.93800000000E+00 0.  1.
         11    1    1    2    0    0 -0.38820430005E-01 -0.78302379575E-01  0.11907423324E+01  0.11939454978E+01  0.51100000000E-03 0.  1.
    9000002    1    1    2    0    0  0.27898848453E+00 -0.13928536392E-01  0.57607373822E-01  0.98040358432E+00  0.93800000000E+00 0.  1.
         22    1    1    2    0    0 -0.24016805452E+00  0.92230915968E-01  0.27516502612E+01  0.27636509179E+01  0.00000000000E+00 0.  1.
</event>
<event>
 5    1  0.6645559E+001  0.1599272E+01  0.7818608E-02  0.3354154E+00
         11   -1    0    0    0    0  0.00000000000E+00  0.00000000000E+00  0.39999999674E+01  0.40000000000E+01  0.51100000000E-03 0. -1.
    9000002   -1    0    0    0    0 -0.00000000000E+00 -0.00000000000E+00  0.00000000000E+00  0.93800000000E+00  0.93800000000E+00 0.  1.
         11    1    1    2    0    0 -0.15347120613E+00 -0.11861309340E-01  0.12802092878E+01  0.12894301779E+01  0.51100000000E-03 0. -1.
    9000002    1    1    2    0    0  0.40898457771E+00 -0.35778175600E-02  0.11330560292E+00  0.10295452128E+01  0.93800000000E+00 0.  1.
         22    1    1    2    0    0 -0.25551337158E+00  0.15439126900E-01  0.26064850766E+01  0.26190246093E+01  0.00000000000E+00 0. -1.
</event>
<event>
 5    1  0.6645559E+001  0.1599618E+01  0.7818608E-02  0.3353778E+00
         11   -1    0    0    0    0  0.00000000000E+00  0.00000000000E+00  0.39999999674E+01  0.40000000000E+01  0.51100000000E-03 0. -1.
    9000002   -1    0    0    0    0 -0.00000000000E+00 -0.00000000000E+00  0.00000000000E+00  0.93800000000E+00  0.93800000000E+00 0. -1.
         11    1    1    2    0    0 -0.63097688094E-01 -0.58100690594E-01  0.70525781897E+00  0.71045468598E+00  0.51100000000E-03 0. -1.
    9000002    1    1    2    0    0  0.38112951026E+00  0.32238906488E+00  0.17061772217E+00  0.10761732295E+01  0.93800000000E+00 0. -1.
         22    1    1    2    0    0 -0.31803182216E+00 -0.26428837429E+00  0.31241244262E+01  0.31513720845E+01  0.00000000000E+00 0. -1.
</event>
<event>
 5    1  0.6645559E+001  0.1599319E+01  0.7818608E-02  0.3354103E+00
         11   -1    0    0    0    0  0.00000000000E+00  0.00000000000E+00  0.39999999674E+01  0.40000000000E+01  0.51100000000E-03 0.  1.
    9000002   -1    0    0    0    0 -0.00000000000E+00 -0.00000000000E+00  0.00000000000E+00  0.93800000000E+00  0.93800000000E+00 0.  1.
         11    1    1    2    0    0 -0.15613041617E+00  0.22731964045E-02  0.14586704265E+01  0.14670042770E+01  0.51100000000E-03 0.  1.
    9000002    1    1    2    0    0  0.43953824438E+00  0.46710367639E-01  0.13284912260E+00  0.10454035661E+01  0.93800000000E+00 0.  1.
         22    1    1    2    0    0 -0.28340782820E+00 -0.48983564044E-01  0.24084804182E+01  0.24255921569E+01  0.00000000000E+00 0.  1.
</event>
<event>
 5    1  0.6645559E+001  0.1558912E+01  0.7818608E-02  0.3399203E+00
         11   -1    0    0    0    0  0.00000000000E+00  0.00000000000E+00  0.39999999674E+01  0.40000000000E+01  0.51100000000E-03 0.  1.
    9000002   -1    0    0    0    0 -0.00000000000E+00 -0.00000000000E+00  0.00000000000E+00  0.93800000000E+00  0.93800000000E+00 0.  1.
         11    1    1    2    0    0  0.11620514602E+00  0.72077572720E-01  0.88167735366E+00  0.89221859963E+00  0.51100000000E-03 0.  1.
    9000002    1    1    2    0    0  0.51663306278E-01  0.37973465077E+00  0.13318603650E+00  0.10219833768E+01  0.93800000000E+00 0.  1.
         22    1    1    2    0    0 -0.16786845230E+00 -0.45181222349E+00  0.29851365772E+01  0.30237980235E+01  0.00000000000E+00 0.  1.
</event>
<event>
 5    1  0.6645559E+001  0.1599546E+01  0.7818608E-02  0.3353856E+00
         11   -1    0    0    0    0  0.00000000000E+00  0.00000000000E+00  0.39999999674E+01  0.40000000000E+01  0.51100000000E-03 0.  1.
    9000002   -1    0    0    0    0 -0.00000000000E+00 -0.00000000000E+00  0.00000000000E+00  0.93800000000E+00  0.93800000000E+00 0. -1.
         11    1    1    2    0    0  0.12162965533E+00 -0.95895621684E-01  0.14024789793E+01  0.14110057731E+01  0.51100000000E-03 0.  1.
    9000002    1    1    2    0    0 -0.34236322678E+00  0.22938039212E+00  0.11484342161E+00  0.10309514803E+01  0.93800000000E+00 0. -1.
         22    1    1    2    0    0  0.22073357145E+00 -0.13348477044E+00  0.24826775664E+01  0.24960427465E+01  0.00000000000E+00 0. -1.
</event>
<event>
 5    1  0.6645559E+001  0.1599675E+01  0.7818608E-02  0.3353716E+00
         11   -1    0    0    0    0  0.00000000000E+00  0.00000000000E+00  0.39999999674E+01  0.40000000000E+01  0.51100000000E-03 0. -1.
    9000002   -1    0    0    0    0 -0.00000000000E+00 -0.00000000000E+00  0.00000000000E+00  0.93800000000E+00  0.93800000000E+00 0. -1.
         11    1    1    2    0    0  0.43973232603E-01 -0.28485925409E-01  0.34221751614E+00  0.34620540522E+00  0.51100000000E-03 0. -1.
    9000002    1    1    2    0    0 -0.48405314108E+00  0.32242103686E+00  0.23510078804E+00  0.11284410259E+01  0.93800000000E+00 0. -1.
         22    1    1    2    0    0  0.44007990847E+00 -0.29393511146E+00  0.34226816632E+01  0.34633535689E+01  0.00000000000E+00 0. -1.
</event>
<event>
 5    1  0.6645559E+001  0.1599619E+01  0.7818608E-02  0.3353777E+00
         11   -1    0    0    0    0  0.00000000000E+00  0.00000000000E+00  0.39999999674E+01  0.40000000000E+01  0.51100000000E-03 0. -1.
    9000002   -1    0    0    0    0 -0.00000000000E+00 -0.00000000000E+00  0.00000000000E+00  0.93800000000E+00  0.93800000000E+00 0. -1.
         11    1    1    2    0    0  0.11291756883E+00  0.33851416663E+00  0.92222793761E+00  0.98886138987E+00  0.51100000000E-03 0. -1.
    9000002    1    1    2    0    0 -0.37167053188E+00 -0.10697810989E+01  0.11361224954E+01  0.18582757891E+01  0.93800000000E+00 0. -1.
         22    1    1    2    0    0  0.25875296305E+00  0.73126693226E+00  0.19416495343E+01  0.20908628210E+01  0.00000000000E+00 0. -1.
</event>
<event>
 5    1  0.9087216E+001  0.1568364E+01  0.7818608E-02  0.3388432E+00
         11   -1    0    0    0    0  0.00000000000E+00  0.00000000000E+00  0.39999999674E+01  0.40000000000E+01  0.51100000000E-03 0.  1.
    9000002   -1    0    0    0    0 -0.00000000000E+00 -0.00000000000E+00  0.00000000000E+00  0.93800000000E+00  0.93800000000E+00 0. -1.
         11    1    1    2    0    0  0.77257922854E-02  0.12547302062E+00  0.62074828718E+00  0.63334971692E+00  0.51100000000E-03 0.  1.
    9000002    1    1    2    0    0  0.78241219024E-02  0.18735522862E+00  0.47003537677E-01  0.95771422206E+00  0.93800000000E+00 0. -1.
         22    1    1    2    0    0 -0.15549914188E-01 -0.31282824923E+00  0.33322481425E+01  0.33469360610E+01  0.00000000000E+00 0.  1.
</event>
<event>
 5    1  0.6645559E+001  0.1599675E+01  0.7818608E-02  0.3353716E+00
         11   -1    0    0    0    0  0.00000000000E+00  0.00000000000E+00  0.39999999674E+01  0.40000000000E+01  0.51100000000E-03 0.  1.
    9000002   -1    0    0    0    0 -0.00000000000E+00 -0.00000000000E+00  0.00000000000E+00  0.93800000000E+00  0.93800000000E+00 0.  1.
         11    1    1    2    0    0  0.63522091328E-01 -0.13864934632E+00  0.14353648290E+01  0.14434441973E+01  0.51100000000E-03 0.  1.
    9000002    1    1    2    0    0 -0.17147465435E+00  0.37112405715E+00  0.11286799969E+00  0.10294269320E+01  0.93800000000E+00 0.  1.
         22    1    1    2    0    0  0.10795256302E+00 -0.23247471083E+00  0.24517671387E+01  0.24651288707E+01  0.00000000000E+00 0.  1.
</event>
<event>
 5    1  0.6645559E+001  0.1599675E+01  0.7818608E-02  0.3353716E+00
         11   -1    0    0    0    0  0.00000000000E+00  0.00000000000E+00  0.39999999674E+01  0.40000000000E+01  0.51100000000E-03 0.  1.
    9000002   -1    0    0    0    0 -0.00000000000E+00 -0.00000000000E+00  0.00000000000E+00  0.93800000000E+00  0.93800000000E+00 0.  1.
         11    1    1    2    0    0 -0.19266571148E-01 -0.56782109460E-01  0.58382412755E+00  0.58689546066E+00  0.51100000000E-03 0.  1.
    9000002    1    1    2    0    0  0.13491670510E+00  0.38117334101E+00  0.11034444456E+00  0.10273828545E+01  0.93800000000E+00 0.  1.
         22    1    1    2    0    0 -0.11565013396E+00 -0.32439123155E+00  0.33058313953E+01  0.33237216849E+01  0.00000000000E+00 0.  1.
</event>
<event>
 5    1  0.6645559E+001  0.1599497E+01  0.7818608E-02  0.3353910E+00
         11   -1    0    0    0    0  0.00000000000E+00  0.00000000000E+00  0.39999999674E+01  0.40000000000E+01  0.51100000000E-03 0. -1.
    9000002   -1    0    0    0    0 -0.00000000000E+00 -0.00000000000E+00  0.00000000000E+00  0.93800000000E+00  0.93800000000E+00 0.  1.
         11    1    1    2    0    0 -0.31952472336E+00 -0.19769391384E+00  0.12784370627E+01  0.13325091057E+01  0.51100000000E-03 0. -1.
    9000002    1    1    2    0    0  0.80838438819E+00  0.47566750993E+00  0.68541763676E+00  0.14931129347E+01  0.93800000000E+00 0.  1.
         22    1    1    2    0    0 -0.48885966483E+00 -0.27797359609E+00  0.20361452679E+01  0.21123779595E+01  0.00000000000E+00 0. -1.
</event>
<event>
 5    1  0.6645559E+001  0.1598332E+01  0.7818608E-02  0.3355176E+00
         11   -1    0    0    0    0  0.00000000000E+00  0.00000000000E+00  0.39999999674E+01  0.40000000000E+01  0.51100000000E-03 0.  1.
    9000002   -1    0    0    0    0 -0.00000000000E+00 -0.00000000000E+00  0.00000000000E+00  0.93800000000E+00  0.93800000000E+00 0. -1.
         11    1    1    2    0    0  0.13956146069E-01 -0.14707181403E-01  0.19785315878E+00  0.19888994132E+00  0.51100000000E-03 0.  1.
    9000002    1    1    2    0    0 -0.42034034362E+00 -0.62842364929E-01  0.12338870017E+00  0.10371614815E+01  0.93800000000E+00 0. -1.
         22    1    1    2    0    0  0.40638419756E+00  0.77549546332E-01  0.36787581084E+01  0.37019485772E+01  0.00000000000E+00 0.  1.
</event>
<event>
 5    1  0.6645559E+001  0.1566765E+01  0.7818608E-02  0.3390245E+00
         11   -1    0    0    0    0  0.00000000000E+00  0.00000000000E+00  0.39999999674E+01  0.40000000000E+01  0.51100000000E-03 0.  1.
    9000002   -1    0    0    0    0 -0.00000000000E+00 -0.00000000000E+00  0.00000000000E+00  0.93800000000E+00  0.93800000000E+00 0. -1.
         11    1    1    2    0    0 -0.11556284374E+00 -0.18517589989E-01  0.50409795165E+00  0.51750621056E+00  0.51100000000E-03 0.  1.
    9000002    1    1    2    0    0 -0.23352598526E+00  0.32368330793E-01  0.62315867487E-01  0.96917973667E+00  0.93800000000E+00 0. -1.
         22    1    1    2    0    0  0.34908882900E+00 -0.13850740804E-01  0.34335861482E+01  0.34513140528E+01  0.00000000000E+00 0.  1.
</event>
<event>
 5    1  0.6645559E+001  0.1599537E+01  0.7818608E-02  0.3353866E+00
         11   -1    0    0    0    0  0.00000000000E+00  0.00000000000E+00  0.39999999674E+01  0.40000000000E+01  0.51100000000E-03 0. -1.
    9000002   -1    0    0    0    0 -0.00000000000E+00 -0.00000000000E+00  0.00000000000E+00  0.93800000000E+00  0.93800000000E+00 0. -1.
         11    1    1    2    0    0  0.86919940171E-02  0.78181133503E-01  0.63905753580E+00  0.64388091723E+00  0.51100000000E-03 0. -1.
    9000002    1    1    2    0    0 -0.29253825726E-01 -0.41502137281E+00  0.11712256207E+00  0.10327924384E+01  0.93800000000E+00 0. -1.
         22    1    1    2    0    0  0.20561831709E-01  0.33684023930E+00  0.32438198695E+01  0.32613266444E+01  0.00000000000E+00 0. -1.
</event>
<event>
 5    1  0.6645559E+001  0.1599588E+01  0.7818608E-02  0.3353810E+00
         11   -1    0    0    0    0  0.00000000000E+00  0.00000000000E+00  0.39999999674E+01  0.40000000000E+01  0.51100000000E-03 0. -1.
    9000002   -1    0    0    0    0 -0.00000000000E+00 -0.00000000000E+00  0.00000000000E+00  0.93800000000E+00  0.93800000000E+00 0. -1.
         11    1    1    2    0    0 -0.53767240112E-02 -0.27595922400E-01  0.33864722984E+00  0.33981267118E+00  0.51100000000E-03 0. -1.
    9000002    1    1    2    0    0  0.35376999106E-01  0.38621871478E+00  0.10137639672E+00  0.10200674495E+01  0.93800000000E+00 0. -1.
         22    1    1    2    0    0 -0.30000275095E-01 -0.35862279238E+00  0.35599763408E+01  0.35781198793E+01  0.00000000000E+00 0. -1.
</event>
<event>
 5    1  0.6645559E+001  0.1599565E+01  0.7818608E-02  0.3353835E+00
         11   -1    0    0    0    0  0.00000000000E+00  0.00000000000E+00  0.39999999674E+01  0.40000000000E+01  0.51100000000E-03 0. -1.
    9000002   -1    0    0    0    0 -0.00000000000E+00 -0.00000000000E+00  0.00000000000E+00  0.93800000000E+00  0.93800000000E+00 0. -1.
         11    1    1    2    0    0  0.16283579642E-02 -0.17265710910E-01  0.14309796992E+00  0.14414592065E+00  0.51100000000E-03 0. -1.
    9000002    1    1    2    0    0 -0.13235447062E+00  0.37433022743E+00  0.10638447891E+00  0.10241105811E+01  0.93800000000E+00 0. -1.
         22    1    1    2    0    0  0.13072611265E+00 -0.35706451652E+00  0.37505175185E+01  0.37697434982E+01  0.00000000000E+00 0. -1.
</event>
<event>
 5    1  0.6645559E+001  0.1599671E+01  0.7818608E-02  0.3353721E+00
         11   -1    0    0    0    0  0.00000000000E+00  0.00000000000E+00  0.39999999674E+01  0.40000000000E+01  0.51100000000E-03 0.  1.
    9000002   -1    0    0    0    0 -0.00000000000E+00 -0.00000000000E+00  0.00000000000E+00  0.93800000000E+00  0.93800000000E+00 0.  1.
         11    1    1    2    0    0 -0.53016713181E-01  0.13025893643E+00  0.10615927733E+01  0.10708677042E+01  0.51100000000E-03 0.  1.
    9000002    1    1    2    0    0  0.18448499911E+00 -0.46315885820E+00  0.17011105444E+00  0.10757939457E+01  0.93800000000E+00 0.  1.
         22    1    1    2    0    0 -0.13146828593E+00  0.33289992177E+00  0.27682961396E+01  0.27913383501E+01  0.00000000000E+00 0.  1.
</event>
<event>
 5    1  0.6645559E+001  0.1599667E+01  0.7818608E-02  0.3353725E+00
         11   -1    0    0    0    0  0.00000000000E+00  0.00000000000E+00  0.39999999674E+01  0.40000000000E+01  0.51100000000E-03 0.  1.
    9000002   -1    0    0    0    0 -0.00000000000E+00 -0.00000000000E+00  0.00000000000E+00  0.93800000000E+00  0.93800000000E+00 0.  1.
         11    1    1    2    0    0 -0.10335104854E+00 -0.83832931462E-01  0.11006491554E+01  0.11086650640E+01  0.51100000000E-03 0.  1.
    9000002    1    1    2    0    0  0.35034825579E+00  0.29246464794E+00  0.14160297562E+00  0.10526988522E+01  0.93800000000E+00 0.  1.
         22    1    1    2    0    0 -0.24699720726E+00 -0.20863171648E+00  0.27577478363E+01  0.27766360839E+01  0.00000000000E+00 0.  1.
</event>
<event>
 5    1  0.6645559E+001  0.1575419E+01  0.7818608E-02  0.3380483E+00
         11   -1    0    0    0    0  0.00000000000E+00  0.00000000000E+00  0.39999999674E+01  0.40000000000E+01  0.51100000000E-03 0.  1.
    9000002   -1    0    0    0    0 -0.00000000000E+00 -0.00000000000E+00  0.00000000000E+00  0.93800000000E+00  0.93800000000E+00 0. -1.
         11    1    1    2    0    0 -0.33844868806E-01 -0.25914300390E+00  0.82299339742E+00  0.86349230740E+00  0.51100000000E-03 0.  1.
    9000002    1    1    2    0    0 -0.28516523034E+00  0.60054185967E+00  0.33948902256E+00  0.11987770978E+01  0.93800000000E+00 0. -1.
         22    1    1    2    0    0  0.31901009915E+00 -0.34139885577E+00  0.28375175474E+01  0.28757305948E+01  0.00000000000E+00 0.  1.
</event>
<event>
 5    1  0.6645559E+001  0.1598760E+01  0.7818608E-02  0.3354710E+00
         11   -1    0    0    0    0  0.00000000000E+00  0.00000000000E+00  0.39999999674E+01  0.40000000000E+01  0.51100000000E-03 0.  1.
    9000002   -1    0    0    0    0 -0.00000000000E+00 -0.00000000000E+00  0.00000000000E+00  0.93800000000E+00  0.93800000000E+00 0.  1.
         11    1    1    2    0    0 -0.66746455989E-02 -0.16416357847E+00  0.13662465396E+01  0.13760901494E+01  0.51100000000E-03 0.  1.
    9000002    1    1    2    0    0 -0.76328558670E-01  0.48471831757E+00  0.16539105239E+00  0.10714364640E+01  0.93800000000E+00 0.  1.
         22    1    1    2    0    0  0.83003204269E-01 -0.32055473910E+00  0.24683623754E+01  0.24904733865E+01  0.00000000000E+00 0.  1.
</event>
<event>
 5    1  0.6645559E+001  0.1593246E+01  0.7818608E-02  0.3360727E+00
         11   -1    0    0    0    0  0.00000000000E+00  0.00000000000E+00  0.39999999674E+01  0.40000000000E+01  0.51100000000E-03 0.  1.
    9000002   -1    0    0    0    0 -0.00000000000E+00 -0.00000000000E+00  0.00000000000E+00  0.93800000000E+00  0.93800000000E+00 0.  1.
         11    1    1    2    0    0  0.79443468413E-01 -0.11081964328E+00  0.13725743918E+01  0.13793306275E+01  0.51100000000E-03 0.  1.
    9000002    1    1    2    0    0  0.34550867547E-01  0.34418386454E+00  0.85378474174E-01  0.10033891463E+01  0.93800000000E+00 0.  1.
         22    1    1    2    0    0 -0.11399433596E+00 -0.23336422126E+00  0.25420471014E+01  0.25552802262E+01  0.00000000000E+00 0. -1.
</event>
<event>
 5    1  0.6645559E+001  0.1599677E+01  0.7818608E-02  0.3353714E+00
         11   -1    0    0    0    0  0.00000000000E+00  0.00000000000E+00  0.39999999674E+01  0.40000000000E+01  0.51100000000E-03 0. -1.
    9000002   -1    0    0    0    0 -0.00000000000E+00 -0.00000000000E+00  0.00000000000E+00  0.93800000000E+00  0.93800000000E+00 0. -1.
         11    1    1    2    0    0 -0.16575502405E+00 -0.25322826801E-01  0.12705522744E+01  0.12815690839E+01  0.51100000000E-03 0. -1.
    9000002    1    1    2    0    0  0.50043429357E+00  0.76577695150E-01  0.17563691735E+00  0.10802735544E+01  0.93800000000E+00 0. -1.
         22    1    1    2    0    0 -0.33467926952E+00 -0.51254868348E-01  0.25538107756E+01  0.25761573618E+01  0.00000000000E+00 0. -1.
</event>
<event>
 5    1  0.6645559E+001  0.1596337E+01  0.7818608E-02  0.3357348E+00
         11   -1    0    0    0    0  0.00000000000E+00  0.00000000000E+00  0.39999999674E+01  0.40000000000E+01  0.51100000000E-03 0.  1.
    9000002   -1    0    0    0    0 -0.00000000000E+00 -0.00000000000E+00  0.00000000000E+00  0.93800000000E+00  0.93800000000E+00 0.  1.
         11    1    1    2    0    0  0.47097985672E-01  0.62709201015E-01  0.14037641472E+01  0.14059533087E+01  0.51100000000E-03 0.  1.
    9000002    1    1    2    0    0 -0.31177060591E+00 -0.12691131660E+00  0.78536315290E-01  0.99965961497E+00  0.93800000000E+00 0.  1.
         22    1    1    2    0    0  0.26467262024E+00  0.64202115587E-01  0.25176995048E+01  0.25323870763E+01  0.00000000000E+00 0.  1.
</event>
<event>
 5    1  0.6645559E+001  0.1599571E+01  0.7818608E-02  0.3353829E+00
         11   -1    0    0    0    0  0.00000000000E+00  0.00000000000E+00  0.39999999674E+01  0.40000000000E+01  0.51100000000E-03 0.  1.
    9000002   -1    0    0    0    0 -0.00000000000E+00 -0.00000000000E+00  0.00000000000E+00  0.93800000000E+00  0.93800000000E+00 0.  1.
         11    1    1    2    0    0  0.71333863381E-01 -0.65904486360E-01  0.80763193501E+00  0.81345038260E+00  0.51100000000E-03 0.  1.
    9000002    1    1    2    0    0 -0.37687895361E+00  0.28325068070E+00  0.15154698565E+00  0.10606974982E+01  0.93800000000E+00 0.  1.
         22    1    1    2    0    0  0.30554509023E+00 -0.21734619434E+00  0.30408210467E+01  0.30638521192E+01  0.00000000000E+00 0.  1.
</event>
<event>
 5    1  0.6645559E+001  0.1599614E+01  0.7818608E-02  0.3353782E+00
         11   -1    0    0    0    0  0.00000000000E+00  0.00000000000E+00  0.39999999674E+01  0.40000000000E+01  0.51100000000E-03 0.  1.
    9000002   -1    0    0    0    0 -0.00000000000E+00 -0.00000000000E+00  0.00000000000E+00  0.93800000000E+00  0.93800000000E+00 0. -1.
         11    1    1    2    0    0 -0.49840383377E-01 -0.10655783700E+00  0.12330953004E+01  0.12386940371E+01  0.51100000000E-03 0.  1.
    9000002    1    1    2    0    0  0.14729412825E+00  0.36294715951E+00  0.10343224196E+00  0.10217477328E+01  0.93800000000E+00 0. -1.
         22    1    1    2    0    0 -0.97453744875E-01 -0.25638932251E+00  0.26634724250E+01  0.26775582301E+01  0.00000000000E+00 0.  1.
</event>
<event>
 5    1  0.6645559E+001  0.1595170E+01  0.7818608E-02  0.3358622E+00
         11   -1    0    0    0    0  0.00000000000E+00  0.00000000000E+00  0.39999999674E+01  0.40000000000E+01  0.51100000000E-03 0. -1.
    9000002   -1    0    0    0    0 -0.00000000000E+00 -0.00000000000E+00  0.00000000000E+00  0.93800000000E+00  0.93800000000E+00 0.  1.
         11    1    1    2    0    0 -0.18654768205E-01 -0.17396921404E+00  0.14321477929E+01  0.14427961913E+01  0.51100000000E-03 0. -1.
    9000002    1    1    2    0    0 -0.13552143558E+00  0.37180906342E+00  0.10932577222E+00  0.10239160921E+01  0.93800000000E+00 0.  1.
         22    1    1    2    0    0  0.15417620378E+00 -0.19783984939E+00  0.24585264022E+01  0.24712877166E+01  0.00000000000E+00 0. -1.
</event>
<event>
 5    1  0.6645559E+001  0.1599677E+01  0.7818608E-02  0.3353714E+00
         11   -1    0    0    0    0  0.00000000000E+00  0.00000000000E+00  0.39999999674E+01  0.40000000000E+01  0.51100000000E-03 0. -1.
    9000002   -1    0    0    0    0 -0.00000000000E+00 -0.00000000000E+00  0.00000000000E+00  0.93800000000E+00  0.93800000000E+00 0. -1.
         11    1    1    2    0    0  0.16220869607E+00 -0.22367584916E-01  0.13582164813E+01  0.13680512568E+01  0.51100000000E-03 0. -1.
    9000002    1    1    2    0    0 -0.45893242039E+00  0.64241852028E-01  0.14614616003E+00  0.10563847226E+01  0.93800000000E+00 0. -1.
         22    1    1    2    0    0  0.29672372432E+00 -0.41874267112E-01  0.24956373260E+01  0.25135640206E+01  0.00000000000E+00 0. -1.
</event>
<event>
 5    1  0.6645559E+001  0.1599675E+01  0.7818608E-02  0.3353717E+00
         11   -1    0    0    0    0  0.00000000000E+00  0.00000000000E+00  0.39999999674E+01  0.40000000000E+01  0.51100000000E-03 0.  1.
    9000002   -1    0    0    0    0 -0.00000000000E+00 -0.00000000000E+00  0.00000000000E+00  0.93800000000E+00  0.93800000000E+00 0. -1.
         11    1    1    2    0    0  0.30932053110E-01  0.50201888688E-01  0.62417195952E+00  0.62695128815E+00  0.51100000000E-03 0.  1.
    9000002    1    1    2    0    0 -0.20149110937E+00 -0.31624620944E+00  0.94553209103E-01  0.10145908739E+01  0.93800000000E+00 0. -1.
         22    1    1    2    0    0  0.17055905626E+00  0.26604432075E+00  0.32812747987E+01  0.32964578379E+01  0.00000000000E+00 0.  1.
</event>
<event>
 5    1  0.6645559E+001  0.1599585E+01  0.7818608E-02  0.3353814E+00
         11   -1    0    0    0    0  0.00000000000E+00  0.00000000000E+00  0.39999999674E+01  0.40000000000E+01  0.51100000000E-03 0. -1.
    9000002   -1    0    0    0    0 -0.00000000000E+00 -0.00000000000E+00  0.00000000000E+00  0.93800000000E+00  0.93800000000E+00 0. -1.
         11    1    1    2    0    0  0.21950067038E-01 -0.73865848768E-01  0.85310152030E+00  0.85657482692E+00  0.51100000000E-03 0. -1.
    9000002    1    1    2    0    0 -0.14186655950E+00  0.32428421111E+00  0.84116878084E-01  0.10060844992E+01  0.93800000000E+00 0. -1.
         22    1    1    2    0    0  0.11991649247E+00 -0.25041836234E+00  0.30627815690E+01  0.30753406739E+01  0.00000000000E+00 0. -1.
</event>
<event>
 5    1  0.6645559E+001  0.1599537E+01  0.7818608E-02  0.3353866E+00
         11   -1    0    0    0    0  0.00000000000E+00  0.00000000000E+00  0.39999999674E+01  0.40000000000E+01  0.51100000000E-03 0. -1.
    9000002   -1    0    0    0    0 -0.00000000000E+00 -0.00000000000E+00  0.00000000000E+00  0.93800000000E+00  0.93800000000E+00 0.  1.
         11    1    1    2    0    0  0.11288003207E-01  0.25255537398E-01  0.19087560370E+00  0.19287047051E+00  0.51100000000E-03 0. -1.
    9000002    1    1    2    0    0 -0.17394867111E+00 -0.39924444020E+00  0.12865969391E+00  0.10421379851E+01  0.93800000000E+00 0.  1.
         22    1    1    2    0    0  0.16266066791E+00  0.37398890280E+00  0.36804646698E+01  0.37029915444E+01  0.00000000000E+00 0. -1.
</event>
<event>
 5    1  0.6645559E+001  0.1599660E+01  0.7818608E-02  0.3353733E+00
         11   -1    0    0    0    0  0.00000000000E+00  0.00000000000E+00  0.39999999674E+01  0.40000000000E+01  0.51100000000E-03 0.  1.
    9000002   -1    0    0    0    0 -0.00000000000E+00 -0.00000000000E+00  0.00000000000E+00  0.93800000000E+00  0.93800000000E+00 0. -1.
         11    1    1    2    0    0  0.14982976068E+00 -0.15027857608E-01  0.13919109521E+01  0.14000325544E+01  0.51100000000E-03 0.  1.
    9000002    1    1    2    0    0 -0.40504827129E+00  0.42145227473E-01  0.11198209514E+00  0.10287003023E+01  0.93800000000E+00 0. -1.
         22    1    1    2    0    0  0.25521851061E+00 -0.27117369865E-01  0.24961069201E+01  0.25092671433E+01  0.00000000000E+00 0.  1.
</event>
<event>
 5    1  0.1096746E+002  0.1595253E+01  0.7818608E-02  0.3358532E+00
         11   -1    0    0    0    0  0.00000000000E+00  0.00000000000E+00  0.39999999674E+01  0.40000000000E+01  0.51100000000E-03 0. -1.
    9000002   -1    0    0    0    0 -0.00000000000E+00 -0.00000000000E+00  0.00000000000E+00  0.93800000000E+00  0.93800000000E+00 0. -1.
         11    1    1    2    0    0 -0.41316655322E-01 -0.42073790920E-01  0.14959560840E+01  0.14971179433E+01  0.51100000000E-03 0. -1.
    9000002    1    1    2    0    0 -0.16404301789E-01  0.27329221796E+00  0.53314621916E-01  0.97859296259E+00  0.93800000000E+00 0. -1.
         22    1    1    2    0    0  0.57720957111E-01 -0.23121842704E+00  0.24507292615E+01  0.24622890941E+01  0.00000000000E+00 0. -1.
</event>
<event>
 5    1  0.6645559E+001  0.1599677E+01  0.7818608E-02  0.3353714E+00
         11   -1    0    0    0    0  0.00000000000E+00  0.00000000000E+00  0.39999999674E+01  0.40000000000E+01  0.51100000000E-03 0. -1.
    9000002   -1    0    0    0    0 -0.00000000000E+00 -0.00000000000E+00  0.00000000000E+00  0.93800000000E+00  0.93800000000E+00 0.  1.
         11    1    1    2    0    0 -0.86542234801E-01  0.58042706984E-01  0.75778487245E+00  0.76491613153E+00  0.51100000000E-03 0. -1.
    9000002    1    1    2    0    0  0.43455819985E+00 -0.29383349126E+00  0.18917893587E+00  0.10912431532E+01  0.93800000000E+00 0.  1.
         22    1    1    2    0    0 -0.34801596505E+00  0.23579078428E+00  0.30530361590E+01  0.30818407153E+01  0.00000000000E+00 0. -1.
</event>
<event>
 5    1  0.6645559E+001  0.1599674E+01  0.7818608E-02  0.3353717E+00
         11   -1    0    0    0    0  0.00000000000E+00  0.00000000000E+00  0.39999999674E+01  0.40000000000E+01  0.51100000000E-03 0. -1.
    9000002   -1    0    0    0    0 -0.00000000000E+00 -0.00000000000E+00  0.00000000000E+00  0.93800000000E+00  0.93800000000E+00 0.  1.
         11    1    1    2    0    0  0.15904961980E-01  0.10993645151E+00  0.11467738023E+01  0.11521412265E+01  0.51100000000E-03 0. -1.
    9000002    1    1    2    0    0 -0.59950273101E-01 -0.37571636100E+00  0.97405917184E-01  0.10169015350E+01  0.93800000000E+00 0.  1.
         22    1    1    2    0    0  0.44045311121E-01  0.26577990949E+00  0.27558202479E+01  0.27689572385E+01  0.00000000000E+00 0. -1.
</event>
<event>
 5    1  0.6645559E+001  0.1599675E+01  0.7818608E-02  0.3353716E+00
         11   -1    0    0    0    0  0.00000000000E+00  0.00000000000E+00  0.39999999674E+01  0.40000000000E+01  0.51100000000E-03 0.  1.
    9000002   -1    0    0    0    0 -0.00000000000E+00 -0.00000000000E+00  0.00000000000E+00  0.93800000000E+00  0.93800000000E+00 0. -1.
         11    1    1    2    0    0  0.14252401032E+00  0.81763220510E-01  0.11977902696E+01  0.12090079028E+01  0.51100000000E-03 0.  1.
    9000002    1    1    2    0    0 -0.45095721110E+00 -0.26366497036E+00  0.18752745919E+00  0.10899046613E+01  0.93800000000E+00 0. -1.
         22    1    1    2    0    0  0.30843320078E+00  0.18190174985E+00  0.26146822385E+01  0.26390874359E+01  0.00000000000E+00 0.  1.
</event>
<event>
 5    1  0.6645559E+001  0.1599674E+01  0.7818608E-02  0.3353717E+00
         11   -1    0    0    0    0  0.00000000000E+00  0.00000000000E+00  0.39999999674E+01  0.40000000000E+01  0.51100000000E-03 0.  1.
    9000002   -1    0    0    0    0 -0.00000000000E+00 -0.00000000000E+00  0.00000000000E+00  0.93800000000E+00  0.93800000000E+00 0. -1.
         11    1    1    2    0    0  0.38133638161E-02  0.14409257366E-01  0.11164691573E+00  0.11263864059E+00  0.51100000000E-03 0. -1.
    9000002    1    1    2    0    0 -0.14803996153E+00 -0.49653857247E+00  0.18435656737E+00  0.10873351498E+01  0.93800000000E+00 0. -1.
         22    1    1    2    0    0  0.14422659771E+00  0.48212931511E+00  0.37039964843E+01  0.37380262096E+01  0.00000000000E+00 0.  1.
</event>
<event>
 5    1  0.6645559E+001  0.1521249E+01  0.7818608E-02  0.3443539E+00
         11   -1    0    0    0    0  0.00000000000E+00  0.00000000000E+00  0.39999999674E+01  0.40000000000E+01  0.51100000000E-03 0.  1.
    9000002   -1    0    0    0    0 -0.00000000000E+00 -0.00000000000E+00  0.00000000000E+00  0.93800000000E+00  0.93800000000E+00 0.  1.
         11    1    1    2    0    0 -0.18486501103E+00 -0.27934203577E+00  0.21497442282E+00  0.39802174418E+00  0.51100000000E-03 0.  1.
    9000002    1    1    2    0    0  0.47335964700E+00  0.10243690843E-01  0.38792539818E+00  0.11200466076E+01  0.93800000000E+00 0.  1.
         22    1    1    2    0    0 -0.28849463597E+00  0.26909834493E+00  0.33971001464E+01  0.34199316482E+01  0.00000000000E+00 0.  1.
</event>
<event>
 5    1  0.6645559E+001  0.1591291E+01  0.7818608E-02  0.3362871E+00
         11   -1    0    0    0    0  0.00000000000E+00  0.00000000000E+00  0.39999999674E+01  0.40000000000E+01  0.51100000000E-03 0. -1.
    9000002   -1    0    0    0    0 -0.00000000000E+00 -0.00000000000E+00  0.00000000000E+00  0.93800000000E+00  0.93800000000E+00 0. -1.
         11    1    1    2    0    0  0.49404301177E-01  0.77343090785E-01  0.91208702510E+00  0.91669282813E+00  0.51100000000E-03 0. -1.
    9000002    1    1    2    0    0  0.18561414760E+00 -0.36686710126E+00  0.12125627295E+00  0.10313055636E+01  0.93800000000E+00 0. -1.
         22    1    1    2    0    0 -0.23501844878E+00  0.28952401047E+00  0.29666566693E+01  0.29900016083E+01  0.00000000000E+00 0. -1.
</event>
<event>
 5    1  0.6645559E+001  0.1599603E+01  0.7818608E-02  0.3353794E+00
         11   -1    0    0    0    0  0.00000000000E+00  0.00000000000E+00  0.39999999674E+01  0.40000000000E+01  0.51100000000E-03 0. -1.
    9000002   -1    0    0    0    0 -0.00000000000E+00 -0.00000000000E+00  0.00000000000E+00  0.93800000000E+00  0.93800000000E+00 0.  1.
         11    1    1    2    0    0 -0.69803319469E-01 -0.11419981748E+00  0.98333320922E+00  0.99240040468E+00  0.51100000000E-03 0. -1.
    9000002    1    1    2    0    0  0.23747796649E+00  0.43735050955E+00  0.16954474746E+00  0.10752956218E+01  0.93800000000E+00 0.  1.
         22    1    1    2    0    0 -0.16767464702E+00 -0.32315069207E+00  0.28471220107E+01  0.28703039736E+01  0.00000000000E+00 0. -1.
</event>
<event>
 5    1  0.6645559E+001  0.1588119E+01  0.7818608E-02  0.3366361E+00
         11   -1    0    0    0    0  0.00000000000E+00  0.00000000000E+00  0.39999999674E+01  0.40000000000E+01  0.51100000000E-03 0. -1.
    9000002   -1    0    0    0    0 -0.00000000000E+00 -0.00000000000E+00  0.00000000000E+00  0.93800000000E+00  0.93800000000E+00 0.  1.
         11    1    1    2    0    0  0.12552643959E+00 -0.33627612509E-01  0.10238374813E+01  0.10320519137E+01  0.51100000000E-03 0. -1.
    9000002    1    1    2    0    0 -0.77621957037E-01  0.29259746912E+00  0.70263762171E-01  0.98813938461E+00  0.93800000000E+00 0.  1.
         22    1    1    2    0    0 -0.47904482550E-01 -0.25896985661E+00  0.29058987239E+01  0.29178087017E+01  0.00000000000E+00 0. -1.
</event>
<event>
 5    1  0.6645559E+001  0.1593910E+01  0.7818608E-02  0.3360000E+00
         11   -1    0    0    0    0  0.00000000000E+00  0.00000000000E+00  0.39999999674E+01  0.40000000000E+01  0.51100000000E-03 0.  1.
    9000002   -1    0    0    0    0 -0.00000000000E+00 -0.00000000000E+00  0.00000000000E+00  0.93800000000E+00  0.93800000000E+00 0. -1.
         11    1    1    2    0    0  0.12174755878E+00 -0.57231011431E-01  0.66816570918E+00  0.68157430466E+00  0.51100000000E-03 0.  1.
    9000002    1    1    2    0    0 -0.30844188430E+00  0.42576885241E+00  0.19540576583E+00  0.10929057256E+01  0.93800000000E+00 0. -1.
         22    1    1    2    0    0  0.18669432551E+00 -0.36853784098E+00  0.31364284924E+01  0.31635199698E+01  0.00000000000E+00 0.  1.
</event>
<event>
 5    1  0.6645559E+001  0.1599676E+01  0.7818608E-02  0.3353715E+00
         11   -1    0    0    0    0  0.00000000000E+00  0.00000000000E+00  0.39999999674E+01  0.40000000000E+01  0.51100000000E-03 0.  1.
    9000002   -1    0    0    0    0 -0.00000000000E+00 -0.00000000000E+00  0.00000000000E+00  0.93800000000E+00  0.93800000000E+00 0. -1.
         11    1    1    2    0    0  0.77732771837E-01 -0.26196858644E-01  0.75543568072E+00  0.75987629786E+00  0.51100000000E-03 0. -1.
    9000002    1    1    2    0    0 -0.39657223778E+00  0.13165737522E+00  0.11805130459E+00  0.10336262936E+01  0.93800000000E+00 0. -1.
         22    1    1    2    0    0  0.31883946595E+00 -0.10546051658E+00  0.31265129821E+01  0.31444974086E+01  0.00000000000E+00 0.  1.
</event>
<event>
 5    1  0.6645559E+001  0.1599659E+01  0.7818608E-02  0.3353733E+00
         11   -1    0    0    0    0  0.00000000000E+00  0.00000000000E+00  0.39999999674E+01  0.40000000000E+01  0.51100000000E-03 0. -1.
    9000002   -1    0    0    0    0 -0.00000000000E+00 -0.00000000000E+00  0.00000000000E+00  0.93800000000E+00  0.93800000000E+00 0. -1.
         11    1    1    2    0    0  0.24097276859E+00 -0.28141017207E+00  0.11016056634E+01  0.11622370063E+01  0.51100000000E-03 0. -1.
    9000002    1    1    2    0    0 -0.67431105235E+00  0.78509562355E+00  0.88008625501E+00  0.16508986491E+01  0.93800000000E+00 0. -1.
         22    1    1    2    0    0  0.43333828376E+00 -0.50368545149E+00  0.20183080489E+01  0.21248643445E+01  0.00000000000E+00 0. -1.
</event>
<event>
 5    1  0.6645559E+001  0.1599677E+01  0.7818608E-02  0.3353714E+00
         11   -1    0    0    0    0  0.00000000000E+00  0.00000000000E+00  0.39999999674E+01  0.40000000000E+01  0.51100000000E-03 0.  1.
    9000002   -1    0    0    0    0 -0.00000000000E+00 -0.00000000000E+00  0.00000000000E+00  0.93800000000E+00  0.93800000000E+00 0. -1.
         11    1    1    2    0    0 -0.11034795433E+00 -0.20680328304E-01  0.88340533115E+00  0.89051085745E+00  0.51100000000E-03 0.  1.
    9000002    1    1    2    0    0  0.48086615785E+00  0.90243827078E-01  0.16357543671E+00  0.10705032151E+01  0.93800000000E+00 0. -1.
         22    1    1    2    0    0 -0.37051820352E+00 -0.69563498774E-01  0.29530191995E+01  0.29769859274E+01  0.00000000000E+00 0. -1.
</event>
<event>
 5    1  0.6645559E+001  0.1610416E+01  0.7818608E-02  0.3342135E+00
         11   -1    0    0    0    0  0.00000000000E+00  0.00000000000E+00  0.39999999674E+01  0.40000000000E+01  0.51100000000E-03 0. -1.
    9000002   -1    0    0    0    0 -0.00000000000E+00 -0.00000000000E+00  0.00000000000E+00  0.93800000000E+00  0.93800000000E+00 0. -1.
         11    1    1    2    0    0 -0.35912399002E+00  0.28244871732E-01  0.19348539849E+00  0.40890668071E+00  0.51100000000E-03 0. -1.
    9000002    1    1    2    0    0 -0.30389010164E-01  0.60887351626E-01  0.28176496813E+00  0.98176690655E+00  0.93800000000E+00 0.  1.
         22    1    1    2    0    0  0.38951300018E+00 -0.89132223358E-01  0.35247496007E+01  0.35473264127E+01  0.00000000000E+00 0. -1.
</event>
<event>
 5    1  0.6645559E+001  0.1591609E+01  0.7818608E-02  0.3362522E+00
         11   -1    0    0    0    0  0.00000000000E+00  0.00000000000E+00  0.39999999674E+01  0.40000000000E+01  0.51100000000E-03 0. -1.
    9000002   -1    0    0    0    0 -0.00000000000E+00 -0.00000000000E+00  0.00000000000E+00  0.93800000000E+00  0.93800000000E+00 0.  1.
         11    1    1    2    0    0 -0.32088578001E-01  0.11429619534E+00  0.56279183292E+00  0.57517667323E+00  0.51100000000E-03 0. -1.
    9000002    1    1    2    0    0 -0.17540022825E+00 -0.43523331695E+00  0.15710020097E+00  0.10605271111E+01  0.93800000000E+00 0.  1.
         22    1    1    2    0    0  0.20748880625E+00  0.32093712161E+00  0.32801079335E+01  0.33022962157E+01  0.00000000000E+00 0. -1.
</event>
<event>
 5    1  0.6645559E+001  0.1593393E+01  0.7818608E-02  0.3360566E+00
         11   -1    0    0    0    0  0.00000000000E+00  0.00000000000E+00  0.39999999674E+01  0.40000000000E+01  0.51100000000E-03 0.  1.
    9000002   -1    0    0    0    0 -0.00000000000E+00 -0.00000000000E+00  0.00000000000E+00  0.93800000000E+00  0.93800000000E+00 0. -1.
         11    1    1    2    0    0  0.10967117897E+00  0.11635109236E+00  0.13338644084E+01  0.13434135124E+01  0.51100000000E-03 0.  1.
    9000002    1    1    2    0    0 -0.42101495216E+00 -0.95467932851E-01  0.13161534045E+00  0.10409295432E+01  0.93800000000E+00 0. -1.
         22    1    1    2    0    0  0.31134377318E+00 -0.20883159511E-01  0.25345202185E+01  0.25536569444E+01  0.00000000000E+00 0.  1.
</event>
<event>
 5    1  0.6645559E+001  0.1539926E+01  0.7818608E-02  0.3421262E+00
         11   -1    0    0    0    0  0.00000000000E+00  0.00000000000E+00  0.39999999674E+01  0.40000000000E+01  0.51100000000E-03 0.  1.
    9000002   -1    0    0    0    0 -0.00000000000E+00 -0.00000000000E+00  0.00000000000E+00  0.93800000000E+00  0.93800000000E+00 0.  1.
         11    1    1    2    0    0 -0.10885555228E+00 -0.18025389529E+00  0.96488168982E+00  0.98759198787E+00  0.51100000000E-03 0.  1.
    9000002    1    1    2    0    0 -0.19280337133E+00 -0.78775152132E-01  0.75068269936E-01  0.96377274797E+00  0.93800000000E+00 0.  1.
         22    1    1    2    0    0  0.30165892361E+00  0.25902904742E+00  0.29600500076E+01  0.29866352642E+01  0.00000000000E+00 0.  1.
</event>
<event>
 5    1  0.7802106E+001  0.1599558E+01  0.7818608E-02  0.3353843E+00
         11   -1    0    0    0    0  0.00000000000E+00  0.00000000000E+00  0.39999999674E+01  0.40000000000E+01  0.51100000000E-03 0.  1.
    9000002   -1    0    0    0    0 -0.00000000000E+00 -0.00000000000E+00  0.00000000000E+00  0.93800000000E+00  0.93800000000E+00 0. -1.
         11    1    1    2    0    0 -0.67248084373E-01 -0.63547892149E-01  0.11800868478E+01  0.11837085236E+01  0.51100000000E-03 0.  1.
    9000002    1    1    2    0    0  0.26295579581E+00  0.21806129592E+00  0.78269898207E-01  0.10013324404E+01  0.93800000000E+00 0. -1.
         22    1    1    2    0    0 -0.19570771144E+00 -0.15451340377E+00  0.27416432214E+01  0.27529590360E+01  0.00000000000E+00 0.  1.
</event>
<event>
 5    1  0.6645559E+001  0.1598677E+01  0.7818608E-02  0.3354801E+00
         11   -1    0    0    0    0  0.00000000000E+00  0.00000000000E+00  0.39999999674E+01  0.40000000000E+01  0.51100000000E-03 0. -1.
    9000002   -1    0    0    0    0 -0.00000000000E+00 -0.00000000000E+00  0.00000000000E+00  0.93800000000E+00  0.93800000000E+00 0. -1.
         11    1    1    2    0    0 -0.14439606078E+00  0.20068513453E+00  0.13713478403E+01  0.13934561011E+01  0.51100000000E-03 0. -1.
    9000002    1    1    2    0    0  0.45438503449E+00 -0.46635137205E+00  0.30029395511E+00  0.11806649911E+01  0.93800000000E+00 0. -1.
         22    1    1    2    0    0 -0.30998897371E+00  0.26566623753E+00  0.23283581720E+01  0.23638789078E+01  0.00000000000E+00 0. -1.
</event>
<event>
 5    1  0.6645559E+001  0.1596468E+01  0.7818608E-02  0.3357206E+00
         11   -1    0    0    0    0  0.00000000000E+00  0.00000000000E+00  0.39999999674E+01  0.40000000000E+01  0.51100000000E-03 0.  1.
    9000002   -1    0    0    0    0 -0.00000000000E+00 -0.00000000000E+00  0.00000000000E+00  0.93800000000E+00  0.93800000000E+00 0.  1.
         11    1    1    2    0    0  0.47517912971E-01 -0.97140929399E-01  0.10551837186E+01  0.10607107302E+01  0.51100000000E-03 0.  1.
    9000002    1    1    2    0    0  0.47948144188E-01  0.36945108145E+00  0.95927625111E-01  0.10138240653E+01  0.93800000000E+00 0.  1.
         22    1    1    2    0    0 -0.95466057159E-01 -0.27231015205E+00  0.28488886237E+01  0.28634652045E+01  0.00000000000E+00 0.  1.
</event>
<event>
 5    1  0.6645559E+001  0.1598587E+01  0.7818608E-02  0.3354899E+00
         11   -1    0    0    0    0  0.00000000000E+00  0.00000000000E+00  0.39999999674E+01  0.40000000000E+01  0.51100000000E-03 0. -1.
    9000002   -1    0    0    0    0 -0.00000000000E+00 -0.00000000000E+00  0.00000000000E+00  0.93800000000E+00  0.93800000000E+00 0. -1.
         11    1    1    2    0    0  0.58992392601E-01 -0.20254194859E+00  0.74948278443E+00  0.77860647865E+00  0.51100000000E-03 0. -1.
    9000002    1    1    2    0    0 -0.11771580451E+00  0.92915669435E+00  0.68449861636E+00  0.14918349537E+01  0.93800000000E+00 0. -1.
         22    1    1    2    0    0  0.58723411904E-01 -0.72661474575E+00  0.25660185666E+01  0.26675585676E+01  0.00000000000E+00 0. -1.
</event>
<event>
 5    1  0.6645559E+001  0.1599034E+01  0.7818608E-02  0.3354413E+00
         11   -1    0    0    0    0  0.00000000000E+00  0.00000000000E+00  0.39999999674E+01  0.40000000000E+01  0.51100000000E-03 0. -1.
    9000002   -1    0    0    0    0 -0.00000000000E+00 -0.00000000000E+00  0.00000000000E+00  0.93800000000E+00  0.93800000000E+00 0. -1.
         11    1    1    2    0    0 -0.68611261576E-01  0.34406973239E-01  0.79303684780E+00  0.79674277412E+00  0.51100000000E-03 0. -1.
    9000002    1    1    2    0    0  0.40288389019E+00 -0.68096071750E-01  0.11327739857E+00  0.10293824717E+01  0.93800000000E+00 0. -1.
         22    1    1    2    0    0 -0.33427262861E+00  0.33689098511E-01  0.30936857210E+01  0.31118747542E+01  0.00000000000E+00 0. -1.
</event>
<event>
 5    1  0.6645559E+001  0.1569400E+01  0.7818608E-02  0.3387260E+00
         11   -1    0    0    0    0  0.00000000000E+00  0.00000000000E+00  0.39999999674E+01  0.40000000000E+01  0.51100000000E-03 0.  1.
    9000002   -1    0    0    0    0 -0.00000000000E+00 -0.00000000000E+00  0.00000000000E+00  0.93800000000E+00  0.93800000000E+00 0.  1.
         11    1    1    2    0    0 -0.38964219008E+00  0.33736970005E+00  0.56357340478E+00  0.76371106742E+00  0.51100000000E-03 0.  1.
    9000002    1    1    2    0    0  0.43041846137E+00  0.18195215123E+00  0.44614210892E+00  0.11389703326E+01  0.93800000000E+00 0.  1.
         22    1    1    2    0    0 -0.40776271290E-01 -0.51932185127E+00  0.29902844537E+01  0.30353186000E+01  0.00000000000E+00 0.  1.
</event>
<event>
 5    1  0.6645559E+001  0.1558777E+01  0.7818608E-02  0.3399357E+00
         11   -1    0    0    0    0  0.00000000000E+00  0.00000000000E+00  0.39999999674E+01  0.40000000000E+01  0.51100000000E-03 0.  1.
    9000002   -1    0    0    0    0 -0.00000000000E+00 -0.00000000000E+00  0.00000000000E+00  0.93800000000E+00  0.93800000000E+00 0.  1.
         11    1    1    2    0    0 -0.15552686733E+00 -0.91152134399E-01  0.56474261811E+00  0.59281683840E+00  0.51100000000E-03 0.  1.
    9000002    1    1    2    0    0  0.23607426845E+00 -0.21902896697E+00  0.10246582665E+00  0.99701955559E+00  0.93800000000E+00 0.  1.
         22    1    1    2    0    0 -0.80547401112E-01  0.31018110137E+00  0.33327915226E+01  0.33481636060E+01  0.00000000000E+00 0.  1.
</event>
<event>
 5    1  0.6645559E+001  0.1571195E+01  0.7818608E-02  0.3385233E+00
         11   -1    0    0    0    0  0.00000000000E+00  0.00000000000E+00  0.39999999674E+01  0.40000000000E+01  0.51100000000E-03 0.  1.
    9000002   -1    0    0    0    0 -0.00000000000E+00 -0.00000000000E+00  0.00000000000E+00  0.93800000000E+00  0.93800000000E+00 0.  1.
         11    1    1    2    0    0 -0.23857803635E+00  0.68444290151E-01  0.77511005462E+00  0.81387957229E+00  0.51100000000E-03 0.  1.
    9000002    1    1    2    0    0  0.35851522670E+00 -0.31953532426E+00  0.18304290404E+00  0.10695722023E+01  0.93800000000E+00 0.  1.
         22    1    1    2    0    0 -0.11993719034E+00  0.25109103411E+00  0.30418470087E+01  0.30545482254E+01  0.00000000000E+00 0.  1.
</event>
<event>
 5    1  0.6645559E+001  0.1593201E+01  0.7818608E-02  0.3360776E+00
         11   -1    0    0    0    0  0.00000000000E+00  0.00000000000E+00  0.39999999674E+01  0.40000000000E+01  0.51100000000E-03 0.  1.
    9000002   -1    0    0    0    0 -0.00000000000E+00 -0.00000000000E+00  0.00000000000E+00  0.93800000000E+00  0.93800000000E+00 0. -1.
         11    1    1    2    0    0 -0.12731426556E+00 -0.96812198739E-03  0.44347630608E+00  0.46139067465E+00  0.51100000000E-03 0.  1.
    9000002    1    1    2    0    0  0.54632984701E+00  0.56223679189E-01  0.21444360424E+00  0.11079113066E+01  0.93800000000E+00 0. -1.
         22    1    1    2    0    0 -0.41901558145E+00 -0.55255557201E-01  0.33420800570E+01  0.33686980188E+01  0.00000000000E+00 0.  1.
</event>
<event>
 5    1  0.6645559E+001  0.1599676E+01  0.7818608E-02  0.3353715E+00
         11   -1    0    0    0    0  0.00000000000E+00  0.00000000000E+00  0.39999999674E+01  0.40000000000E+01  0.51100000000E-03 0. -1.
    9000002   -1    0    0    0    0 -0.00000000000E+00 -0.00000000000E+00  0.00000000000E+00  0.93800000000E+00  0.93800000000E+00 0. -1.
         11    1    1    2    0    0 -0.13463744353E+00  0.32506286559E-01  0.12268732821E+01  0.12346668423E+01  0.51100000000E-03 0. -1.
    9000002    1    1    2    0    0  0.42336190639E+00 -0.99103255021E-01  0.12812377132E+00  0.10417852272E+01  0.93800000000E+00 0. -1.
         22    1    1    2    0    0 -0.28872446286E+00  0.66596968462E-01  0.26450029139E+01  0.26615479305E+01  0.00000000000E+00 0. -1.
</event>
<event>
 5    1  0.6645559E+001  0.1599677E+01  0.7818608E-02  0.3353714E+00
         11   -1    0    0    0    0  0.00000000000E+00  0.00000000000E+00  0.39999999674E+01  0.40000000000E+01  0.51100000000E-03 0.  1.
    9000002   -1    0    0    0    0 -0.00000000000E+00 -0.00000000000E+00  0.00000000000E+00  0.93800000000E+00  0.93800000000E+00 0.  1.
         11    1    1    2    0    0 -0.54143595062E-01 -0.19186120291E-01  0.44582501206E+00  0.44951066572E+00  0.51100000000E-03 0. -1.
    9000002    1    1    2    0    0  0.46392552056E+00  0.16539309828E+00  0.16585484001E+00  0.10723495669E+01  0.93800000000E+00 0.  1.
         22    1    1    2    0    0 -0.40978192550E+00 -0.14620697799E+00  0.33883201153E+01  0.34161397674E+01  0.00000000000E+00 0.  1.
</event>
<event>
 5    1  0.6645559E+001  0.1448400E+01  0.7818608E-02  0.3536351E+00
         11   -1    0    0    0    0  0.00000000000E+00  0.00000000000E+00  0.39999999674E+01  0.40000000000E+01  0.51100000000E-03 0.  1.
    9000002   -1    0    0    0    0 -0.00000000000E+00 -0.00000000000E+00  0.00000000000E+00  0.93800000000E+00  0.93800000000E+00 0.  1.
         11    1    1    2    0    0 -0.28728463393E+00  0.36006508088E-01  0.53795083309E+00  0.61091757992E+00  0.51100000000E-03 0.  1.
    9000002    1    1    2    0    0 -0.29699652596E+00 -0.42488013152E-01  0.18962789902E+00  0.10029032395E+01  0.93800000000E+00 0.  1.
         22    1    1    2    0    0  0.58428115989E+00  0.64815050639E-02  0.32724212353E+01  0.33241791806E+01  0.00000000000E+00 0.  1.
</event>
<event>
 5    1  0.6645559E+001  0.1599353E+01  0.7818608E-02  0.3354066E+00
         11   -1    0    0    0    0  0.00000000000E+00  0.00000000000E+00  0.39999999674E+01  0.40000000000E+01  0.51100000000E-03 0.  1.
    9000002   -1    0    0    0    0 -0.00000000000E+00 -0.00000000000E+00  0.00000000000E+00  0.93800000000E+00  0.93800000000E+00 0.  1.
         11    1    1    2    0    0  0.14398693134E-02 -0.89752908919E-01  0.71378619675E+00  0.71940854434E+00  0.51100000000E-03 0.  1.
    9000002    1    1    2    0    0  0.28629542059E-01  0.40472027105E+00  0.11139128761E+00  0.10280419094E+01  0.93800000000E+00 0.  1.
         22    1    1    2    0    0 -0.30069411372E-01 -0.31496736213E+00  0.31748224830E+01  0.31905495463E+01  0.00000000000E+00 0. -1.
</event>
<event>
 5    1  0.6645559E+001  0.1599672E+01  0.7818608E-02  0.3353719E+00
         11   -1    0    0    0    0  0.00000000000E+00  0.00000000000E+00  0.39999999674E+01  0.40000000000E+01  0.51100000000E-03 0.  1.
    9000002   -1    0    0    0    0 -0.00000000000E+00 -0.00000000000E+00  0.00000000000E+00  0.93800000000E+00  0.93800000000E+00 0. -1.
         11    1    1    2    0    0  0.16944877449E-01 -0.11898323747E+00  0.12581100611E+01  0.12638375396E+01  0.51100000000E-03 0.  1.
    9000002    1    1    2    0    0 -0.59012544318E-01  0.36577116709E+00  0.92260560636E-01  0.10127324613E+01  0.93800000000E+00 0. -1.
         22    1    1    2    0    0  0.42067666869E-01 -0.24678792962E+00  0.26496293456E+01  0.26614299991E+01  0.00000000000E+00 0.  1.
</event>
<event>
 5    1  0.6645559E+001  0.1503627E+01  0.7818608E-02  0.3465099E+00
         11   -1    0    0    0    0  0.00000000000E+00  0.00000000000E+00  0.39999999674E+01  0.40000000000E+01  0.51100000000E-03 0.  1.
    9000002   -1    0    0    0    0 -0.00000000000E+00 -0.00000000000E+00  0.00000000000E+00  0.93800000000E+00  0.93800000000E+00 0.  1.
         11    1    1    2    0    0  0.26915617099E+00 -0.13556147349E+00  0.87303051003E+00  0.92358242190E+00  0.51100000000E-03 0.  1.
    9000002    1    1    2    0    0 -0.43053455937E-01 -0.17302885182E+00  0.96235030531E-01  0.95963418277E+00  0.93800000000E+00 0.  1.
         22    1    1    2    0    0 -0.22610271506E+00  0.30859032531E+00  0.30307344268E+01  0.30547833953E+01  0.00000000000E+00 0.  1.
</event>
<event>
 5    1  0.6645559E+001  0.1598293E+01  0.7818608E-02  0.3355218E+00
         11   -1    0    0    0    0  0.00000000000E+00  0.00000000000E+00  0.39999999674E+01  0.40000000000E+01  0.51100000000E-03 0. -1.
    9000002   -1    0    0    0    0 -0.00000000000E+00 -0.00000000000E+00  0.00000000000E+00  0.93800000000E+00  0.93800000000E+00 0.  1.
         11    1    1    2    0    0  0.76305918173E-01  0.13633087169E+00  0.11220196884E+01  0.11328447122E+01  0.51100000000E-03 0. -1.
    9000002    1    1    2    0    0 -0.23959703426E+00 -0.33295405560E+00  0.11480994429E+00  0.10301895288E+01  0.93800000000E+00 0.  1.
         22    1    1    2    0    0  0.16329111609E+00  0.19662318392E+00  0.27631703347E+01  0.27749657590E+01  0.00000000000E+00 0. -1.
</event>
<event>
 5    1  0.6645559E+001  0.1571341E+01  0.7818608E-02  0.3385068E+00
         11   -1    0    0    0    0  0.00000000000E+00  0.00000000000E+00  0.39999999674E+01  0.40000000000E+01  0.51100000000E-03 0. -1.
    9000002   -1    0    0    0    0 -0.00000000000E+00 -0.00000000000E+00  0.00000000000E+00  0.93800000000E+00  0.93800000000E+00 0. -1.
         11    1    1    2    0    0 -0.22758592954E+00 -0.14312721060E+00  0.14693317162E+01  0.14937257805E+01  0.51100000000E-03 0. -1.
    9000002    1    1    2    0    0  0.84740190576E-01  0.44476549241E+00  0.16424071809E+00  0.10544269802E+01  0.93800000000E+00 0. -1.
         22    1    1    2    0    0  0.14284573896E+00 -0.30163828181E+00  0.23664275330E+01  0.23898472393E+01  0.00000000000E+00 0. -1.
</event>
<event>
 5    1  0.6645559E+001  0.1565993E+01  0.7818608E-02  0.3391121E+00
         11   -1    0    0    0    0  0.00000000000E+00  0.00000000000E+00  0.39999999674E+01  0.40000000000E+01  0.51100000000E-03 0.  1.
    9000002   -1    0    0    0    0 -0.00000000000E+00 -0.00000000000E+00  0.00000000000E+00  0.93800000000E+00  0.93800000000E+00 0.  1.
         11    1    1    2    0    0 -0.15080822810E+00  0.28487785381E-02  0.93003217178E+00  0.94218434442E+00  0.51100000000E-03 0.  1.
    9000002    1    1    2    0    0 -0.13713134101E+00  0.15922027005E+00  0.55026812875E-01  0.96282295840E+00  0.93800000000E+00 0.  1.
         22    1    1    2    0    0  0.28793956911E+00 -0.16206904859E+00  0.30149409827E+01  0.30329926972E+01  0.00000000000E+00 0.  1.
</event>
<event>
 5    1  0.6645559E+001  0.1599674E+01  0.7818608E-02  0.3353717E+00
         11   -1    0    0    0    0  0.00000000000E+00  0.00000000000E+00  0.39999999674E+01  0.40000000000E+01  0.51100000000E-03 0. -1.
    9000002   -1    0    0    0    0 -0.00000000000E+00 -0.00000000000E+00  0.00000000000E+00  0.93800000000E+00  0.93800000000E+00 0. -1.
         11    1    1    2    0    0  0.16730371727E+00 -0.11124312211E+00  0.87246241853E+00  0.89529687752E+00  0.51100000000E-03 0. -1.
    9000002    1    1    2    0    0 -0.66959660479E+00  0.44494146060E+00  0.47674669984E+00  0.13241842516E+01  0.93800000000E+00 0. -1.
         22    1    1    2    0    0  0.50229288752E+00 -0.33369833849E+00  0.26507908490E+01  0.27185188708E+01  0.00000000000E+00 0. -1.
</event>
<event>
 5    1  0.6645559E+001  0.1599642E+01  0.7818608E-02  0.3353752E+00
         11   -1    0    0    0    0  0.00000000000E+00  0.00000000000E+00  0.39999999674E+01  0.40000000000E+01  0.51100000000E-03 0.  1.
    9000002   -1    0    0    0    0 -0.00000000000E+00 -0.00000000000E+00  0.00000000000E+00  0.93800000000E+00  0.93800000000E+00 0.  1.
         11    1    1    2    0    0  0.23176685606E-01 -0.10428214033E-01  0.27492423923E+00  0.27609691205E+00  0.51100000000E-03 0.  1.
    9000002    1    1    2    0    0 -0.34235943636E+00  0.19740985866E+00  0.10531177036E+00  0.10232864726E+01  0.93800000000E+00 0.  1.
         22    1    1    2    0    0  0.31918275076E+00 -0.18698164462E+00  0.36197639578E+01  0.36386166154E+01  0.00000000000E+00 0. -1.
</event>
<event>
 5    1  0.6645559E+001  0.1599672E+01  0.7818608E-02  0.3353720E+00
         11   -1    0    0    0    0  0.00000000000E+00  0.00000000000E+00  0.39999999674E+01  0.40000000000E+01  0.51100000000E-03 0. -1.
    9000002   -1    0    0    0    0 -0.00000000000E+00 -0.00000000000E+00  0.00000000000E+00  0.93800000000E+00  0.93800000000E+00 0. -1.
         11    1    1    2    0    0  0.28074383546E-01 -0.98636281332E-01  0.10048348742E+01  0.10100547869E+01  0.51100000000E-03 0. -1.
    9000002    1    1    2    0    0 -0.10816274785E+00  0.39097287129E+00  0.11108392440E+00  0.10279798657E+01  0.93800000000E+00 0. -1.
         22    1    1    2    0    0  0.80088364305E-01 -0.29233658996E+00  0.28840811687E+01  0.28999653473E+01  0.00000000000E+00 0. -1.
</event>
<event>
 5    1  0.6645559E+001  0.1599192E+01  0.7818608E-02  0.3354240E+00
         11   -1    0    0    0    0  0.00000000000E+00  0.00000000000E+00  0.39999999674E+01  0.40000000000E+01  0.51100000000E-03 0.  1.
    9000002   -1    0    0    0    0 -0.00000000000E+00 -0.00000000000E+00  0.00000000000E+00  0.93800000000E+00  0.93800000000E+00 0.  1.
         11    1    1    2    0    0  0.29972383740E-01  0.12537397779E+00  0.82155380941E+00  0.83160561625E+00  0.51100000000E-03 0.  1.
    9000002    1    1    2    0    0 -0.22706981292E+00 -0.52990587940E+00  0.23122770682E+00  0.11250205302E+01  0.93800000000E+00 0.  1.
         22    1    1    2    0    0  0.19709742918E+00  0.40453190161E+00  0.29472184511E+01  0.29813738536E+01  0.00000000000E+00 0. -1.
</event>
<event>
 5    1  0.6645559E+001  0.1599677E+01  0.7818608E-02  0.3353714E+00
         11   -1    0    0    0    0  0.00000000000E+00  0.00000000000E+00  0.39999999674E+01  0.40000000000E+01  0.51100000000E-03 0. -1.
    9000002   -1    0    0    0    0 -0.00000000000E+00 -0.00000000000E+00  0.00000000000E+00  0.93800000000E+00  0.93800000000E+00 0. -1.
         11    1    1    2    0    0 -0.11832366337E-01  0.52020433328E-01  0.42382817870E+00  0.42717293519E+00  0.51100000000E-03 0.  1.
    9000002    1    1    2    0    0  0.10471068329E+00 -0.47204262081E+00  0.15960859824E+00  0.10672897768E+01  0.93800000000E+00 0. -1.
         22    1    1    2    0    0 -0.92878316950E-01  0.42002218748E+00  0.34165631904E+01  0.34435372880E+01  0.00000000000E+00 0. -1.
</event>
<event>
 5    1  0.6645559E+001  0.1599677E+01  0.7818608E-02  0.3353714E+00
         11   -1    0    0    0    0  0.00000000000E+00  0.00000000000E+00  0.39999999674E+01  0.40000000000E+01  0.51100000000E-03 0. -1.
    9000002   -1    0    0    0    0 -0.00000000000E+00 -0.00000000000E+00  0.00000000000E+00  0.93800000000E+00  0.93800000000E+00 0. -1.
         11    1    1    2    0    0  0.10655247621E+00  0.44717834806E-01  0.77514448699E+00  0.78371063013E+00  0.51100000000E-03 0. -1.
    9000002    1    1    2    0    0 -0.51784230204E+00 -0.21773119536E+00  0.21845690032E+00  0.11149596138E+01  0.93800000000E+00 0. -1.
         22    1    1    2    0    0  0.41128982583E+00  0.17301336055E+00  0.30063985800E+01  0.30393297560E+01  0.00000000000E+00 0. -1.
</event>
<event>
 5    1  0.6645559E+001  0.1525722E+01  0.7818608E-02  0.3438151E+00
         11   -1    0    0    0    0  0.00000000000E+00  0.00000000000E+00  0.39999999674E+01  0.40000000000E+01  0.51100000000E-03 0. -1.
    9000002   -1    0    0    0    0 -0.00000000000E+00 -0.00000000000E+00  0.00000000000E+00  0.93800000000E+00  0.93800000000E+00 0. -1.
         11    1    1    2    0    0  0.26507184227E+00 -0.76371487012E-02  0.82078058096E+00  0.86255575519E+00  0.51100000000E-03 0. -1.
    9000002    1    1    2    0    0  0.75250300305E-02  0.15218703169E+00  0.72083176971E-01  0.95302544724E+00  0.93800000000E+00 0. -1.
         22    1    1    2    0    0 -0.27259687230E+00 -0.14454988299E+00  0.31071362094E+01  0.31224187976E+01  0.00000000000E+00 0. -1.
</event>
<event>
 5    1  0.6645559E+001  0.1599670E+01  0.7818608E-02  0.3353722E+00
         11   -1    0    0    0    0  0.00000000000E+00  0.00000000000E+00  0.39999999674E+01  0.40000000000E+01  0.51100000000E-03 0.  1.
    9000002   -1    0    0    0    0 -0.00000000000E+00 -0.00000000000E+00  0.00000000000E+00  0.93800000000E+00  0.93800000000E+00 0. -1.
         11    1    1    2    0    0 -0.84826291107E-01 -0.77355299722E-01  0.72377153256E+00  0.73281978311E+00  0.51100000000E-03 0.  1.
    9000002    1    1    2    0    0  0.44748991899E+00  0.39024494112E+00  0.24564689939E+00  0.11369805367E+01  0.93800000000E+00 0. -1.
         22    1    1    2    0    0 -0.36266362788E+00 -0.31288964140E+00  0.30305815354E+01  0.30681996802E+01  0.00000000000E+00 0.  1.
</event>
<event>
 5    1  0.6645559E+001  0.1599677E+01  0.7818608E-02  0.3353714E+00
         11   -1    0    0    0    0  0.00000000000E+00  0.00000000000E+00  0.39999999674E+01  0.40000000000E+01  0.51100000000E-03 0. -1.
    9000002   -1    0    0    0    0 -0.00000000000E+00 -0.00000000000E+00  0.00000000000E+00  0.93800000000E+00  0.93800000000E+00 0.  1.
         11    1    1    2    0    0 -0.52250964833E-01  0.24181526401E-01  0.46900131682E+00  0.47252238661E+00  0.51100000000E-03 0.  1.
    9000002    1    1    2    0    0  0.42929368859E+00 -0.19994995308E+00  0.15287044562E+00  0.10618316382E+01  0.93800000000E+00 0.  1.
         22    1    1    2    0    0 -0.37704272376E+00  0.17576842668E+00  0.33781282049E+01  0.34036459752E+01  0.00000000000E+00 0. -1.
</event>
<event>
 5    1  0.6645559E+001  0.1599673E+01  0.7818608E-02  0.3353719E+00
         11   -1    0    0    0    0  0.00000000000E+00  0.00000000000E+00  0.39999999674E+01  0.40000000000E+01  0.51100000000E-03 0.  1.
    9000002   -1    0    0    0    0 -0.00000000000E+00 -0.00000000000E+00  0.00000000000E+00  0.93800000000E+00  0.93800000000E+00 0. -1.
         11    1    1    2    0    0  0.32587869426E-01  0.80775185668E-01  0.79061293796E+00  0.79539655434E+00  0.51100000000E-03 0.  1.
    9000002    1    1    2    0    0 -0.15037315344E+00 -0.39783931803E+00  0.12242797226E+00  0.10371696181E+01  0.93800000000E+00 0. -1.
         22    1    1    2    0    0  0.11778528401E+00  0.31706413236E+00  0.30869590571E+01  0.31054338276E+01  0.00000000000E+00 0.  1.
</event>
<event>
 5    1  0.6645559E+001  0.1599454E+01  0.7818608E-02  0.3353956E+00
         11   -1    0    0    0    0  0.00000000000E+00  0.00000000000E+00  0.39999999674E+01  0.40000000000E+01  0.51100000000E-03 0.  1.
    9000002   -1    0    0    0    0 -0.00000000000E+00 -0.00000000000E+00  0.00000000000E+00  0.93800000000E+00  0.93800000000E+00 0.  1.
         11    1    1    2    0    0 -0.27122412256E-01  0.14902730304E+00  0.93073613266E+00  0.94298185139E+00  0.51100000000E-03 0.  1.
    9000002    1    1    2    0    0  0.16681693358E+00 -0.61595598211E+00  0.28678743505E+00  0.11701797700E+01  0.93800000000E+00 0.  1.
         22    1    1    2    0    0 -0.13969452133E+00  0.46692867907E+00  0.27824763997E+01  0.28248383786E+01  0.00000000000E+00 0.  1.
</event>
<event>
 5    1  0.6645559E+001  0.1588548E+01  0.7818608E-02  0.3365888E+00
         11   -1    0    0    0    0  0.00000000000E+00  0.00000000000E+00  0.39999999674E+01  0.40000000000E+01  0.51100000000E-03 0.  1.
    9000002   -1    0    0    0    0 -0.00000000000E+00 -0.00000000000E+00  0.00000000000E+00  0.93800000000E+00  0.93800000000E+00 0.  1.
         11    1    1    2    0    0 -0.27177832182E-01  0.10458187014E+00  0.13731884881E+01  0.13774334420E+01  0.51100000000E-03 0.  1.
    9000002    1    1    2    0    0 -0.26457206064E+00 -0.25234090307E+00  0.98893058309E-01  0.10115820004E+01  0.93800000000E+00 0.  1.
         22    1    1    2    0    0  0.29174989282E+00  0.14775903293E+00  0.25279184210E+01  0.25489845576E+01  0.00000000000E+00 0. -1.
</event>
<event>
 5    1  0.6645559E+001  0.1599658E+01  0.7818608E-02  0.3353735E+00
         11   -1    0    0    0    0  0.00000000000E+00  0.00000000000E+00  0.39999999674E+01  0.40000000000E+01  0.51100000000E-03 0.  1.
    9000002   -1    0    0    0    0 -0.00000000000E+00 -0.00000000000E+00  0.00000000000E+00  0.93800000000E+00  0.93800000000E+00 0. -1.
         11    1    1    2    0    0  0.11833762825E+00  0.18536333819E-01  0.99660203677E+00  0.10037745119E+01  0.51100000000E-03 0.  1.
    9000002    1    1    2    0    0 -0.44278966229E+00 -0.64060933259E-01  0.13591427379E+00  0.10480854822E+01  0.93800000000E+00 0. -1.
         22    1    1    2    0    0  0.32445203405E+00  0.45524599440E-01  0.28674836568E+01  0.28861400059E+01  0.00000000000E+00 0.  1.
</event>
<event>
 5    1  0.6645559E+001  0.1599155E+01  0.7818608E-02  0.3354281E+00
         11   -1    0    0    0    0  0.00000000000E+00  0.00000000000E+00  0.39999999674E+01  0.40000000000E+01  0.51100000000E-03 0.  1.
    9000002   -1    0    0    0    0 -0.00000000000E+00 -0.00000000000E+00  0.00000000000E+00  0.93800000000E+00  0.93800000000E+00 0.  1.
         11    1    1    2    0    0  0.85138652849E-01 -0.54084061682E-01  0.13204507032E+01  0.13242975484E+01  0.51100000000E-03 0.  1.
    9000002    1    1    2    0    0 -0.32508196815E+00  0.18435011492E+00  0.94326728938E-01  0.10141029448E+01  0.93800000000E+00 0.  1.
         22    1    1    2    0    0  0.23994331530E+00 -0.13026605324E+00  0.25852225352E+01  0.25995995068E+01  0.00000000000E+00 0.  1.
</event>
<event>
 5    1  0.6645559E+001  0.1599099E+01  0.7818608E-02  0.3354342E+00
         11   -1    0    0    0    0  0.00000000000E+00  0.00000000000E+00  0.39999999674E+01  0.40000000000E+01  0.51100000000E-03 0. -1.
    9000002   -1    0    0    0    0 -0.00000000000E+00 -0.00000000000E+00  0.00000000000E+00  0.93800000000E+00  0.93800000000E+00 0. -1.
         11    1    1    2    0    0  0.79394385230E-01 -0.13619872245E+00  0.13125998948E+01  0.13220333980E+01  0.51100000000E-03 0. -1.
    9000002    1    1    2    0    0 -0.15938652944E+00  0.37405828620E+00  0.11209265087E+00  0.10284611950E+01  0.93800000000E+00 0. -1.
         22    1    1    2    0    0  0.79992144210E-01 -0.23785956374E+00  0.25753074217E+01  0.25875054070E+01  0.00000000000E+00 0. -1.
</event>
<event>
 5    1  0.6645559E+001  0.1597385E+01  0.7818608E-02  0.3356207E+00
         11   -1    0    0    0    0  0.00000000000E+00  0.00000000000E+00  0.39999999674E+01  0.40000000000E+01  0.51100000000E-03 0.  1.
    9000002   -1    0    0    0    0 -0.00000000000E+00 -0.00000000000E+00  0.00000000000E+00  0.93800000000E+00  0.93800000000E+00 0. -1.
         11    1    1    2    0    0 -0.14657118431E-01  0.13379166381E+00  0.51437148510E+00  0.53168912555E+00  0.51100000000E-03 0.  1.
    9000002    1    1    2    0    0  0.15406911809E+00 -0.66642237688E+00  0.33547468354E+00  0.12084052883E+01  0.93800000000E+00 0. -1.
         22    1    1    2    0    0 -0.13941199966E+00  0.53263071307E+00  0.31501537987E+01  0.31979055861E+01  0.00000000000E+00 0. -1.
</event>
<event>
 5    1  0.6645559E+001  0.1592247E+01  0.7818608E-02  0.3361822E+00
         11   -1    0    0    0    0  0.00000000000E+00  0.00000000000E+00  0.39999999674E+01  0.40000000000E+01  0.51100000000E-03 0. -1.
    9000002   -1    0    0    0    0 -0.00000000000E+00 -0.00000000000E+00  0.00000000000E+00  0.93800000000E+00  0.93800000000E+00 0.  1.
         11    1    1    2    0    0 -0.69035799016E-01 -0.10132431349E-01  0.54013903695E+00  0.54462743969E+00  0.51100000000E-03 0. -1.
    9000002    1    1    2    0    0  0.13704445591E+00 -0.29642942606E+00  0.77257495073E-01  0.99622502883E+00  0.93800000000E+00 0.  1.
         22    1    1    2    0    0 -0.68008656898E-01  0.30656185741E+00  0.33826034353E+01  0.33971475315E+01  0.00000000000E+00 0. -1.
</event>
<event>
 5    1  0.6645559E+001  0.1539681E+01  0.7818608E-02  0.3421551E+00
         11   -1    0    0    0    0  0.00000000000E+00  0.00000000000E+00  0.39999999674E+01  0.40000000000E+01  0.51100000000E-03 0.  1.
    9000002   -1    0    0    0    0 -0.00000000000E+00 -0.00000000000E+00  0.00000000000E+00  0.93800000000E+00  0.93800000000E+00 0. -1.
         11    1    1    2    0    0  0.72112813324E-01  0.75577881579E-01  0.44714260328E-01  0.11363054267E+00  0.51100000000E-03 0.  1.
    9000002    1    1    2    0    0 -0.77737505641E+00 -0.28605160797E+00  0.59722659858E+00  0.13866005592E+01  0.93800000000E+00 0. -1.
         22    1    1    2    0    0  0.70526224309E+00  0.21047372639E+00  0.33580591085E+01  0.34377688981E+01  0.00000000000E+00 0.  1.
</event>
<event>
 5    1  0.6645559E+001  0.1599676E+01  0.7818608E-02  0.3353715E+00
         11   -1    0    0    0    0  0.00000000000E+00  0.00000000000E+00  0.39999999674E+01  0.40000000000E+01  0.51100000000E-03 0. -1.
    9000002   -1    0    0    0    0 -0.00000000000E+00 -0.00000000000E+00  0.00000000000E+00  0.93800000000E+00  0.93800000000E+00 0. -1.
         11    1    1    2    0    0 -0.29497350835E-01  0.47786977686E-02  0.22834644544E+00  0.23029392073E+00  0.51100000000E-03 0.  1.
    9000002    1    1    2    0    0  0.49415548955E+00 -0.87472792518E-01  0.17245382031E+00  0.10776945102E+01  0.93800000000E+00 0. -1.
         22    1    1    2    0    0 -0.46465813871E+00  0.82694094749E-01  0.35991997016E+01  0.36300115690E+01  0.00000000000E+00 0. -1.
</event>
<event>
 5    1  0.6645559E+001  0.1561752E+01  0.7818608E-02  0.3395952E+00
         11   -1    0    0    0    0  0.00000000000E+00  0.00000000000E+00  0.39999999674E+01  0.40000000000E+01  0.51100000000E-03 0.  1.
    9000002   -1    0    0    0    0 -0.00000000000E+00 -0.00000000000E+00  0.00000000000E+00  0.93800000000E+00  0.93800000000E+00 0. -1.
         11    1    1    2    0    0 -0.16334841149E+00  0.86294629392E-01  0.10308368334E+01  0.10472603806E+01  0.51100000000E-03 0.  1.
    9000002    1    1    2    0    0 -0.16020951275E+00 -0.40934796967E+00  0.16428584191E+00  0.10488406390E+01  0.93800000000E+00 0. -1.
         22    1    1    2    0    0  0.32355792424E+00  0.32305334027E+00  0.28048772921E+01  0.28418989804E+01  0.00000000000E+00 0.  1.
</event>
<event>
 5    1  0.6645559E+001  0.1599676E+01  0.7818608E-02  0.3353716E+00
         11   -1    0    0    0    0  0.00000000000E+00  0.00000000000E+00  0.39999999674E+01  0.40000000000E+01  0.51100000000E-03 0. -1.
    9000002   -1    0    0    0    0 -0.00000000000E+00 -0.00000000000E+00  0.00000000000E+00  0.93800000000E+00  0.93800000000E+00 0.  1.
         11    1    1    2    0    0 -0.40295321051E-01 -0.61744889427E-01  0.67796121776E+00  0.68195880974E+00  0.51100000000E-03 0. -1.
    9000002    1    1    2    0    0  0.23267148027E+00  0.34775879533E+00  0.11837793188E+00  0.10338904837E+01  0.93800000000E+00 0.  1.
         22    1    1    2    0    0 -0.19237615922E+00 -0.28601390590E+00  0.32036608177E+01  0.32221507066E+01  0.00000000000E+00 0. -1.
</event>
<event>
 5    1  0.6645559E+001  0.1599542E+01  0.7818608E-02  0.3353860E+00
         11   -1    0    0    0    0  0.00000000000E+00  0.00000000000E+00  0.39999999674E+01  0.40000000000E+01  0.51100000000E-03 0. -1.
    9000002   -1    0    0    0    0 -0.00000000000E+00 -0.00000000000E+00  0.00000000000E+00  0.93800000000E+00  0.93800000000E+00 0.  1.
         11    1    1    2    0    0  0.10956713543E+00  0.22384827468E-01  0.94210034080E+00  0.94871457822E+00  0.51100000000E-03 0. -1.
    9000002    1    1    2    0    0 -0.47498495254E+00 -0.50928244523E-01  0.15577043962E+00  0.10641018847E+01  0.93800000000E+00 0.  1.
         22    1    1    2    0    0  0.36541781711E+00  0.28543417055E-01  0.29021291869E+01  0.29251835370E+01  0.00000000000E+00 0. -1.
</event>
<event>
 5    1  0.6645559E+001  0.1599676E+01  0.7818608E-02  0.3353715E+00
         11   -1    0    0    0    0  0.00000000000E+00  0.00000000000E+00  0.39999999674E+01  0.40000000000E+01  0.51100000000E-03 0.  1.
    9000002   -1    0    0    0    0 -0.00000000000E+00 -0.00000000000E+00  0.00000000000E+00  0.93800000000E+00  0.93800000000E+00 0.  1.
         11    1    1    2    0    0 -0.15913688952E+00 -0.12215836335E+00  0.10656445773E+01  0.10843642569E+01  0.51100000000E-03 0. -1.
    9000002    1    1    2    0    0  0.54548877252E+00  0.42276601929E+00  0.33950084425E+00  0.12130102766E+01  0.93800000000E+00 0.  1.
         22    1    1    2    0    0 -0.38635188299E+00 -0.30060765594E+00  0.25948545458E+01  0.26406254664E+01  0.00000000000E+00 0.  1.
</event>
<event>
 5    1  0.6645559E+001  0.1599676E+01  0.7818608E-02  0.3353715E+00
         11   -1    0    0    0    0  0.00000000000E+00  0.00000000000E+00  0.39999999674E+01  0.40000000000E+01  0.51100000000E-03 0. -1.
    9000002   -1    0    0    0    0 -0.00000000000E+00 -0.00000000000E+00  0.00000000000E+00  0.93800000000E+00  0.93800000000E+00 0. -1.
         11    1    1    2    0    0 -0.20085221802E+00 -0.15119028326E+00  0.12952052369E+01  0.13193774980E+01  0.51100000000E-03 0. -1.
    9000002    1    1    2    0    0  0.56375639579E+00  0.42816196987E+00  0.35892642101E+00  0.12287457515E+01  0.93800000000E+00 0. -1.
         22    1    1    2    0    0 -0.36290417777E+00 -0.27697168661E+00  0.23458683094E+01  0.23898767505E+01  0.00000000000E+00 0. -1.
</event>
<event>
 5    1  0.6645559E+001  0.1599640E+01  0.7818608E-02  0.3353754E+00
         11   -1    0    0    0    0  0.00000000000E+00  0.00000000000E+00  0.39999999674E+01  0.40000000000E+01  0.51100000000E-03 0. -1.
    9000002   -1    0    0    0    0 -0.00000000000E+00 -0.00000000000E+00  0.00000000000E+00  0.93800000000E+00  0.93800000000E+00 0.  1.
         11    1    1    2    0    0  0.15740673336E+00 -0.59762141471E-01  0.10842391970E+01  0.10972343827E+01  0.51100000000E-03 0. -1.
    9000002    1    1    2    0    0 -0.52606938970E+00  0.21519368522E+00  0.22396910203E+00  0.11194031819E+01  0.93800000000E+00 0.  1.
         22    1    1    2    0    0  0.36866265634E+00 -0.15543154375E+00  0.26917916683E+01  0.27213624354E+01  0.00000000000E+00 0. -1.
</event>
<event>
 5    1  0.6907282E+001  0.1584024E+01  0.7818608E-02  0.3370888E+00
         11   -1    0    0    0    0  0.00000000000E+00  0.00000000000E+00  0.39999999674E+01  0.40000000000E+01  0.51100000000E-03 0.  1.
    9000002   -1    0    0    0    0 -0.00000000000E+00 -0.00000000000E+00  0.00000000000E+00  0.93800000000E+00  0.93800000000E+00 0. -1.
         11    1    1    2    0    0  0.71439213562E-01  0.93145989340E-01  0.11605881772E+01  0.11665097148E+01  0.51100000000E-03 0.  1.
    9000002    1    1    2    0    0  0.20762806635E+00 -0.19609495467E+00  0.66603204888E-01  0.98277293007E+00  0.93800000000E+00 0. -1.
         22    1    1    2    0    0 -0.27906727991E+00  0.10294896533E+00  0.27728085853E+01  0.27887173551E+01  0.00000000000E+00 0.  1.
</event>
<event>
 5    1  0.6645559E+001  0.1599664E+01  0.7818608E-02  0.3353728E+00
         11   -1    0    0    0    0  0.00000000000E+00  0.00000000000E+00  0.39999999674E+01  0.40000000000E+01  0.51100000000E-03 0. -1.
    9000002   -1    0    0    0    0 -0.00000000000E+00 -0.00000000000E+00  0.00000000000E+00  0.93800000000E+00  0.93800000000E+00 0. -1.
         11    1    1    2    0    0 -0.10639003020E-01 -0.80508916041E-01  0.73140120586E+00  0.73589595664E+00  0.51100000000E-03 0. -1.
    9000002    1    1    2    0    0  0.53410435259E-01  0.44334573928E+00  0.13537772107E+00  0.10476541636E+01  0.93800000000E+00 0. -1.
         22    1    1    2    0    0 -0.42771432239E-01 -0.36283682324E+00  0.31332210404E+01  0.31544498798E+01  0.00000000000E+00 0. -1.
</event>
<event>
 5    1  0.6645559E+001  0.1599677E+01  0.7818608E-02  0.3353714E+00
         11   -1    0    0    0    0  0.00000000000E+00  0.00000000000E+00  0.39999999674E+01  0.40000000000E+01  0.51100000000E-03 0. -1.
    9000002   -1    0    0    0    0 -0.00000000000E+00 -0.00000000000E+00  0.00000000000E+00  0.93800000000E+00  0.93800000000E+00 0.  1.
         11    1    1    2    0    0  0.72230321000E-01  0.37255505140E-01  0.77758032491E+00  0.78181622824E+00  0.51100000000E-03 0.  1.
    9000002    1    1    2    0    0 -0.36141596950E+00 -0.18462851923E+00  0.11118390979E+00  0.10280637407E+01  0.93800000000E+00 0.  1.
         22    1    1    2    0    0  0.28918564850E+00  0.14737301409E+00  0.31112357327E+01  0.31281200311E+01  0.00000000000E+00 0. -1.
</event>
<event>
 5    1  0.6645559E+001  0.1540217E+01  0.7818608E-02  0.3420920E+00
         11   -1    0    0    0    0  0.00000000000E+00  0.00000000000E+00  0.39999999674E+01  0.40000000000E+01  0.51100000000E-03 0.  1.
    9000002   -1    0    0    0    0 -0.00000000000E+00 -0.00000000000E+00  0.00000000000E+00  0.93800000000E+00  0.93800000000E+00 0. -1.
         11    1    1    2    0    0  0.30442037107E+00 -0.30782911846E-01  0.12277288687E+01  0.12652817023E+01  0.51100000000E-03 0.  1.
    9000002    1    1    2    0    0 -0.14472467457E+00 -0.17690703397E+00  0.81123170465E-01  0.96884792351E+00  0.93800000000E+00 0. -1.
         22    1    1    2    0    0 -0.15969569650E+00  0.20768994582E+00  0.26911479282E+01  0.27038703742E+01  0.00000000000E+00 0.  1.
</event>
<event>
 5    1  0.6645559E+001  0.1599677E+01  0.7818608E-02  0.3353714E+00
         11   -1    0    0    0    0  0.00000000000E+00  0.00000000000E+00  0.39999999674E+01  0.40000000000E+01  0.51100000000E-03 0. -1.
    9000002   -1    0    0    0    0 -0.00000000000E+00 -0.00000000000E+00  0.00000000000E+00  0.93800000000E+00  0.93800000000E+00 0.  1.
         11    1    1    2    0    0 -0.70589387521E-01 -0.20853333529E-01  0.68772310208E+00  0.69165095923E+00  0.51100000000E-03 0. -1.
    9000002    1    1    2    0    0  0.39758404840E+00  0.11951503809E+00  0.11648985900E+00  0.10323617618E+01  0.93800000000E+00 0.  1.
         22    1    1    2    0    0 -0.32699466088E+00 -0.98661704559E-01  0.31957870063E+01  0.32139872790E+01  0.00000000000E+00 0. -1.
</event>
<event>
 5    1  0.6645559E+001  0.1599676E+01  0.7818608E-02  0.3353716E+00
         11   -1    0    0    0    0  0.00000000000E+00  0.00000000000E+00  0.39999999674E+01  0.40000000000E+01  0.51100000000E-03 0. -1.
    9000002   -1    0    0    0    0 -0.00000000000E+00 -0.00000000000E+00  0.00000000000E+00  0.93800000000E+00  0.93800000000E+00 0. -1.
         11    1    1    2    0    0 -0.72492739366E-01  0.12966465086E+00  0.12975486521E+01  0.13060248408E+01  0.51100000000E-03 0. -1.
    9000002    1    1    2    0    0  0.21334227436E+00 -0.38369659942E+00  0.13069713821E+00  0.10438696031E+01  0.93800000000E+00 0. -1.
         22    1    1    2    0    0 -0.14084953499E+00  0.25403194857E+00  0.25717541770E+01  0.25881055561E+01  0.00000000000E+00 0. -1.
</event>
<event>
 5    1  0.1026344E+002  0.1519388E+01  0.7818608E-02  0.3445790E+00
         11   -1    0    0    0    0  0.00000000000E+00  0.00000000000E+00  0.39999999674E+01  0.40000000000E+01  0.51100000000E-03 0.  1.
    9000002   -1    0    0    0    0 -0.00000000000E+00 -0.00000000000E+00  0.00000000000E+00  0.93800000000E+00  0.93800000000E+00 0.  1.
         11    1    1    2    0    0 -0.90815624537E-01 -0.28691578343E+00  0.11411094851E+01  0.11801267993E+01  0.51100000000E-03 0.  1.
    9000002    1    1    2    0    0  0.74774077720E-01 -0.53377975767E-01  0.66557499642E-01  0.94483557922E+00  0.93800000000E+00 0.  1.
         22    1    1    2    0    0  0.16041546817E-01  0.34029375920E+00  0.27923329826E+01  0.28130376215E+01  0.00000000000E+00 0.  1.
</event>
<event>
 5    1  0.6645559E+001  0.1599662E+01  0.7818608E-02  0.3353730E+00
         11   -1    0    0    0    0  0.00000000000E+00  0.00000000000E+00  0.39999999674E+01  0.40000000000E+01  0.51100000000E-03 0. -1.
    9000002   -1    0    0    0    0 -0.00000000000E+00 -0.00000000000E+00  0.00000000000E+00  0.93800000000E+00  0.93800000000E+00 0.  1.
         11    1    1    2    0    0  0.15674402042E+00 -0.36788589530E-01  0.12011070684E+01  0.12118500481E+01  0.51100000000E-03 0. -1.
    9000002    1    1    2    0    0 -0.48952488843E+00  0.12680269792E+00  0.17523173897E+00  0.10799368977E+01  0.93800000000E+00 0.  1.
         22    1    1    2    0    0  0.33278086801E+00 -0.90014108385E-01  0.26236611600E+01  0.26462130542E+01  0.00000000000E+00 0. -1.
</event>
<event>
 5    1  0.6645559E+001  0.1599433E+01  0.7818608E-02  0.3353978E+00
         11   -1    0    0    0    0  0.00000000000E+00  0.00000000000E+00  0.39999999674E+01  0.40000000000E+01  0.51100000000E-03 0.  1.
    9000002   -1    0    0    0    0 -0.00000000000E+00 -0.00000000000E+00  0.00000000000E+00  0.93800000000E+00  0.93800000000E+00 0.  1.
         11    1    1    2    0    0 -0.97021106645E-01  0.97194795934E-02  0.81579851220E+00  0.82160515884E+00  0.51100000000E-03 0.  1.
    9000002    1    1    2    0    0  0.39248594607E+00 -0.66382234880E-01  0.10705473615E+00  0.10245762712E+01  0.93800000000E+00 0.  1.
         22    1    1    2    0    0 -0.29546483942E+00  0.56662755286E-01  0.30771467190E+01  0.30918185700E+01  0.00000000000E+00 0.  1.
</event>
<event>
 5    1  0.6645559E+001  0.1599677E+01  0.7818608E-02  0.3353714E+00
         11   -1    0    0    0    0  0.00000000000E+00  0.00000000000E+00  0.39999999674E+01  0.40000000000E+01  0.51100000000E-03 0.  1.
    9000002   -1    0    0    0    0 -0.00000000000E+00 -0.00000000000E+00  0.00000000000E+00  0.93800000000E+00  0.93800000000E+00 0.  1.
         11    1    1    2    0    0  0.58531723693E-01 -0.15426351002E+00  0.13589981405E+01  0.13689775017E+01  0.51100000000E-03 0.  1.
    9000002    1    1    2    0    0 -0.16452925618E+00  0.43831556635E+00  0.14928037739E+00  0.10589235302E+01  0.93800000000E+00 0.  1.
         22    1    1    2    0    0  0.10599753249E+00 -0.28405205633E+00  0.24917214495E+01  0.25100989680E+01  0.00000000000E+00 0. -1.
</event>
<event>
 5    1  0.6645559E+001  0.1599667E+01  0.7818608E-02  0.3353725E+00
         11   -1    0    0    0    0  0.00000000000E+00  0.00000000000E+00  0.39999999674E+01  0.40000000000E+01  0.51100000000E-03 0. -1.
    9000002   -1    0    0    0    0 -0.00000000000E+00 -0.00000000000E+00  0.00000000000E+00  0.93800000000E+00  0.93800000000E+00 0. -1.
         11    1    1    2    0    0  0.56418209096E-01  0.74903934750E-01  0.89172131022E+00  0.89663859497E+00  0.51100000000E-03 0. -1.
    9000002    1    1    2    0    0 -0.25468160702E+00 -0.31541350320E+00  0.11094242838E+00  0.10278621607E+01  0.93800000000E+00 0. -1.
         22    1    1    2    0    0  0.19826339792E+00  0.24050956845E+00  0.29973362288E+01  0.30134992443E+01  0.00000000000E+00 0. -1.
</event>
<event>
 5    1  0.6645559E+001  0.1512923E+01  0.7818608E-02  0.3453658E+00
         11   -1    0    0    0    0  0.00000000000E+00  0.00000000000E+00  0.39999999674E+01  0.40000000000E+01  0.51100000000E-03 0.  1.
    9000002   -1    0    0    0    0 -0.00000000000E+00 -0.00000000000E+00  0.00000000000E+00  0.93800000000E+00  0.93800000000E+00 0. -1.
         11    1    1    2    0    0  0.11285768646E+00  0.11450988792E-01  0.89115513216E-01  0.14425608602E+00  0.51100000000E-03 0.  1.
    9000002    1    1    2    0    0  0.21678638015E+00  0.27117978433E+00  0.15415015775E+00  0.10119985579E+01  0.93800000000E+00 0. -1.
         22    1    1    2    0    0 -0.32964406661E+00 -0.28263077312E+00  0.37567342964E+01  0.37817453561E+01  0.00000000000E+00 0.  1.
</event>
<event>
 5    1  0.6645559E+001  0.1599574E+01  0.7818608E-02  0.3353826E+00
         11   -1    0    0    0    0  0.00000000000E+00  0.00000000000E+00  0.39999999674E+01  0.40000000000E+01  0.51100000000E-03 0. -1.
    9000002   -1    0    0    0    0 -0.00000000000E+00 -0.00000000000E+00  0.00000000000E+00  0.93800000000E+00  0.93800000000E+00 0. -1.
         11    1    1    2    0    0 -0.40530911477E-01 -0.42852353557E-01  0.50476213007E+00  0.50819695795E+00  0.51100000000E-03 0. -1.
    9000002    1    1    2    0    0  0.28195398446E+00  0.38321323416E+00  0.15442990607E+00  0.10630348198E+01  0.93800000000E+00 0. -1.
         22    1    1    2    0    0 -0.24142307298E+00 -0.34036088060E+00  0.33408079312E+01  0.33667682223E+01  0.00000000000E+00 0. -1.
</event>
<event>
 5    1  0.6645559E+001  0.1599665E+01  0.7818608E-02  0.3353727E+00
         11   -1    0    0    0    0  0.00000000000E+00  0.00000000000E+00  0.39999999674E+01  0.40000000000E+01  0.51100000000E-03 0.  1.
    9000002   -1    0    0    0    0 -0.00000000000E+00 -0.00000000000E+00  0.00000000000E+00  0.93800000000E+00  0.93800000000E+00 0.  1.
         11    1    1    2    0    0  0.38234465419E-01  0.60329516942E-01  0.80827593839E+00  0.81142576904E+00  0.51100000000E-03 0.  1.
    9000002    1    1    2    0    0 -0.20011805069E+00 -0.29906006519E+00  0.86926225691E-01  0.10084068254E+01  0.93800000000E+00 0.  1.
         22    1    1    2    0    0  0.16188358527E+00  0.23873054825E+00  0.31047978033E+01  0.31181674056E+01  0.00000000000E+00 0.  1.
</event>
<event>
 5    1  0.6645559E+001  0.1551508E+01  0.7818608E-02  0.3407737E+00
         11   -1    0    0    0    0  0.00000000000E+00  0.00000000000E+00  0.39999999674E+01  0.40000000000E+01  0.51100000000E-03 0. -1.
    9000002   -1    0    0    0    0 -0.00000000000E+00 -0.00000000000E+00  0.00000000000E+00  0.93800000000E+00  0.93800000000E+00 0.  1.
         11    1    1    2    0    0 -0.79373803150E-01  0.14273090591E+00  0.12133632301E+01  0.12243050688E+01  0.51100000000E-03 0. -1.
    9000002    1    1    2    0    0 -0.35649271306E-01  0.27158897549E+00  0.88128353484E-01  0.98114323564E+00  0.93800000000E+00 0.  1.
         22    1    1    2    0    0  0.11502307446E+00 -0.41431988140E+00  0.26985083838E+01  0.27325516956E+01  0.00000000000E+00 0. -1.
</event>
<event>
 5    1  0.6645559E+001  0.1599675E+01  0.7818608E-02  0.3353716E+00
         11   -1    0    0    0    0  0.00000000000E+00  0.00000000000E+00  0.39999999674E+01  0.40000000000E+01  0.51100000000E-03 0.  1.
    9000002   -1    0    0    0    0 -0.00000000000E+00 -0.00000000000E+00  0.00000000000E+00  0.93800000000E+00  0.93800000000E+00 0. -1.
         11    1    1    2    0    0 -0.17167030287E+00 -0.17229588849E+00  0.11635158838E+01  0.11886656549E+01  0.51100000000E-03 0.  1.
    9000002    1    1    2    0    0  0.52619229568E+00  0.53073134925E+00  0.40459514942E+00  0.12657390458E+01  0.93800000000E+00 0. -1.
         22    1    1    2    0    0 -0.35452199281E+00 -0.35843546076E+00  0.24318889341E+01  0.24835952993E+01  0.00000000000E+00 0.  1.
</event>
<event>
 5    1  0.6645559E+001  0.1591325E+01  0.7818608E-02  0.3362833E+00
         11   -1    0    0    0    0  0.00000000000E+00  0.00000000000E+00  0.39999999674E+01  0.40000000000E+01  0.51100000000E-03 0.  1.
    9000002   -1    0    0    0    0 -0.00000000000E+00 -0.00000000000E+00  0.00000000000E+00  0.93800000000E+00  0.93800000000E+00 0.  1.
         11    1    1    2    0    0  0.89587477505E-02  0.40946507543E-01  0.99293322596E-01  0.10777894356E+00  0.51100000000E-03 0.  1.
    9000002    1    1    2    0    0 -0.31142848852E+00 -0.21312429880E+00  0.10266349854E+00  0.10162644656E+01  0.93800000000E+00 0.  1.
         22    1    1    2    0    0  0.30246974077E+00  0.17217779126E+00  0.37980431462E+01  0.38139565908E+01  0.00000000000E+00 0.  1.
</event>
<event>
 5    1  0.6645559E+001  0.1591634E+01  0.7818608E-02  0.3362493E+00
         11   -1    0    0    0    0  0.00000000000E+00  0.00000000000E+00  0.39999999674E+01  0.40000000000E+01  0.51100000000E-03 0.  1.
    9000002   -1    0    0    0    0 -0.00000000000E+00 -0.00000000000E+00  0.00000000000E+00  0.93800000000E+00  0.93800000000E+00 0.  1.
         11    1    1    2    0    0  0.43519143447E-01  0.15204239848E+00  0.72234805863E+00  0.73945776466E+00  0.51100000000E-03 0.  1.
    9000002    1    1    2    0    0  0.15650574566E+00 -0.56540021006E+00  0.24737856164E+00  0.11336717332E+01  0.93800000000E+00 0.  1.
         22    1    1    2    0    0 -0.20002488911E+00  0.41335781158E+00  0.30302733471E+01  0.30648705021E+01  0.00000000000E+00 0.  1.
</event>
<event>
 5    1  0.6645559E+001  0.1541938E+01  0.7818608E-02  0.3418898E+00
         11   -1    0    0    0    0  0.00000000000E+00  0.00000000000E+00  0.39999999674E+01  0.40000000000E+01  0.51100000000E-03 0.  1.
    9000002   -1    0    0    0    0 -0.00000000000E+00 -0.00000000000E+00  0.00000000000E+00  0.93800000000E+00  0.93800000000E+00 0.  1.
         11    1    1    2    0    0 -0.31440306408E+00  0.20568596736E+00  0.39784443450E+00  0.54720787554E+00  0.51100000000E-03 0.  1.
    9000002    1    1    2    0    0 -0.17669374325E+00 -0.42093776538E-01  0.23475901346E+00  0.98384366610E+00  0.93800000000E+00 0.  1.
         22    1    1    2    0    0  0.49109680733E+00 -0.16359219082E+00  0.33673965194E+01  0.34069484584E+01  0.00000000000E+00 0.  1.
</event>
<event>
 5    1  0.6645559E+001  0.1599676E+01  0.7818608E-02  0.3353715E+00
         11   -1    0    0    0    0  0.00000000000E+00  0.00000000000E+00  0.39999999674E+01  0.40000000000E+01  0.51100000000E-03 0.  1.
    9000002   -1    0    0    0    0 -0.00000000000E+00 -0.00000000000E+00  0.00000000000E+00  0.93800000000E+00  0.93800000000E+00 0.  1.
         11    1    1    2    0    0 -0.10587780220E+00 -0.30200796726E-01  0.12162552948E+01  0.12212286438E+01  0.51100000000E-03 0.  1.
    9000002    1    1    2    0    0  0.34218987742E+00  0.99363679230E-01  0.85193157426E-01  0.10070098942E+01  0.93800000000E+00 0.  1.
         22    1    1    2    0    0 -0.23631207522E+00 -0.69162882504E-01  0.26985515151E+01  0.27097614620E+01  0.00000000000E+00 0.  1.
</event>
<event>
 5    1  0.6645559E+001  0.1496859E+01  0.7818608E-02  0.3473526E+00
         11   -1    0    0    0    0  0.00000000000E+00  0.00000000000E+00  0.39999999674E+01  0.40000000000E+01  0.51100000000E-03 0. -1.
    9000002   -1    0    0    0    0 -0.00000000000E+00 -0.00000000000E+00  0.00000000000E+00  0.93800000000E+00  0.93800000000E+00 0. -1.
         11    1    1    2    0    0  0.66300849917E-01  0.27354695833E+00  0.10572393696E+01  0.10940653943E+01  0.51100000000E-03 0. -1.
    9000002    1    1    2    0    0  0.67715657389E+00 -0.14779003553E+00  0.46770572590E+00  0.12565729450E+01  0.93800000000E+00 0. -1.
         22    1    1    2    0    0 -0.74345742381E+00 -0.12575692281E+00  0.24750548718E+01  0.25873616607E+01  0.00000000000E+00 0. -1.
</event>
<event>
 5    1  0.6645559E+001  0.1599665E+01  0.7818608E-02  0.3353727E+00
         11   -1    0    0    0    0  0.00000000000E+00  0.00000000000E+00  0.39999999674E+01  0.40000000000E+01  0.51100000000E-03 0.  1.
    9000002   -1    0    0    0    0 -0.00000000000E+00 -0.00000000000E+00  0.00000000000E+00  0.93800000000E+00  0.93800000000E+00 0. -1.
         11    1    1    2    0    0 -0.67799473714E-01 -0.13194624542E-01  0.74783245140E+00  0.75101564780E+00  0.51100000000E-03 0.  1.
    9000002    1    1    2    0    0  0.36953287494E+00  0.76501369770E-01  0.95796854682E-01  0.10155924589E+01  0.93800000000E+00 0. -1.
         22    1    1    2    0    0 -0.30173340123E+00 -0.63306745229E-01  0.31563706613E+01  0.31713918933E+01  0.00000000000E+00 0.  1.
</event>
<event>
 5    1  0.6956563E+001  0.1599673E+01  0.7818608E-02  0.3353718E+00
         11   -1    0    0    0    0  0.00000000000E+00  0.00000000000E+00  0.39999999674E+01  0.40000000000E+01  0.51100000000E-03 0. -1.
    9000002   -1    0    0    0    0 -0.00000000000E+00 -0.00000000000E+00  0.00000000000E+00  0.93800000000E+00  0.93800000000E+00 0.  1.
         11    1    1    2    0    0  0.11300551485E+00  0.55539379710E-01  0.13222888209E+01  0.13282706261E+01  0.51100000000E-03 0. -1.
    9000002    1    1    2    0    0 -0.32760618133E+00 -0.16280778175E+00  0.89899880191E-01  0.10108205441E+01  0.93800000000E+00 0.  1.
         22    1    1    2    0    0  0.21460066648E+00  0.10726840204E+00  0.25878112663E+01  0.25989088299E+01  0.00000000000E+00 0.  1.
</event>
<event>
 5    1  0.6645559E+001  0.1599193E+01  0.7818608E-02  0.3354240E+00
         11   -1    0    0    0    0  0.00000000000E+00  0.00000000000E+00  0.39999999674E+01  0.40000000000E+01  0.51100000000E-03 0. -1.
    9000002   -1    0    0    0    0 -0.00000000000E+00 -0.00000000000E+00  0.00000000000E+00  0.93800000000E+00  0.93800000000E+00 0. -1.
         11    1    1    2    0    0  0.57347135191E-01  0.12522466636E+00  0.11770799292E+01  0.11851106834E+01  0.51100000000E-03 0. -1.
    9000002    1    1    2    0    0 -0.19510814687E+00 -0.33413943103E+00  0.10121965316E+00  0.10197086675E+01  0.93800000000E+00 0. -1.
         22    1    1    2    0    0  0.13776101168E+00  0.20891476467E+00  0.27217003849E+01  0.27331806491E+01  0.00000000000E+00 0. -1.
</event>
<event>
 5    1  0.6645559E+001  0.1599198E+01  0.7818608E-02  0.3354235E+00
         11   -1    0    0    0    0  0.00000000000E+00  0.00000000000E+00  0.39999999674E+01  0.40000000000E+01  0.51100000000E-03 0.  1.
    9000002   -1    0    0    0    0 -0.00000000000E+00 -0.00000000000E+00  0.00000000000E+00  0.93800000000E+00  0.93800000000E+00 0.  1.
         11    1    1    2    0    0  0.10192915223E-01 -0.58416854724E-01  0.46430627279E+00  0.46807798550E+00  0.51100000000E-03 0.  1.
    9000002    1    1    2    0    0 -0.22505690046E+00  0.47552392443E+00  0.19076880542E+00  0.10922501308E+01  0.93800000000E+00 0.  1.
         22    1    1    2    0    0  0.21486398524E+00 -0.41710706971E+00  0.33449248891E+01  0.33776718837E+01  0.00000000000E+00 0.  1.
</event>
<event>
 5    1  0.6645559E+001  0.1599662E+01  0.7818608E-02  0.3353730E+00
         11   -1    0    0    0    0  0.00000000000E+00  0.00000000000E+00  0.39999999674E+01  0.40000000000E+01  0.51100000000E-03 0. -1.
    9000002   -1    0    0    0    0 -0.00000000000E+00 -0.00000000000E+00  0.00000000000E+00  0.93800000000E+00  0.93800000000E+00 0. -1.
         11    1    1    2    0    0  0.10720333727E+00  0.17269645018E+00  0.14844402361E+01  0.14982922595E+01  0.51100000000E-03 0. -1.
    9000002    1    1    2    0    0 -0.28615445332E+00 -0.43932812320E+00  0.18898706562E+00  0.10910791364E+01  0.93800000000E+00 0. -1.
         22    1    1    2    0    0  0.17895111605E+00  0.26663167301E+00  0.23265726657E+01  0.23486286040E+01  0.00000000000E+00 0. -1.
</event>
<event>
 5    1  0.6645559E+001  0.1534268E+01  0.7818608E-02  0.3427949E+00
         11   -1    0    0    0    0  0.00000000000E+00  0.00000000000E+00  0.39999999674E+01  0.40000000000E+01  0.51100000000E-03 0.  1.
    9000002   -1    0    0    0    0 -0.00000000000E+00 -0.00000000000E+00  0.00000000000E+00  0.93800000000E+00  0.93800000000E+00 0.  1.
         11    1    1    2    0    0  0.27343422024E+00  0.19428830857E+00  0.98521340415E+00  0.10407496973E+01  0.51100000000E-03 0.  1.
    9000002    1    1    2    0    0 -0.40386166333E-01 -0.47428653117E+00  0.21468570168E+00  0.10735514457E+01  0.93800000000E+00 0.  1.
         22    1    1    2    0    0 -0.23304805391E+00  0.27999822260E+00  0.28001008615E+01  0.28236988570E+01  0.00000000000E+00 0.  1.
</event>
<event>
 5    1  0.6645559E+001  0.1599671E+01  0.7818608E-02  0.3353721E+00
         11   -1    0    0    0    0  0.00000000000E+00  0.00000000000E+00  0.39999999674E+01  0.40000000000E+01  0.51100000000E-03 0.  1.
    9000002   -1    0    0    0    0 -0.00000000000E+00 -0.00000000000E+00  0.00000000000E+00  0.93800000000E+00  0.93800000000E+00 0.  1.
         11    1    1    2    0    0 -0.12027640458E+00  0.84087903225E-01  0.14753578525E+01  0.14826389456E+01  0.51100000000E-03 0.  1.
    9000002    1    1    2    0    0  0.31623279740E+00 -0.21485018817E+00  0.98377656232E-01  0.10176865671E+01  0.93800000000E+00 0.  1.
         22    1    1    2    0    0 -0.19595639282E+00  0.13076228495E+00  0.24262644587E+01  0.24376744874E+01  0.00000000000E+00 0.  1.
</event>
<event>
 5    1  0.7122430E+001  0.1575571E+01  0.7818608E-02  0.3380312E+00
         11   -1    0    0    0    0  0.00000000000E+00  0.00000000000E+00  0.39999999674E+01  0.40000000000E+01  0.51100000000E-03 0.  1.
    9000002   -1    0    0    0    0 -0.00000000000E+00 -0.00000000000E+00  0.00000000000E+00  0.93800000000E+00  0.93800000000E+00 0.  1.
         11    1    1    2    0    0  0.15061780645E+00 -0.30972163144E-01  0.13892872347E+01  0.13977711830E+01  0.51100000000E-03 0.  1.
    9000002    1    1    2    0    0  0.16276396223E-01 -0.15609708724E+00  0.34309848294E-01  0.95165770496E+00  0.93800000000E+00 0.  1.
         22    1    1    2    0    0 -0.16689420267E+00  0.18706925038E+00  0.25764028844E+01  0.25885711120E+01  0.00000000000E+00 0.  1.
</event>
<event>
 5    1  0.6645559E+001  0.1590262E+01  0.7818608E-02  0.3364001E+00
         11   -1    0    0    0    0  0.00000000000E+00  0.00000000000E+00  0.39999999674E+01  0.40000000000E+01  0.51100000000E-03 0.  1.
    9000002   -1    0    0    0    0 -0.00000000000E+00 -0.00000000000E+00  0.00000000000E+00  0.93800000000E+00  0.93800000000E+00 0. -1.
         11    1    1    2    0    0  0.22582585425E-01 -0.24289048295E-01  0.57368069722E+00  0.57463878612E+00  0.51100000000E-03 0.  1.
    9000002    1    1    2    0    0  0.39605246024E+00  0.47207799921E-01  0.11516028477E+00  0.10257641146E+01  0.93800000000E+00 0. -1.
         22    1    1    2    0    0 -0.41863504566E+00 -0.22918751626E-01  0.33111589854E+01  0.33375970993E+01  0.00000000000E+00 0.  1.
</event>
<event>
 5    1  0.6645559E+001  0.1599609E+01  0.7818608E-02  0.3353788E+00
         11   -1    0    0    0    0  0.00000000000E+00  0.00000000000E+00  0.39999999674E+01  0.40000000000E+01  0.51100000000E-03 0. -1.
    9000002   -1    0    0    0    0 -0.00000000000E+00 -0.00000000000E+00  0.00000000000E+00  0.93800000000E+00  0.93800000000E+00 0. -1.
         11    1    1    2    0    0  0.10880555354E+00 -0.30888558275E-01  0.84566875804E+00  0.85319907463E+00  0.51100000000E-03 0. -1.
    9000002    1    1    2    0    0 -0.46557734095E+00  0.16513137466E+00  0.16694640135E+00  0.10731941727E+01  0.93800000000E+00 0. -1.
         22    1    1    2    0    0  0.35677178741E+00 -0.13424281639E+00  0.29873848080E+01  0.30116067527E+01  0.00000000000E+00 0. -1.
</event>
<event>
 5    1  0.6645559E+001  0.1595920E+01  0.7818608E-02  0.3357804E+00
         11   -1    0    0    0    0  0.00000000000E+00  0.00000000000E+00  0.39999999674E+01  0.40000000000E+01  0.51100000000E-03 0.  1.
    9000002   -1    0    0    0    0 -0.00000000000E+00 -0.00000000000E+00  0.00000000000E+00  0.93800000000E+00  0.93800000000E+00 0.  1.
         11    1    1    2    0    0  0.24321986226E-01  0.21503967476E+00  0.14601838230E+01  0.14761336928E+01  0.51100000000E-03 0.  1.
    9000002    1    1    2    0    0  0.81433059632E-01 -0.44691858388E+00  0.14351355292E+00  0.10520492877E+01  0.93800000000E+00 0.  1.
         22    1    1    2    0    0 -0.10575504586E+00  0.23187890912E+00  0.23963025914E+01  0.24098170196E+01  0.00000000000E+00 0.  1.
</event>
<event>
 5    1  0.6645559E+001  0.1584857E+01  0.7818608E-02  0.3369964E+00
         11   -1    0    0    0    0  0.00000000000E+00  0.00000000000E+00  0.39999999674E+01  0.40000000000E+01  0.51100000000E-03 0.  1.
    9000002   -1    0    0    0    0 -0.00000000000E+00 -0.00000000000E+00  0.00000000000E+00  0.93800000000E+00  0.93800000000E+00 0.  1.
         11    1    1    2    0    0 -0.15603890831E-02  0.42493500783E-01  0.13715350994E+00  0.14359484264E+00  0.51100000000E-03 0.  1.
    9000002    1    1    2    0    0 -0.38389145461E+00  0.27839607929E+00  0.16647031230E+00  0.10641585365E+01  0.93800000000E+00 0.  1.
         22    1    1    2    0    0  0.38545184369E+00 -0.32088958007E+00  0.36963761451E+01  0.37302466209E+01  0.00000000000E+00 0.  1.
</event>
<event>
 5    1  0.6645559E+001  0.1456520E+01  0.7818608E-02  0.3525507E+00
         11   -1    0    0    0    0  0.00000000000E+00  0.00000000000E+00  0.39999999674E+01  0.40000000000E+01  0.51100000000E-03 0. -1.
    9000002   -1    0    0    0    0 -0.00000000000E+00 -0.00000000000E+00  0.00000000000E+00  0.93800000000E+00  0.93800000000E+00 0.  1.
         11    1    1    2    0    0 -0.21373012988E+00  0.18441241893E+00  0.43225689670E+00  0.51627007907E+00  0.51100000000E-03 0. -1.
    9000002    1    1    2    0    0 -0.50748087227E-01  0.12207589507E+00  0.12524973822E+00  0.95551524815E+00  0.93800000000E+00 0.  1.
         22    1    1    2    0    0  0.26447821711E+00 -0.30648831400E+00  0.34424933324E+01  0.34662146728E+01  0.00000000000E+00 0. -1.
</event>
<event>
 5    1  0.1069754E+002  0.1572760E+01  0.7818608E-02  0.3383469E+00
         11   -1    0    0    0    0  0.00000000000E+00  0.00000000000E+00  0.39999999674E+01  0.40000000000E+01  0.51100000000E-03 0.  1.
    9000002   -1    0    0    0    0 -0.00000000000E+00 -0.00000000000E+00  0.00000000000E+00  0.93800000000E+00  0.93800000000E+00 0. -1.
         11    1    1    2    0    0 -0.92899218722E-01 -0.11309466238E+00  0.11796247516E+01  0.11886696274E+01  0.51100000000E-03 0.  1.
    9000002    1    1    2    0    0 -0.15038523739E+00 -0.12393648456E-01  0.35175396974E-01  0.95071059250E+00  0.93800000000E+00 0. -1.
         22    1    1    2    0    0  0.24328445611E+00  0.12548831083E+00  0.27851998188E+01  0.27986197801E+01  0.00000000000E+00 0.  1.
</event>
<event>
 5    1  0.6645559E+001  0.1599673E+01  0.7818608E-02  0.3353719E+00
         11   -1    0    0    0    0  0.00000000000E+00  0.00000000000E+00  0.39999999674E+01  0.40000000000E+01  0.51100000000E-03 0.  1.
    9000002   -1    0    0    0    0 -0.00000000000E+00 -0.00000000000E+00  0.00000000000E+00  0.93800000000E+00  0.93800000000E+00 0.  1.
         11    1    1    2    0    0  0.11299306646E-01  0.20482881250E+00  0.13770890845E+01  0.13922848576E+01  0.51100000000E-03 0.  1.
    9000002    1    1    2    0    0 -0.32290769457E-01 -0.55635632102E+00  0.21481849785E+00  0.11120099086E+01  0.93800000000E+00 0.  1.
         22    1    1    2    0    0  0.20991462811E-01  0.35152750852E+00  0.24080923850E+01  0.24337052339E+01  0.00000000000E+00 0.  1.
</event>
<event>
 5    1  0.6645559E+001  0.1579480E+01  0.7818608E-02  0.3375940E+00
         11   -1    0    0    0    0  0.00000000000E+00  0.00000000000E+00  0.39999999674E+01  0.40000000000E+01  0.51100000000E-03 0.  1.
    9000002   -1    0    0    0    0 -0.00000000000E+00 -0.00000000000E+00  0.00000000000E+00  0.93800000000E+00  0.93800000000E+00 0.  1.
         11    1    1    2    0    0 -0.32965078013E-02  0.13657160473E+00  0.80422317336E+00  0.81574373664E+00  0.51100000000E-03 0.  1.
    9000002    1    1    2    0    0 -0.35257598118E+00 -0.10079843196E+00  0.10695410896E+00  0.10127948103E+01  0.93800000000E+00 0.  1.
         22    1    1    2    0    0  0.35587248898E+00 -0.35773172772E-01  0.30888226850E+01  0.31094614530E+01  0.00000000000E+00 0.  1.
</event>
<event>
 5    1  0.6645559E+001  0.1599675E+01  0.7818608E-02  0.3353716E+00
         11   -1    0    0    0    0  0.00000000000E+00  0.00000000000E+00  0.39999999674E+01  0.40000000000E+01  0.51100000000E-03 0. -1.
    9000002   -1    0    0    0    0 -0.00000000000E+00 -0.00000000000E+00  0.00000000000E+00  0.93800000000E+00  0.93800000000E+00 0. -1.
         11    1    1    2    0    0  0.11812721637E-01 -0.11186175518E+00  0.94567546069E+00  0.95234181402E+00  0.51100000000E-03 0. -1.
    9000002    1    1    2    0    0 -0.53733779398E-01  0.45403671941E+00  0.14212861458E+00  0.10531292441E+01  0.93800000000E+00 0. -1.
         22    1    1    2    0    0  0.41921057761E-01 -0.34217496424E+00  0.29121958921E+01  0.29325289419E+01  0.00000000000E+00 0. -1.
</event>
<event>
 5    1  0.6645559E+001  0.1598265E+01  0.7818608E-02  0.3355249E+00
         11   -1    0    0    0    0  0.00000000000E+00  0.00000000000E+00  0.39999999674E+01  0.40000000000E+01  0.51100000000E-03 0. -1.
    9000002   -1    0    0    0    0 -0.00000000000E+00 -0.00000000000E+00  0.00000000000E+00  0.93800000000E+00  0.93800000000E+00 0. -1.
         11    1    1    2    0    0 -0.15416238094E-01  0.12460058277E-01  0.54403393847E+00  0.54439516968E+00  0.51100000000E-03 0. -1.
    9000002    1    1    2    0    0  0.33528384431E+00 -0.11300878196E+00  0.85114933869E-01  0.10061186774E+01  0.93800000000E+00 0. -1.
         22    1    1    2    0    0 -0.31986760622E+00  0.10054872368E+00  0.33708510950E+01  0.33874861529E+01  0.00000000000E+00 0. -1.
</event>
<event>
 5    1  0.6645559E+001  0.1599506E+01  0.7818608E-02  0.3353900E+00
         11   -1    0    0    0    0  0.00000000000E+00  0.00000000000E+00  0.39999999674E+01  0.40000000000E+01  0.51100000000E-03 0. -1.
    9000002   -1    0    0    0    0 -0.00000000000E+00 -0.00000000000E+00  0.00000000000E+00  0.93800000000E+00  0.93800000000E+00 0.  1.
         11    1    1    2    0    0  0.12891280630E-01 -0.76232145610E-01  0.70707040636E+00  0.71128499620E+00  0.51100000000E-03 0. -1.
    9000002    1    1    2    0    0 -0.15353983024E-01  0.38330516401E+00  0.99198747059E-01  0.10182548723E+01  0.93800000000E+00 0.  1.
         22    1    1    2    0    0  0.24627023936E-02 -0.30707301840E+00  0.31937308139E+01  0.32084601315E+01  0.00000000000E+00 0. -1.
</event>
<event>
 5    1  0.6645559E+001  0.1599554E+01  0.7818608E-02  0.3353847E+00
         11   -1    0    0    0    0  0.00000000000E+00  0.00000000000E+00  0.39999999674E+01  0.40000000000E+01  0.51100000000E-03 0.  1.
    9000002   -1    0    0    0    0 -0.00000000000E+00 -0.00000000000E+00  0.00000000000E+00  0.93800000000E+00  0.93800000000E+00 0.  1.
         11    1    1    2    0    0 -0.51240590833E-02  0.20130872377E-01  0.23201029996E+00  0.23293893709E+00  0.51100000000E-03 0.  1.
    9000002    1    1    2    0    0  0.18806029868E+00 -0.36381396965E+00  0.11337866898E+00  0.10297698787E+01  0.93800000000E+00 0.  1.
         22    1    1    2    0    0 -0.18293623959E+00  0.34368309727E+00  0.36546109984E+01  0.36752911842E+01  0.00000000000E+00 0.  1.
</event>
<event>
 5    1  0.6645559E+001  0.1598415E+01  0.7818608E-02  0.3355086E+00
         11   -1    0    0    0    0  0.00000000000E+00  0.00000000000E+00  0.39999999674E+01  0.40000000000E+01  0.51100000000E-03 0.  1.
    9000002   -1    0    0    0    0 -0.00000000000E+00 -0.00000000000E+00  0.00000000000E+00  0.93800000000E+00  0.93800000000E+00 0. -1.
         11    1    1    2    0    0 -0.13042364409E+00  0.27638685307E+00  0.95810869387E+00  0.10056701994E+01  0.51100000000E-03 0.  1.
    9000002    1    1    2    0    0  0.52791181312E+00 -0.83240648038E+00  0.77773869056E+00  0.15672628694E+01  0.93800000000E+00 0. -1.
         22    1    1    2    0    0 -0.39748816903E+00  0.55601962730E+00  0.22641525829E+01  0.23650669312E+01  0.00000000000E+00 0. -1.
</event>
<event>
 5    1  0.6645559E+001  0.1599676E+01  0.7818608E-02  0.3353716E+00
         11   -1    0    0    0    0  0.00000000000E+00  0.00000000000E+00  0.39999999674E+01  0.40000000000E+01  0.51100000000E-03 0. -1.
    9000002   -1    0    0    0    0 -0.00000000000E+00 -0.00000000000E+00  0.00000000000E+00  0.93800000000E+00  0.93800000000E+00 0.  1.
         11    1    1    2    0    0 -0.42577004647E-01  0.28038866865E-02  0.47106308513E+00  0.47299191790E+00  0.51100000000E-03 0. -1.
    9000002    1    1    2    0    0  0.35298639236E+00 -0.30224140181E-01  0.84198813563E-01  0.10062039217E+01  0.93800000000E+00 0.  1.
         22    1    1    2    0    0 -0.31040938771E+00  0.27420253494E-01  0.34447380687E+01  0.34588041604E+01  0.00000000000E+00 0. -1.
</event>
<event>
 5    1  0.6645559E+001  0.1599659E+01  0.7818608E-02  0.3353734E+00
         11   -1    0    0    0    0  0.00000000000E+00  0.00000000000E+00  0.39999999674E+01  0.40000000000E+01  0.51100000000E-03 0. -1.
    9000002   -1    0    0    0    0 -0.00000000000E+00 -0.00000000000E+00  0.00000000000E+00  0.93800000000E+00  0.93800000000E+00 0.  1.
         11    1    1    2    0    0  0.45431043084E-01 -0.26896656729E-02  0.52827881414E+00  0.53023577828E+00  0.51100000000E-03 0. -1.
    9000002    1    1    2    0    0 -0.35142489963E+00 -0.12602816177E-02  0.82836282772E-01  0.10050904925E+01  0.93800000000E+00 0.  1.
         22    1    1    2    0    0  0.30599385654E+00  0.39499472907E-02  0.33888848705E+01  0.34026737292E+01  0.00000000000E+00 0. -1.
</event>
<event>
 5    1  0.6645559E+001  0.1599466E+01  0.7818608E-02  0.3353943E+00
         11   -1    0    0    0    0  0.00000000000E+00  0.00000000000E+00  0.39999999674E+01  0.40000000000E+01  0.51100000000E-03 0.  1.
    9000002   -1    0    0    0    0 -0.00000000000E+00 -0.00000000000E+00  0.00000000000E+00  0.93800000000E+00  0.93800000000E+00 0.  1.
         11    1    1    2    0    0  0.13344417971E+00 -0.12263641896E-01  0.11875623265E+01  0.11950992789E+01  0.51100000000E-03 0.  1.
    9000002    1    1    2    0    0 -0.38782844173E+00  0.57987761985E-01  0.10379466153E+00  0.10219544082E+01  0.93800000000E+00 0.  1.
         22    1    1    2    0    0  0.25438426202E+00 -0.45724120089E-01  0.27086429793E+01  0.27209463128E+01  0.00000000000E+00 0.  1.
</event>
<event>
 5    1  0.6645559E+001  0.1587690E+01  0.7818608E-02  0.3366834E+00
         11   -1    0    0    0    0  0.00000000000E+00  0.00000000000E+00  0.39999999674E+01  0.40000000000E+01  0.51100000000E-03 0. -1.
    9000002   -1    0    0    0    0 -0.00000000000E+00 -0.00000000000E+00  0.00000000000E+00  0.93800000000E+00  0.93800000000E+00 0. -1.
         11    1    1    2    0    0 -0.13532164819E+00  0.12752859581E+00  0.14574489989E+01  0.14692628549E+01  0.51100000000E-03 0. -1.
    9000002    1    1    2    0    0  0.33517756055E+00 -0.15110760550E-02  0.84838217150E-01  0.99969385491E+00  0.93800000000E+00 0. -1.
         22    1    1    2    0    0 -0.19985591236E+00 -0.12601751975E+00  0.24577127513E+01  0.24690432902E+01  0.00000000000E+00 0. -1.
</event>
<event>
 5    1  0.6645559E+001  0.1576480E+01  0.7818608E-02  0.3379294E+00
         11   -1    0    0    0    0  0.00000000000E+00  0.00000000000E+00  0.39999999674E+01  0.40000000000E+01  0.51100000000E-03 0.  1.
    9000002   -1    0    0    0    0 -0.00000000000E+00 -0.00000000000E+00  0.00000000000E+00  0.93800000000E+00  0.93800000000E+00 0. -1.
         11    1    1    2    0    0 -0.21895774142E-01  0.10315309224E+00  0.96190999002E+00  0.96767302090E+00  0.51100000000E-03 0.  1.
    9000002    1    1    2    0    0 -0.30254604691E+00  0.89131733214E-01  0.84999084677E-01  0.99325093545E+00  0.93800000000E+00 0. -1.
         22    1    1    2    0    0  0.32444182106E+00 -0.19228482545E+00  0.29530908927E+01  0.29770760437E+01  0.00000000000E+00 0.  1.
</event>
<event>
 5    1  0.6645559E+001  0.1597647E+01  0.7818608E-02  0.3355921E+00
         11   -1    0    0    0    0  0.00000000000E+00  0.00000000000E+00  0.39999999674E+01  0.40000000000E+01  0.51100000000E-03 0. -1.
    9000002   -1    0    0    0    0 -0.00000000000E+00 -0.00000000000E+00  0.00000000000E+00  0.93800000000E+00  0.93800000000E+00 0.  1.
         11    1    1    2    0    0 -0.14405506200E+00 -0.76231061194E-01  0.92762666527E+00  0.94183572177E+00  0.51100000000E-03 0. -1.
    9000002    1    1    2    0    0  0.41568676594E+00  0.24460919809E+00  0.16058822115E+00  0.10668934923E+01  0.93800000000E+00 0.  1.
         22    1    1    2    0    0 -0.27163170394E+00 -0.16837813690E+00  0.29117850809E+01  0.29292707859E+01  0.00000000000E+00 0. -1.
</event>
<event>
 5    1  0.6645559E+001  0.1528754E+01  0.7818608E-02  0.3434517E+00
         11   -1    0    0    0    0  0.00000000000E+00  0.00000000000E+00  0.39999999674E+01  0.40000000000E+01  0.51100000000E-03 0.  1.
    9000002   -1    0    0    0    0 -0.00000000000E+00 -0.00000000000E+00  0.00000000000E+00  0.93800000000E+00  0.93800000000E+00 0. -1.
         11    1    1    2    0    0  0.12141647593E+00  0.19747953653E+00  0.78996836045E+00  0.82328026796E+00  0.51100000000E-03 0.  1.
    9000002    1    1    2    0    0  0.31413797455E-01  0.13125894441E+00  0.66107583630E-01  0.94996313074E+00  0.93800000000E+00 0. -1.
         22    1    1    2    0    0 -0.15283027339E+00 -0.32873848094E+00  0.31439240233E+01  0.31647566013E+01  0.00000000000E+00 0.  1.
</event>
<event>
 5    1  0.6645559E+001  0.1512866E+01  0.7818608E-02  0.3453728E+00
         11   -1    0    0    0    0  0.00000000000E+00  0.00000000000E+00  0.39999999674E+01  0.40000000000E+01  0.51100000000E-03 0. -1.
    9000002   -1    0    0    0    0 -0.00000000000E+00 -0.00000000000E+00  0.00000000000E+00  0.93800000000E+00  0.93800000000E+00 0.  1.
         11    1    1    2    0    0 -0.10204512294E+00  0.13869124642E+00  0.17564894007E+00  0.24597007992E+00  0.51100000000E-03 0. -1.
    9000002    1    1    2    0    0 -0.18328566765E+00 -0.40468795569E+00  0.21280623094E+00  0.10594793388E+01  0.93800000000E+00 0.  1.
         22    1    1    2    0    0  0.28533079059E+00  0.26599670928E+00  0.36115447963E+01  0.36325505813E+01  0.00000000000E+00 0. -1.
</event>
<event>
 5    1  0.6645559E+001  0.1549212E+01  0.7818608E-02  0.3410401E+00
         11   -1    0    0    0    0  0.00000000000E+00  0.00000000000E+00  0.39999999674E+01  0.40000000000E+01  0.51100000000E-03 0.  1.
    9000002   -1    0    0    0    0 -0.00000000000E+00 -0.00000000000E+00  0.00000000000E+00  0.93800000000E+00  0.93800000000E+00 0.  1.
         11    1    1    2    0    0 -0.10486451549E-01 -0.20422426588E+00  0.10031443251E+01  0.10237755196E+01  0.51100000000E-03 0.  1.
    9000002    1    1    2    0    0  0.24751355814E-01 -0.12313862893E+00  0.48391354198E-01  0.94760829181E+00  0.93800000000E+00 0.  1.
         22    1    1    2    0    0 -0.14264904266E-01  0.32736289481E+00  0.29484642880E+01  0.29666161886E+01  0.00000000000E+00 0.  1.
</event>
<event>
 5    1  0.6645559E+001  0.1599677E+01  0.7818608E-02  0.3353714E+00
         11   -1    0    0    0    0  0.00000000000E+00  0.00000000000E+00  0.39999999674E+01  0.40000000000E+01  0.51100000000E-03 0. -1.
    9000002   -1    0    0    0    0 -0.00000000000E+00 -0.00000000000E+00  0.00000000000E+00  0.93800000000E+00  0.93800000000E+00 0.  1.
         11    1    1    2    0    0 -0.43060419843E-01  0.40917931360E-01  0.46106305585E+00  0.46487404687E+00  0.51100000000E-03 0. -1.
    9000002    1    1    2    0    0  0.36013882431E+00 -0.33912984632E+00  0.16736887595E+00  0.10735759713E+01  0.93800000000E+00 0.  1.
         22    1    1    2    0    0 -0.31707840447E+00  0.29821191496E+00  0.33715680356E+01  0.33995499819E+01  0.00000000000E+00 0. -1.
</event>
<event>
 5    1  0.6645559E+001  0.1519482E+01  0.7818608E-02  0.3445676E+00
         11   -1    0    0    0    0  0.00000000000E+00  0.00000000000E+00  0.39999999674E+01  0.40000000000E+01  0.51100000000E-03 0.  1.
    9000002   -1    0    0    0    0 -0.00000000000E+00 -0.00000000000E+00  0.00000000000E+00  0.93800000000E+00  0.93800000000E+00 0.  1.
         11    1    1    2    0    0  0.85256566288E-01 -0.17504254909E+00  0.12571594848E+01  0.12721473214E+01  0.51100000000E-03 0.  1.
    9000002    1    1    2    0    0 -0.53838649592E+00 -0.38482286221E+00  0.40135511484E+00  0.12160915190E+01  0.93800000000E+00 0.  1.
         22    1    1    2    0    0  0.45312992963E+00  0.55986541130E+00  0.23414853678E+01  0.24497611596E+01  0.00000000000E+00 0.  1.
</event>
<event>
 5    1  0.6645559E+001  0.1599655E+01  0.7818608E-02  0.3353738E+00
         11   -1    0    0    0    0  0.00000000000E+00  0.00000000000E+00  0.39999999674E+01  0.40000000000E+01  0.51100000000E-03 0.  1.
    9000002   -1    0    0    0    0 -0.00000000000E+00 -0.00000000000E+00  0.00000000000E+00  0.93800000000E+00  0.93800000000E+00 0.  1.
         11    1    1    2    0    0 -0.19777777270E-01 -0.31303961243E-01  0.31964567002E+00  0.32178364463E+00  0.51100000000E-03 0.  1.
    9000002    1    1    2    0    0  0.23389884373E+00  0.41349834317E+00  0.15389095231E+00  0.10626457425E+01  0.93800000000E+00 0.  1.
         22    1    1    2    0    0 -0.21412106646E+00 -0.38219438193E+00  0.35264633450E+01  0.35535706128E+01  0.00000000000E+00 0.  1.
</event>
<event>
 5    1  0.6645559E+001  0.1597575E+01  0.7818608E-02  0.3356000E+00
         11   -1    0    0    0    0  0.00000000000E+00  0.00000000000E+00  0.39999999674E+01  0.40000000000E+01  0.51100000000E-03 0. -1.
    9000002   -1    0    0    0    0 -0.00000000000E+00 -0.00000000000E+00  0.00000000000E+00  0.93800000000E+00  0.93800000000E+00 0. -1.
         11    1    1    2    0    0  0.24820718556E-01 -0.16893008888E-01  0.47152222647E+00  0.47247742062E+00  0.51100000000E-03 0. -1.
    9000002    1    1    2    0    0 -0.49483684072E+00  0.10445126744E+00  0.17716710318E+00  0.10802804028E+01  0.93800000000E+00 0. -1.
         22    1    1    2    0    0  0.47001612216E+00 -0.87558258554E-01  0.33513106377E+01  0.33852421766E+01  0.00000000000E+00 0. -1.
</event>
<event>
 5    1  0.6645559E+001  0.1599666E+01  0.7818608E-02  0.3353726E+00
         11   -1    0    0    0    0  0.00000000000E+00  0.00000000000E+00  0.39999999674E+01  0.40000000000E+01  0.51100000000E-03 0. -1.
    9000002   -1    0    0    0    0 -0.00000000000E+00 -0.00000000000E+00  0.00000000000E+00  0.93800000000E+00  0.93800000000E+00 0. -1.
         11    1    1    2    0    0  0.71529247081E-01  0.75148281118E-01  0.10593062967E+01  0.10643748347E+01  0.51100000000E-03 0. -1.
    9000002    1    1    2    0    0 -0.27233085530E+00 -0.26748666951E+00  0.98070994342E-01  0.10174355670E+01  0.93800000000E+00 0. -1.
         22    1    1    2    0    0  0.20080160822E+00  0.19233838839E+00  0.28426226763E+01  0.28561895983E+01  0.00000000000E+00 0. -1.
</event>
<event>
 5    1  0.8298199E+001  0.1522670E+01  0.7818608E-02  0.3441823E+00
         11   -1    0    0    0    0  0.00000000000E+00  0.00000000000E+00  0.39999999674E+01  0.40000000000E+01  0.51100000000E-03 0.  1.
    9000002   -1    0    0    0    0 -0.00000000000E+00 -0.00000000000E+00  0.00000000000E+00  0.93800000000E+00  0.93800000000E+00 0.  1.
         11    1    1    2    0    0  0.21431530260E+00  0.20281630065E+00  0.12829045958E+01  0.13164003812E+01  0.51100000000E-03 0.  1.
    9000002    1    1    2    0    0  0.91720702852E-01 -0.19800562296E-01  0.64220216130E-01  0.94486664972E+00  0.93800000000E+00 0.  1.
         22    1    1    2    0    0 -0.30603600545E+00 -0.18301573835E+00  0.26528751555E+01  0.26767329690E+01  0.00000000000E+00 0.  1.
</event>
<event>
 5    1  0.6645559E+001  0.1596990E+01  0.7818608E-02  0.3356637E+00
         11   -1    0    0    0    0  0.00000000000E+00  0.00000000000E+00  0.39999999674E+01  0.40000000000E+01  0.51100000000E-03 0.  1.
    9000002   -1    0    0    0    0 -0.00000000000E+00 -0.00000000000E+00  0.00000000000E+00  0.93800000000E+00  0.93800000000E+00 0. -1.
         11    1    1    2    0    0 -0.30297303206E-01 -0.29712669399E-01  0.63031245320E+00  0.63173951838E+00  0.51100000000E-03 0.  1.
    9000002    1    1    2    0    0  0.28556260664E-01  0.41846677814E+00  0.12124378449E+00  0.10346371150E+01  0.93800000000E+00 0. -1.
         22    1    1    2    0    0  0.17410425419E-02 -0.38875410874E+00  0.32484437297E+01  0.32716233666E+01  0.00000000000E+00 0.  1.
</event>
<event>
 5    1  0.6845990E+001  0.1555276E+01  0.7818608E-02  0.3403383E+00
         11   -1    0    0    0    0  0.00000000000E+00  0.00000000000E+00  0.39999999674E+01  0.40000000000E+01  0.51100000000E-03 0.  1.
    9000002   -1    0    0    0    0 -0.00000000000E+00 -0.00000000000E+00  0.00000000000E+00  0.93800000000E+00  0.93800000000E+00 0. -1.
         11    1    1    2    0    0  0.12270468058E+00  0.10996911898E+00  0.67014794345E+00  0.69010736338E+00  0.51100000000E-03 0.  1.
    9000002    1    1    2    0    0  0.91493633892E-01  0.12727735041E+00  0.49807119849E-01  0.95231053662E+00  0.93800000000E+00 0. -1.
         22    1    1    2    0    0 -0.21419831447E+00 -0.23724646939E+00  0.32800449041E+01  0.32955821000E+01  0.00000000000E+00 0.  1.
</event>
<event>
 5    1  0.6645559E+001  0.1599675E+01  0.7818608E-02  0.3353717E+00
         11   -1    0    0    0    0  0.00000000000E+00  0.00000000000E+00  0.39999999674E+01  0.40000000000E+01  0.51100000000E-03 0.  1.
    9000002   -1    0    0    0    0 -0.00000000000E+00 -0.00000000000E+00  0.00000000000E+00  0.93800000000E+00  0.93800000000E+00 0.  1.
         11    1    1    2    0    0  0.11195892361E+00 -0.71488562136E-01  0.12959233042E+01  0.13027136626E+01  0.51100000000E-03 0.  1.
    9000002    1    1    2    0    0 -0.33305102906E+00  0.21897470421E+00  0.10714563915E+00  0.10247912456E+01  0.93800000000E+00 0.  1.
         22    1    1    2    0    0  0.22109210544E+00 -0.14748614207E+00  0.25969310240E+01  0.26104950918E+01  0.00000000000E+00 0.  1.
</event>
<event>
 5    1  0.6645559E+001  0.1599677E+01  0.7818608E-02  0.3353714E+00
         11   -1    0    0    0    0  0.00000000000E+00  0.00000000000E+00  0.39999999674E+01  0.40000000000E+01  0.51100000000E-03 0. -1.
    9000002   -1    0    0    0    0 -0.00000000000E+00 -0.00000000000E+00  0.00000000000E+00  0.93800000000E+00  0.93800000000E+00 0.  1.
         11    1    1    2    0    0 -0.83813394754E-02 -0.18764616721E+00  0.11149501916E+01  0.11306615417E+01  0.51100000000E-03 0. -1.
    9000002    1    1    2    0    0  0.29367722707E-01  0.62686312633E+00  0.27644369803E+00  0.11619315645E+01  0.93800000000E+00 0.  1.
         22    1    1    2    0    0 -0.20986383231E-01 -0.43921695912E+00  0.26086060777E+01  0.26454068939E+01  0.00000000000E+00 0.  1.
</event>
<event>
 5    1  0.6645559E+001  0.1599640E+01  0.7818608E-02  0.3353754E+00
         11   -1    0    0    0    0  0.00000000000E+00  0.00000000000E+00  0.39999999674E+01  0.40000000000E+01  0.51100000000E-03 0. -1.
    9000002   -1    0    0    0    0 -0.00000000000E+00 -0.00000000000E+00  0.00000000000E+00  0.93800000000E+00  0.93800000000E+00 0. -1.
         11    1    1    2    0    0  0.14312396298E+00 -0.11912685441E-03  0.10471793245E+01  0.10569149832E+01  0.51100000000E-03 0. -1.
    9000002    1    1    2    0    0 -0.52339893481E+00 -0.23233873797E-01  0.18871436533E+00  0.10908452546E+01  0.93800000000E+00 0. -1.
         22    1    1    2    0    0  0.38027497183E+00  0.23353000651E-01  0.27641062775E+01  0.27902397622E+01  0.00000000000E+00 0. -1.
</event>
<event>
 5    1  0.6645559E+001  0.1598028E+01  0.7818608E-02  0.3355506E+00
         11   -1    0    0    0    0  0.00000000000E+00  0.00000000000E+00  0.39999999674E+01  0.40000000000E+01  0.51100000000E-03 0.  1.
    9000002   -1    0    0    0    0 -0.00000000000E+00 -0.00000000000E+00  0.00000000000E+00  0.93800000000E+00  0.93800000000E+00 0. -1.
         11    1    1    2    0    0 -0.10631949311E+00  0.81221446852E-01  0.10186217146E+01  0.10273710219E+01  0.51100000000E-03 0.  1.
    9000002    1    1    2    0    0  0.24182881729E+00 -0.31896877813E+00  0.10945024570E+00  0.10256927486E+01  0.93800000000E+00 0. -1.
         22    1    1    2    0    0 -0.13550932418E+00  0.23774733128E+00  0.28719280070E+01  0.28849362294E+01  0.00000000000E+00 0.  1.
</event>
<event>
 5    1  0.6645559E+001  0.1599676E+01  0.7818608E-02  0.3353715E+00
         11   -1    0    0    0    0  0.00000000000E+00  0.00000000000E+00  0.39999999674E+01  0.40000000000E+01  0.51100000000E-03 0.  1.
    9000002   -1    0    0    0    0 -0.00000000000E+00 -0.00000000000E+00  0.00000000000E+00  0.93800000000E+00  0.93800000000E+00 0. -1.
         11    1    1    2    0    0 -0.54105386071E-01 -0.13279765249E+00  0.13930036494E+01  0.14003649659E+01  0.51100000000E-03 0.  1.
    9000002    1    1    2    0    0  0.15023164943E+00  0.37317856340E+00  0.10919135512E+00  0.10264494828E+01  0.93800000000E+00 0. -1.
         22    1    1    2    0    0 -0.96126263363E-01 -0.24038091091E+00  0.24978049629E+01  0.25111855514E+01  0.00000000000E+00 0.  1.
</event>
<event>
 5    1  0.6645559E+001  0.1560497E+01  0.7818608E-02  0.3397388E+00
         11   -1    0    0    0    0  0.00000000000E+00  0.00000000000E+00  0.39999999674E+01  0.40000000000E+01  0.51100000000E-03 0.  1.
    9000002   -1    0    0    0    0 -0.00000000000E+00 -0.00000000000E+00  0.00000000000E+00  0.93800000000E+00  0.93800000000E+00 0.  1.
         11    1    1    2    0    0  0.10921784087E+00  0.11712933947E+00  0.86086438430E+00  0.87563438044E+00  0.51100000000E-03 0.  1.
    9000002    1    1    2    0    0  0.17935027191E+00  0.56319674161E-01  0.53212761108E-01  0.95813048364E+00  0.93800000000E+00 0.  1.
         22    1    1    2    0    0 -0.28856811279E+00 -0.17344901363E+00  0.30859228220E+01  0.31042351359E+01  0.00000000000E+00 0.  1.
</event>
<event>
 5    1  0.6645559E+001  0.1597549E+01  0.7818608E-02  0.3356028E+00
         11   -1    0    0    0    0  0.00000000000E+00  0.00000000000E+00  0.39999999674E+01  0.40000000000E+01  0.51100000000E-03 0.  1.
    9000002   -1    0    0    0    0 -0.00000000000E+00 -0.00000000000E+00  0.00000000000E+00  0.93800000000E+00  0.93800000000E+00 0. -1.
         11    1    1    2    0    0 -0.19514600809E+00 -0.13946477737E+00  0.13552036177E+01  0.13762665058E+01  0.51100000000E-03 0.  1.
    9000002    1    1    2    0    0  0.39719263675E+00  0.41963293160E+00  0.23392337317E+00  0.11262406193E+01  0.93800000000E+00 0. -1.
         22    1    1    2    0    0 -0.20204662865E+00 -0.28016815423E+00  0.24108729765E+01  0.24354928749E+01  0.00000000000E+00 0.  1.
</event>
<event>
 5    1  0.6645559E+001  0.1599617E+01  0.7818608E-02  0.3353779E+00
         11   -1    0    0    0    0  0.00000000000E+00  0.00000000000E+00  0.39999999674E+01  0.40000000000E+01  0.51100000000E-03 0.  1.
    9000002   -1    0    0    0    0 -0.00000000000E+00 -0.00000000000E+00  0.00000000000E+00  0.93800000000E+00  0.93800000000E+00 0. -1.
         11    1    1    2    0    0  0.42529041095E-01 -0.82880385513E-01  0.89836166127E+00  0.90317872716E+00  0.51100000000E-03 0.  1.
    9000002    1    1    2    0    0 -0.16734112596E+00  0.38768991805E+00  0.12067731583E+00  0.10357188516E+01  0.93800000000E+00 0. -1.
         22    1    1    2    0    0  0.12481208486E+00 -0.30480953253E+00  0.29809609903E+01  0.29991024212E+01  0.00000000000E+00 0. -1.
</event>
<event>
 5    1  0.6645559E+001  0.1599628E+01  0.7818608E-02  0.3353767E+00
         11   -1    0    0    0    0  0.00000000000E+00  0.00000000000E+00  0.39999999674E+01  0.40000000000E+01  0.51100000000E-03 0.  1.
    9000002   -1    0    0    0    0 -0.00000000000E+00 -0.00000000000E+00  0.00000000000E+00  0.93800000000E+00  0.93800000000E+00 0.  1.
         11    1    1    2    0    0 -0.20354368292E-01 -0.32203453748E-01  0.39758657852E+00  0.39940795095E+00  0.51100000000E-03 0.  1.
    9000002    1    1    2    0    0  0.23566141048E+00  0.28141670312E+00  0.90553834611E-01  0.10113237158E+01  0.93800000000E+00 0.  1.
         22    1    1    2    0    0 -0.21530704219E+00 -0.24921324938E+00  0.35118595542E+01  0.35272683332E+01  0.00000000000E+00 0.  1.
</event>
<event>
 5    1  0.6645559E+001  0.1599570E+01  0.7818608E-02  0.3353830E+00
         11   -1    0    0    0    0  0.00000000000E+00  0.00000000000E+00  0.39999999674E+01  0.40000000000E+01  0.51100000000E-03 0. -1.
    9000002   -1    0    0    0    0 -0.00000000000E+00 -0.00000000000E+00  0.00000000000E+00  0.93800000000E+00  0.93800000000E+00 0.  1.
         11    1    1    2    0    0  0.29831885324E-01 -0.12671091550E+00  0.11218068172E+01  0.11293344915E+01  0.51100000000E-03 0. -1.
    9000002    1    1    2    0    0 -0.70187443519E-01  0.41718911600E+00  0.12118080863E+00  0.10360993312E+01  0.93800000000E+00 0.  1.
         22    1    1    2    0    0  0.40355558195E-01 -0.29047820050E+00  0.27570123416E+01  0.27725661773E+01  0.00000000000E+00 0. -1.
</event>
<event>
 5    1  0.6645559E+001  0.1599672E+01  0.7818608E-02  0.3353719E+00
         11   -1    0    0    0    0  0.00000000000E+00  0.00000000000E+00  0.39999999674E+01  0.40000000000E+01  0.51100000000E-03 0.  1.
    9000002   -1    0    0    0    0 -0.00000000000E+00 -0.00000000000E+00  0.00000000000E+00  0.93800000000E+00  0.93800000000E+00 0. -1.
         11    1    1    2    0    0  0.29987208237E-01 -0.45060794482E-01  0.40850953094E+00  0.41208009639E+00  0.51100000000E-03 0.  1.
    9000002    1    1    2    0    0 -0.29248140558E+00  0.41252959077E+00  0.17523191428E+00  0.10799427113E+01  0.93800000000E+00 0. -1.
         22    1    1    2    0    0  0.26249419734E+00 -0.36746879629E+00  0.34162585221E+01  0.34459771923E+01  0.00000000000E+00 0.  1.
</event>
<event>
 5    1  0.6645559E+001  0.1599677E+01  0.7818608E-02  0.3353714E+00
         11   -1    0    0    0    0  0.00000000000E+00  0.00000000000E+00  0.39999999674E+01  0.40000000000E+01  0.51100000000E-03 0. -1.
    9000002   -1    0    0    0    0 -0.00000000000E+00 -0.00000000000E+00  0.00000000000E+00  0.93800000000E+00  0.93800000000E+00 0.  1.
         11    1    1    2    0    0  0.49149235420E-01  0.10567557207E+00  0.12207852134E+01  0.12263359133E+01  0.51100000000E-03 0. -1.
    9000002    1    1    2    0    0 -0.15644990647E+00 -0.33795496164E+00  0.93231677466E-01  0.10135217191E+01  0.93800000000E+00 0.  1.
         22    1    1    2    0    0  0.10730067105E+00  0.23227938957E+00  0.26859830765E+01  0.26981423677E+01  0.00000000000E+00 0. -1.
</event>
<event>
 5    1  0.6645559E+001  0.1599596E+01  0.7818608E-02  0.3353802E+00
         11   -1    0    0    0    0  0.00000000000E+00  0.00000000000E+00  0.39999999674E+01  0.40000000000E+01  0.51100000000E-03 0.  1.
    9000002   -1    0    0    0    0 -0.00000000000E+00 -0.00000000000E+00  0.00000000000E+00  0.93800000000E+00  0.93800000000E+00 0. -1.
         11    1    1    2    0    0 -0.14250848708E+00 -0.90799461853E-01  0.10422027922E+01  0.10558125461E+01  0.51100000000E-03 0.  1.
    9000002    1    1    2    0    0  0.49763833278E+00  0.35777290369E+00  0.26290353016E+00  0.11509159948E+01  0.93800000000E+00 0. -1.
         22    1    1    2    0    0 -0.35512984569E+00 -0.26697344184E+00  0.26948936450E+01  0.27312714592E+01  0.00000000000E+00 0.  1.
</event>
<event>
 5    1  0.6645559E+001  0.1599675E+01  0.7818608E-02  0.3353716E+00
         11   -1    0    0    0    0  0.00000000000E+00  0.00000000000E+00  0.39999999674E+01  0.40000000000E+01  0.51100000000E-03 0. -1.
    9000002   -1    0    0    0    0 -0.00000000000E+00 -0.00000000000E+00  0.00000000000E+00  0.93800000000E+00  0.93800000000E+00 0. -1.
         11    1    1    2    0    0 -0.70578561911E-01 -0.55666938163E-01  0.79957959453E+00  0.80461663575E+00  0.51100000000E-03 0. -1.
    9000002    1    1    2    0    0  0.34563387095E+00  0.26417988899E+00  0.12826217105E+00  0.10418968140E+01  0.93800000000E+00 0. -1.
         22    1    1    2    0    0 -0.27505530904E+00 -0.20851295083E+00  0.30721582018E+01  0.30914865503E+01  0.00000000000E+00 0. -1.
</event>
<event>
 5    1  0.6645559E+001  0.1577470E+01  0.7818608E-02  0.3378186E+00
         11   -1    0    0    0    0  0.00000000000E+00  0.00000000000E+00  0.39999999674E+01  0.40000000000E+01  0.51100000000E-03 0.  1.
    9000002   -1    0    0    0    0 -0.00000000000E+00 -0.00000000000E+00  0.00000000000E+00  0.93800000000E+00  0.93800000000E+00 0.  1.
         11    1    1    2    0    0 -0.12147119372E+00  0.17009260078E+00  0.11683032257E+01  0.11868527423E+01  0.51100000000E-03 0.  1.
    9000002    1    1    2    0    0  0.34388489544E+00 -0.22200776122E-01  0.97618210192E-01  0.10040532908E+01  0.93800000000E+00 0.  1.
         22    1    1    2    0    0 -0.22241370172E+00 -0.14789182465E+00  0.27340785315E+01  0.27470939669E+01  0.00000000000E+00 0.  1.
</event>
<event>
 5    1  0.6645559E+001  0.1599584E+01  0.7818608E-02  0.3353815E+00
         11   -1    0    0    0    0  0.00000000000E+00  0.00000000000E+00  0.39999999674E+01  0.40000000000E+01  0.51100000000E-03 0. -1.
    9000002   -1    0    0    0    0 -0.00000000000E+00 -0.00000000000E+00  0.00000000000E+00  0.93800000000E+00  0.93800000000E+00 0.  1.
         11    1    1    2    0    0 -0.93779437385E-01  0.78064243997E-02  0.92442059634E+00  0.92919816142E+00  0.51100000000E-03 0. -1.
    9000002    1    1    2    0    0  0.41949832801E+00 -0.65145065533E-01  0.12203967626E+00  0.10368029752E+01  0.93800000000E+00 0.  1.
         22    1    1    2    0    0 -0.32571889063E+00  0.57338641133E-01  0.29535396948E+01  0.29719988634E+01  0.00000000000E+00 0. -1.
</event>
<event>
 5    1  0.6645559E+001  0.1599669E+01  0.7818608E-02  0.3353723E+00
         11   -1    0    0    0    0  0.00000000000E+00  0.00000000000E+00  0.39999999674E+01  0.40000000000E+01  0.51100000000E-03 0.  1.
    9000002   -1    0    0    0    0 -0.00000000000E+00 -0.00000000000E+00  0.00000000000E+00  0.93800000000E+00  0.93800000000E+00 0.  1.
         11    1    1    2    0    0  0.17751389911E+00  0.12886643707E-01  0.14138081161E+01  0.14249669821E+01  0.51100000000E-03 0.  1.
    9000002    1    1    2    0    0 -0.49039843480E+00 -0.35980854413E-01  0.16529509872E+00  0.10718916533E+01  0.93800000000E+00 0.  1.
         22    1    1    2    0    0  0.31288453569E+00  0.23094210706E-01  0.24208967526E+01  0.24411413646E+01  0.00000000000E+00 0.  1.
</event>
<event>
 5    1  0.6645559E+001  0.1599676E+01  0.7818608E-02  0.3353715E+00
         11   -1    0    0    0    0  0.00000000000E+00  0.00000000000E+00  0.39999999674E+01  0.40000000000E+01  0.51100000000E-03 0. -1.
    9000002   -1    0    0    0    0 -0.00000000000E+00 -0.00000000000E+00  0.00000000000E+00  0.93800000000E+00  0.93800000000E+00 0. -1.
         11    1    1    2    0    0  0.90988484200E-01  0.38924233485E-01  0.43266916677E+00  0.44384329352E+00  0.51100000000E-03 0. -1.
    9000002    1    1    2    0    0 -0.73599054806E+00 -0.31878430324E+00  0.47420610273E+00  0.13221274321E+01  0.93800000000E+00 0. -1.
         22    1    1    2    0    0  0.64500206386E+00  0.27986006975E+00  0.30931246979E+01  0.31720292744E+01  0.00000000000E+00 0. -1.
</event>
<event>
 5    1  0.6645559E+001  0.1599677E+01  0.7818608E-02  0.3353714E+00
         11   -1    0    0    0    0  0.00000000000E+00  0.00000000000E+00  0.39999999674E+01  0.40000000000E+01  0.51100000000E-03 0.  1.
    9000002   -1    0    0    0    0 -0.00000000000E+00 -0.00000000000E+00  0.00000000000E+00  0.93800000000E+00  0.93800000000E+00 0.  1.
         11    1    1    2    0    0  0.10534876639E+00 -0.51562239876E-01  0.11647188267E+01  0.11706097700E+01  0.51100000000E-03 0. -1.
    9000002    1    1    2    0    0 -0.35225957500E+00  0.17123409504E+00  0.10336762715E+00  0.10217322496E+01  0.93800000000E+00 0.  1.
         22    1    1    2    0    0  0.24691080861E+00 -0.11967185517E+00  0.27319135135E+01  0.27456579804E+01  0.00000000000E+00 0.  1.
</event>
<event>
 5    1  0.6645559E+001  0.1599198E+01  0.7818608E-02  0.3354234E+00
         11   -1    0    0    0    0  0.00000000000E+00  0.00000000000E+00  0.39999999674E+01  0.40000000000E+01  0.51100000000E-03 0.  1.
    9000002   -1    0    0    0    0 -0.00000000000E+00 -0.00000000000E+00  0.00000000000E+00  0.93800000000E+00  0.93800000000E+00 0. -1.
         11    1    1    2    0    0 -0.10815100758E+00  0.92790018857E-01  0.12499118981E+01  0.12580089993E+01  0.51100000000E-03 0.  1.
    9000002    1    1    2    0    0  0.35529625061E+00 -0.21429227057E+00  0.11675304686E+00  0.10322944720E+01  0.93800000000E+00 0. -1.
         22    1    1    2    0    0 -0.24714524303E+00  0.12150225171E+00  0.26333350224E+01  0.26476965288E+01  0.00000000000E+00 0.  1.
</event>
<event>
 5    1  0.1031808E+002  0.1597947E+01  0.7818608E-02  0.3355595E+00
         11   -1    0    0    0    0  0.00000000000E+00  0.00000000000E+00  0.39999999674E+01  0.40000000000E+01  0.51100000000E-03 0.  1.
    9000002   -1    0    0    0    0 -0.00000000000E+00 -0.00000000000E+00  0.00000000000E+00  0.93800000000E+00  0.93800000000E+00 0. -1.
         11    1    1    2    0    0 -0.54378833150E-01 -0.91751850848E-03  0.13286227070E+01  0.13297354842E+01  0.51100000000E-03 0.  1.
    9000002    1    1    2    0    0  0.28009859529E+00 -0.72709529581E-01  0.57158954380E-01  0.98328685786E+00  0.93800000000E+00 0. -1.
         22    1    1    2    0    0 -0.22571976214E+00  0.73627048090E-01  0.26142183060E+01  0.26249776580E+01  0.00000000000E+00 0.  1.
</event>
<event>
 5    1  0.6645559E+001  0.1591446E+01  0.7818608E-02  0.3362700E+00
         11   -1    0    0    0    0  0.00000000000E+00  0.00000000000E+00  0.39999999674E+01  0.40000000000E+01  0.51100000000E-03 0. -1.
    9000002   -1    0    0    0    0 -0.00000000000E+00 -0.00000000000E+00  0.00000000000E+00  0.93800000000E+00  0.93800000000E+00 0. -1.
         11    1    1    2    0    0  0.11748256597E+00 -0.74951804931E-01  0.90238464017E+00  0.91308171940E+00  0.51100000000E-03 0. -1.
    9000002    1    1    2    0    0 -0.11604353170E+00  0.40210071789E+00  0.12540435782E+00  0.10347566581E+01  0.93800000000E+00 0. -1.
         22    1    1    2    0    0 -0.14390342634E-02 -0.32714891296E+00  0.29722109694E+01  0.29901616225E+01  0.00000000000E+00 0. -1.
</event>
<event>
 5    1  0.6645559E+001  0.1599655E+01  0.7818608E-02  0.3353738E+00
         11   -1    0    0    0    0  0.00000000000E+00  0.00000000000E+00  0.39999999674E+01  0.40000000000E+01  0.51100000000E-03 0.  1.
    9000002   -1    0    0    0    0 -0.00000000000E+00 -0.00000000000E+00  0.00000000000E+00  0.93800000000E+00  0.93800000000E+00 0. -1.
         11    1    1    2    0    0  0.13237950975E+00 -0.65902223118E-01  0.12040945973E+01  0.12131411698E+01  0.51100000000E-03 0.  1.
    9000002    1    1    2    0    0 -0.42731609357E+00  0.22611729121E+00  0.15958475363E+00  0.10672578727E+01  0.93800000000E+00 0. -1.
         22    1    1    2    0    0  0.29493658382E+00 -0.16021506810E+00  0.26363206165E+01  0.26576009575E+01  0.00000000000E+00 0.  1.
</event>
<event>
 5    1  0.6645559E+001  0.1535449E+01  0.7818608E-02  0.3426549E+00
         11   -1    0    0    0    0  0.00000000000E+00  0.00000000000E+00  0.39999999674E+01  0.40000000000E+01  0.51100000000E-03 0. -1.
    9000002   -1    0    0    0    0 -0.00000000000E+00 -0.00000000000E+00  0.00000000000E+00  0.93800000000E+00  0.93800000000E+00 0.  1.
         11    1    1    2    0    0  0.17700688738E-01  0.46369238877E+00  0.13185426543E+01  0.13978121970E+01  0.51100000000E-03 0. -1.
    9000002    1    1    2    0    0 -0.25452946309E+00 -0.49976661829E+00  0.28183798966E+00  0.11286401432E+01  0.93800000000E+00 0.  1.
         22    1    1    2    0    0  0.23682877435E+00  0.36074229516E-01  0.23996193234E+01  0.24115476598E+01  0.00000000000E+00 0. -1.
</event>
<event>
 5    1  0.6645559E+001  0.1599674E+01  0.7818608E-02  0.3353717E+00
         11   -1    0    0    0    0  0.00000000000E+00  0.00000000000E+00  0.39999999674E+01  0.40000000000E+01  0.51100000000E-03 0.  1.
    9000002   -1    0    0    0    0 -0.00000000000E+00 -0.00000000000E+00  0.00000000000E+00  0.93800000000E+00  0.93800000000E+00 0.  1.
         11    1    1    2    0    0  0.46520909986E-01  0.10561043894E-01  0.41797882655E+00  0.42069263278E+00  0.51100000000E-03 0.  1.
    9000002    1    1    2    0    0 -0.42867075619E+00 -0.10804007036E+00  0.13258267307E+00  0.10453963073E+01  0.93800000000E+00 0. -1.
         22    1    1    2    0    0  0.38214984621E+00  0.97479026462E-01  0.34494384677E+01  0.34719110600E+01  0.00000000000E+00 0.  1.
</event>
<event>
 5    1  0.6645559E+001  0.1599020E+01  0.7818608E-02  0.3354428E+00
         11   -1    0    0    0    0  0.00000000000E+00  0.00000000000E+00  0.39999999674E+01  0.40000000000E+01  0.51100000000E-03 0. -1.
    9000002   -1    0    0    0    0 -0.00000000000E+00 -0.00000000000E+00  0.00000000000E+00  0.93800000000E+00  0.93800000000E+00 0. -1.
         11    1    1    2    0    0  0.12709287679E-01  0.18769782693E-01  0.38812599363E+00  0.38878770401E+00  0.51100000000E-03 0. -1.
    9000002    1    1    2    0    0 -0.30484407289E+00 -0.24452114621E+00  0.10343647367E+00  0.10214027628E+01  0.93800000000E+00 0. -1.
         22    1    1    2    0    0  0.29213478521E+00  0.22575136351E+00  0.35084375001E+01  0.35278095332E+01  0.00000000000E+00 0. -1.
</event>
<event>
 5    1  0.6645559E+001  0.1579618E+01  0.7818608E-02  0.3375787E+00
         11   -1    0    0    0    0  0.00000000000E+00  0.00000000000E+00  0.39999999674E+01  0.40000000000E+01  0.51100000000E-03 0. -1.
    9000002   -1    0    0    0    0 -0.00000000000E+00 -0.00000000000E+00  0.00000000000E+00  0.93800000000E+00  0.93800000000E+00 0.  1.
         11    1    1    2    0    0  0.22448063291E-01  0.82030784318E-01  0.12673499378E+00  0.15262694680E+00  0.51100000000E-03 0. -1.
    9000002    1    1    2    0    0 -0.32972323312E+00 -0.49626807071E+00  0.26759315020E+00  0.11430002198E+01  0.93800000000E+00 0.  1.
         22    1    1    2    0    0  0.30727516983E+00  0.41423728639E+00  0.36056718234E+01  0.36423728334E+01  0.00000000000E+00 0. -1.
</event>
<event>
 5    1  0.6645559E+001  0.1597560E+01  0.7818608E-02  0.3356016E+00
         11   -1    0    0    0    0  0.00000000000E+00  0.00000000000E+00  0.39999999674E+01  0.40000000000E+01  0.51100000000E-03 0. -1.
    9000002   -1    0    0    0    0 -0.00000000000E+00 -0.00000000000E+00  0.00000000000E+00  0.93800000000E+00  0.93800000000E+00 0. -1.
         11    1    1    2    0    0  0.28669542978E-01 -0.13104805109E-02  0.60288917161E+00  0.60357209546E+00  0.51100000000E-03 0. -1.
    9000002    1    1    2    0    0 -0.42084291899E+00 -0.95899387719E-01  0.12800628110E+00  0.10404494524E+01  0.93800000000E+00 0. -1.
         22    1    1    2    0    0  0.39217337601E+00  0.97209868230E-01  0.32691045147E+01  0.32939784521E+01  0.00000000000E+00 0. -1.
</event>
<event>
 5    1  0.6645559E+001  0.1551794E+01  0.7818608E-02  0.3407406E+00
         11   -1    0    0    0    0  0.00000000000E+00  0.00000000000E+00  0.39999999674E+01  0.40000000000E+01  0.51100000000E-03 0.  1.
    9000002   -1    0    0    0    0 -0.00000000000E+00 -0.00000000000E+00  0.00000000000E+00  0.93800000000E+00  0.93800000000E+00 0.  1.
         11    1    1    2    0    0 -0.90470827766E-01  0.92322304748E-02  0.14260910639E+00  0.16913847316E+00  0.51100000000E-03 0.  1.
    9000002    1    1    2    0    0 -0.27439304083E+00  0.24137139707E+00  0.12971599747E+00  0.10149984888E+01  0.93800000000E+00 0.  1.
         22    1    1    2    0    0  0.36486386860E+00 -0.25060362754E+00  0.37276748635E+01  0.37538630381E+01  0.00000000000E+00 0.  1.
</event>
<event>
 5    1  0.7166112E+001  0.1545609E+01  0.7818608E-02  0.3414600E+00
         11   -1    0    0    0    0  0.00000000000E+00  0.00000000000E+00  0.39999999674E+01  0.40000000000E+01  0.51100000000E-03 0. -1.
    9000002   -1    0    0    0    0 -0.00000000000E+00 -0.00000000000E+00  0.00000000000E+00  0.93800000000E+00  0.93800000000E+00 0.  1.
         11    1    1    2    0    0 -0.25660353041E+00  0.73934008320E-01  0.14064074937E+01  0.14315355074E+01  0.51100000000E-03 0. -1.
    9000002    1    1    2    0    0  0.13238438129E-01  0.49751876940E-01  0.42042343522E-01  0.94035209584E+00  0.93800000000E+00 0.  1.
         22    1    1    2    0    0  0.24336509228E+00 -0.12368588526E+00  0.25515501301E+01  0.25661123968E+01  0.00000000000E+00 0. -1.
</event>
<event>
 5    1  0.6645559E+001  0.1599676E+01  0.7818608E-02  0.3353715E+00
         11   -1    0    0    0    0  0.00000000000E+00  0.00000000000E+00  0.39999999674E+01  0.40000000000E+01  0.51100000000E-03 0.  1.
    9000002   -1    0    0    0    0 -0.00000000000E+00 -0.00000000000E+00  0.00000000000E+00  0.93800000000E+00  0.93800000000E+00 0.  1.
         11    1    1    2    0    0  0.14233592383E+00 -0.16838374085E-01  0.14380848986E+01  0.14452098404E+01  0.51100000000E-03 0.  1.
    9000002    1    1    2    0    0 -0.38808049598E+00  0.45036134083E-01  0.10283428922E+00  0.10212999637E+01  0.93800000000E+00 0.  1.
         22    1    1    2    0    0  0.24574457214E+00 -0.28197759997E-01  0.24590807795E+01  0.24714901959E+01  0.00000000000E+00 0.  1.
</event>
<event>
 5    1  0.6645559E+001  0.1599677E+01  0.7818608E-02  0.3353714E+00
         11   -1    0    0    0    0  0.00000000000E+00  0.00000000000E+00  0.39999999674E+01  0.40000000000E+01  0.51100000000E-03 0. -1.
    9000002   -1    0    0    0    0 -0.00000000000E+00 -0.00000000000E+00  0.00000000000E+00  0.93800000000E+00  0.93800000000E+00 0. -1.
         11    1    1    2    0    0 -0.92930467076E-01 -0.64342782425E-01  0.12370671547E+01  0.12422203796E+01  0.51100000000E-03 0. -1.
    9000002    1    1    2    0    0  0.29386422135E+00  0.20271753736E+00  0.85523763781E-01  0.10072779630E+01  0.93800000000E+00 0. -1.
         22    1    1    2    0    0 -0.20093375428E+00 -0.13837475494E+00  0.26774090489E+01  0.26885016574E+01  0.00000000000E+00 0. -1.
</event>
<event>
 5    1  0.6645559E+001  0.1589699E+01  0.7818608E-02  0.3364620E+00
         11   -1    0    0    0    0  0.00000000000E+00  0.00000000000E+00  0.39999999674E+01  0.40000000000E+01  0.51100000000E-03 0. -1.
    9000002   -1    0    0    0    0 -0.00000000000E+00 -0.00000000000E+00  0.00000000000E+00  0.93800000000E+00  0.93800000000E+00 0. -1.
         11    1    1    2    0    0  0.16585833412E-01  0.15276139464E+00  0.10425369459E+01  0.10538001130E+01  0.51100000000E-03 0. -1.
    9000002    1    1    2    0    0 -0.28472102497E+00 -0.24110357380E+00  0.10177728795E+00  0.10145933233E+01  0.93800000000E+00 0. -1.
         22    1    1    2    0    0  0.26813519156E+00  0.88342179164E-01  0.28556857335E+01  0.28696065636E+01  0.00000000000E+00 0. -1.
</event>
<event>
 5    1  0.6645559E+001  0.1503523E+01  0.7818608E-02  0.3465229E+00
         11   -1    0    0    0    0  0.00000000000E+00  0.00000000000E+00  0.39999999674E+01  0.40000000000E+01  0.51100000000E-03 0.  1.
    9000002   -1    0    0    0    0 -0.00000000000E+00 -0.00000000000E+00  0.00000000000E+00  0.93800000000E+00  0.93800000000E+00 0. -1.
         11    1    1    2    0    0 -0.14709219974E-01 -0.29226598849E+00  0.83402024135E+00  0.88386978299E+00  0.51100000000E-03 0.  1.
    9000002    1    1    2    0    0 -0.16111681543E+00 -0.53705029917E-01  0.94156884682E-01  0.95788954342E+00  0.93800000000E+00 0. -1.
         22    1    1    2    0    0  0.17582603541E+00  0.34597101841E+00  0.30718228413E+01  0.30962406736E+01  0.00000000000E+00 0.  1.
</event>
<event>
 5    1  0.6645559E+001  0.1599670E+01  0.7818608E-02  0.3353722E+00
         11   -1    0    0    0    0  0.00000000000E+00  0.00000000000E+00  0.39999999674E+01  0.40000000000E+01  0.51100000000E-03 0.  1.
    9000002   -1    0    0    0    0 -0.00000000000E+00 -0.00000000000E+00  0.00000000000E+00  0.93800000000E+00  0.93800000000E+00 0. -1.
         11    1    1    2    0    0 -0.14177029753E+00 -0.12784623242E-01  0.14760928196E+01  0.14829405036E+01  0.51100000000E-03 0.  1.
    9000002    1    1    2    0    0  0.38058619564E+00  0.39468187749E-01  0.98543400400E-01  0.10178204124E+01  0.93800000000E+00 0. -1.
         22    1    1    2    0    0 -0.23881589811E+00 -0.26683564507E-01  0.24253637473E+01  0.24372390840E+01  0.00000000000E+00 0. -1.
</event>
<event>
 5    1  0.6645559E+001  0.1599507E+01  0.7818608E-02  0.3353899E+00
         11   -1    0    0    0    0  0.00000000000E+00  0.00000000000E+00  0.39999999674E+01  0.40000000000E+01  0.51100000000E-03 0.  1.
    9000002   -1    0    0    0    0 -0.00000000000E+00 -0.00000000000E+00  0.00000000000E+00  0.93800000000E+00  0.93800000000E+00 0. -1.
         11    1    1    2    0    0 -0.10149974509E-01  0.16821030914E-02  0.66814602935E-01  0.67604021624E-01  0.51100000000E-03 0.  1.
    9000002    1    1    2    0    0  0.37788083036E+00  0.26611242800E-02  0.96197171612E-01  0.10158242463E+01  0.93800000000E+00 0. -1.
         22    1    1    2    0    0 -0.36773085585E+00 -0.43432273715E-02  0.38369881928E+01  0.38545717321E+01  0.00000000000E+00 0.  1.
</event>
<event>
 5    1  0.6645559E+001  0.1596048E+01  0.7818608E-02  0.3357664E+00
         11   -1    0    0    0    0  0.00000000000E+00  0.00000000000E+00  0.39999999674E+01  0.40000000000E+01  0.51100000000E-03 0.  1.
    9000002   -1    0    0    0    0 -0.00000000000E+00 -0.00000000000E+00  0.00000000000E+00  0.93800000000E+00  0.93800000000E+00 0. -1.
         11    1    1    2    0    0  0.82998784789E-01 -0.33622199712E+00  0.93799448552E+00  0.99988396607E+00  0.51100000000E-03 0.  1.
    9000002    1    1    2    0    0 -0.33794443654E+00  0.92547790790E+00  0.78128247971E+00  0.15687453947E+01  0.93800000000E+00 0. -1.
         22    1    1    2    0    0  0.25494565175E+00 -0.58925591078E+00  0.22807230021E+01  0.23693706393E+01  0.00000000000E+00 0.  1.
</event>
<event>
 5    1  0.6645559E+001  0.1589834E+01  0.7818608E-02  0.3364471E+00
         11   -1    0    0    0    0  0.00000000000E+00  0.00000000000E+00  0.39999999674E+01  0.40000000000E+01  0.51100000000E-03 0. -1.
    9000002   -1    0    0    0    0 -0.00000000000E+00 -0.00000000000E+00  0.00000000000E+00  0.93800000000E+00  0.93800000000E+00 0.  1.
         11    1    1    2    0    0  0.30154976371E-01  0.19496516381E-01  0.25694158571E+00  0.25943915730E+00  0.51100000000E-03 0. -1.
    9000002    1    1    2    0    0  0.31617637954E+00  0.16146470779E+00  0.92549828355E-01  0.10071980071E+01  0.93800000000E+00 0.  1.
         22    1    1    2    0    0 -0.34633135591E+00 -0.18096122417E+00  0.36505085533E+01  0.36713628356E+01  0.00000000000E+00 0. -1.
</event>
<event>
 5    1  0.6645559E+001  0.1599463E+01  0.7818608E-02  0.3353946E+00
         11   -1    0    0    0    0  0.00000000000E+00  0.00000000000E+00  0.39999999674E+01  0.40000000000E+01  0.51100000000E-03 0.  1.
    9000002   -1    0    0    0    0 -0.00000000000E+00 -0.00000000000E+00  0.00000000000E+00  0.93800000000E+00  0.93800000000E+00 0.  1.
         11    1    1    2    0    0  0.59144569838E-01 -0.28160688865E-01  0.44391139274E+00  0.44871894351E+00  0.51100000000E-03 0.  1.
    9000002    1    1    2    0    0 -0.45479382617E+00  0.32284838534E+00  0.21537709713E+00  0.11123397854E+01  0.93800000000E+00 0.  1.
         22    1    1    2    0    0  0.39564925634E+00 -0.29468769647E+00  0.33407114775E+01  0.33769412711E+01  0.00000000000E+00 0.  1.
</event>
<event>
 5    1  0.6645559E+001  0.1594941E+01  0.7818608E-02  0.3358873E+00
         11   -1    0    0    0    0  0.00000000000E+00  0.00000000000E+00  0.39999999674E+01  0.40000000000E+01  0.51100000000E-03 0. -1.
    9000002   -1    0    0    0    0 -0.00000000000E+00 -0.00000000000E+00  0.00000000000E+00  0.93800000000E+00  0.93800000000E+00 0.  1.
         11    1    1    2    0    0 -0.11620794045E-01  0.74110921381E-01  0.14084701544E+01  0.14104665571E+01  0.51100000000E-03 0. -1.
    9000002    1    1    2    0    0 -0.15721903620E+00 -0.31991841083E+00  0.89098850764E-01  0.10073967541E+01  0.93800000000E+00 0.  1.
         22    1    1    2    0    0  0.16883983024E+00  0.24580748945E+00  0.25024309622E+01  0.25201366888E+01  0.00000000000E+00 0. -1.
</event>
<event>
 5    1  0.6645559E+001  0.1599664E+01  0.7818608E-02  0.3353728E+00
         11   -1    0    0    0    0  0.00000000000E+00  0.00000000000E+00  0.39999999674E+01  0.40000000000E+01  0.51100000000E-03 0. -1.
    9000002   -1    0    0    0    0 -0.00000000000E+00 -0.00000000000E+00  0.00000000000E+00  0.93800000000E+00  0.93800000000E+00 0.  1.
         11    1    1    2    0    0  0.55696660905E-01  0.10254484730E+00  0.11188935384E+01  0.11249624773E+01  0.51100000000E-03 0. -1.
    9000002    1    1    2    0    0 -0.18030247633E+00 -0.35846308944E+00  0.10862908717E+00  0.10259868654E+01  0.93800000000E+00 0.  1.
         22    1    1    2    0    0  0.12460581543E+00  0.25591824214E+00  0.27724773417E+01  0.27870506573E+01  0.00000000000E+00 0. -1.
</event>
<event>
 5    1  0.6645559E+001  0.1598132E+01  0.7818608E-02  0.3355394E+00
         11   -1    0    0    0    0  0.00000000000E+00  0.00000000000E+00  0.39999999674E+01  0.40000000000E+01  0.51100000000E-03 0.  1.
    9000002   -1    0    0    0    0 -0.00000000000E+00 -0.00000000000E+00  0.00000000000E+00  0.93800000000E+00  0.93800000000E+00 0. -1.
         11    1    1    2    0    0 -0.16238863668E+00 -0.56598153308E-01  0.14780339668E+01  0.14880047340E+01  0.51100000000E-03 0.  1.
    9000002    1    1    2    0    0  0.38270874339E+00  0.37009242604E-01  0.10079749398E+00  0.10187442275E+01  0.93800000000E+00 0. -1.
         22    1    1    2    0    0 -0.22032010671E+00  0.19588910704E-01  0.24211685066E+01  0.24312510385E+01  0.00000000000E+00 0.  1.
</event>
<event>
 5    1  0.6645559E+001  0.1599590E+01  0.7818608E-02  0.3353808E+00
         11   -1    0    0    0    0  0.00000000000E+00  0.00000000000E+00  0.39999999674E+01  0.40000000000E+01  0.51100000000E-03 0. -1.
    9000002   -1    0    0    0    0 -0.00000000000E+00 -0.00000000000E+00  0.00000000000E+00  0.93800000000E+00  0.93800000000E+00 0.  1.
         11    1    1    2    0    0  0.92208341087E-01  0.88899444699E-01  0.86964315919E+00  0.87902501379E+00  0.51100000000E-03 0. -1.
    9000002    1    1    2    0    0 -0.37359634153E+00 -0.41719263220E+00  0.21712074919E+00  0.11138264400E+01  0.93800000000E+00 0.  1.
         22    1    1    2    0    0  0.28138800044E+00  0.32829318750E+00  0.29132360590E+01  0.29451485462E+01  0.00000000000E+00 0. -1.
</event>
<event>
 5    1  0.6645559E+001  0.1598663E+01  0.7818608E-02  0.3354816E+00
         11   -1    0    0    0    0  0.00000000000E+00  0.00000000000E+00  0.39999999674E+01  0.40000000000E+01  0.51100000000E-03 0. -1.
    9000002   -1    0    0    0    0 -0.00000000000E+00 -0.00000000000E+00  0.00000000000E+00  0.93800000000E+00  0.93800000000E+00 0. -1.
         11    1    1    2    0    0 -0.76716962665E-03 -0.12029871510E-01  0.78122447980E-01  0.79048620210E-01  0.51100000000E-03 0. -1.
    9000002    1    1    2    0    0  0.36126132799E+00  0.17225912382E+00  0.10889403159E+00  0.10256143832E+01  0.93800000000E+00 0. -1.
         22    1    1    2    0    0 -0.36049415836E+00 -0.16022925231E+00  0.38129834878E+01  0.38333369966E+01  0.00000000000E+00 0. -1.
</event>
<event>
 5    1  0.6645559E+001  0.1566941E+01  0.7818608E-02  0.3390045E+00
         11   -1    0    0    0    0  0.00000000000E+00  0.00000000000E+00  0.39999999674E+01  0.40000000000E+01  0.51100000000E-03 0.  1.
    9000002   -1    0    0    0    0 -0.00000000000E+00 -0.00000000000E+00  0.00000000000E+00  0.93800000000E+00  0.93800000000E+00 0. -1.
         11    1    1    2    0    0  0.75213683689E-02  0.66149159549E-01  0.89500447496E-01  0.11154762890E+00  0.51100000000E-03 0.  1.
    9000002    1    1    2    0    0 -0.47367891655E+00  0.12375732522E+00  0.19362544298E+00  0.10756497588E+01  0.93800000000E+00 0. -1.
         22    1    1    2    0    0  0.46615754818E+00 -0.18990648477E+00  0.37168740769E+01  0.37508026123E+01  0.00000000000E+00 0.  1.
</event>
<event>
 5    1  0.6645559E+001  0.1599646E+01  0.7818608E-02  0.3353748E+00
         11   -1    0    0    0    0  0.00000000000E+00  0.00000000000E+00  0.39999999674E+01  0.40000000000E+01  0.51100000000E-03 0. -1.
    9000002   -1    0    0    0    0 -0.00000000000E+00 -0.00000000000E+00  0.00000000000E+00  0.93800000000E+00  0.93800000000E+00 0.  1.
         11    1    1    2    0    0 -0.10610539920E+00  0.97697596930E-01  0.13613025474E+01  0.13689222267E+01  0.51100000000E-03 0. -1.
    9000002    1    1    2    0    0  0.28529398914E+00 -0.28245221672E+00  0.10875991434E+00  0.10260821770E+01  0.93800000000E+00 0.  1.
         22    1    1    2    0    0 -0.17918858994E+00  0.18475461979E+00  0.25299375056E+01  0.25429955963E+01  0.00000000000E+00 0. -1.
</event>
<event>
 5    1  0.6645559E+001  0.1593262E+01  0.7818608E-02  0.3360709E+00
         11   -1    0    0    0    0  0.00000000000E+00  0.00000000000E+00  0.39999999674E+01  0.40000000000E+01  0.51100000000E-03 0. -1.
    9000002   -1    0    0    0    0 -0.00000000000E+00 -0.00000000000E+00  0.00000000000E+00  0.93800000000E+00  0.93800000000E+00 0. -1.
         11    1    1    2    0    0 -0.21072456143E-01  0.12254046357E-01  0.70448511777E+00  0.70490691041E+00  0.51100000000E-03 0. -1.
    9000002    1    1    2    0    0  0.12117745616E+00  0.34334361647E+00  0.94259148662E-01  0.10105926983E+01  0.93800000000E+00 0. -1.
         22    1    1    2    0    0 -0.10010500002E+00 -0.35559766282E+00  0.32012557009E+01  0.32225003912E+01  0.00000000000E+00 0. -1.
</event>
<event>
 5    1  0.6645559E+001  0.1599621E+01  0.7818608E-02  0.3353774E+00
         11   -1    0    0    0    0  0.00000000000E+00  0.00000000000E+00  0.39999999674E+01  0.40000000000E+01  0.51100000000E-03 0. -1.
    9000002   -1    0    0    0    0 -0.00000000000E+00 -0.00000000000E+00  0.00000000000E+00  0.93800000000E+00  0.93800000000E+00 0.  1.
         11    1    1    2    0    0 -0.16017435122E-01 -0.21163114677E-01  0.21322438760E+00  0.21487051039E+00  0.51100000000E-03 0. -1.
    9000002    1    1    2    0    0  0.30514922182E+00  0.31155046088E+00  0.12895489470E+00  0.10424265452E+01  0.93800000000E+00 0.  1.
         22    1    1    2    0    0 -0.28913178670E+00 -0.29038734621E+00  0.36578206851E+01  0.36807029444E+01  0.00000000000E+00 0. -1.
</event>
<event>
 5    1  0.6645559E+001  0.1469995E+01  0.7818608E-02  0.3507800E+00
         11   -1    0    0    0    0  0.00000000000E+00  0.00000000000E+00  0.39999999674E+01  0.40000000000E+01  0.51100000000E-03 0. -1.
    9000002   -1    0    0    0    0 -0.00000000000E+00 -0.00000000000E+00  0.00000000000E+00  0.93800000000E+00  0.93800000000E+00 0.  1.
         11    1    1    2    0    0  0.43361195450E+00 -0.23311780640E+00  0.11110915015E+01  0.12152727367E+01  0.51100000000E-03 0. -1.
    9000002    1    1    2    0    0 -0.12907615098E+00 -0.95556765065E-03  0.15195782678E+00  0.95895607145E+00  0.93800000000E+00 0.  1.
         22    1    1    2    0    0 -0.30453580353E+00  0.23407337405E+00  0.27369506391E+01  0.27637711919E+01  0.00000000000E+00 0. -1.
</event>
<event>
 5    1  0.6645559E+001  0.1599634E+01  0.7818608E-02  0.3353761E+00
         11   -1    0    0    0    0  0.00000000000E+00  0.00000000000E+00  0.39999999674E+01  0.40000000000E+01  0.51100000000E-03 0. -1.
    9000002   -1    0    0    0    0 -0.00000000000E+00 -0.00000000000E+00  0.00000000000E+00  0.93800000000E+00  0.93800000000E+00 0.  1.
         11    1    1    2    0    0 -0.32588783140E-02 -0.24745245889E-01  0.30227147836E+00  0.30330060210E+00  0.51100000000E-03 0. -1.
    9000002    1    1    2    0    0  0.92784938512E-01  0.34131751575E+00  0.83954916259E-01  0.10059816695E+01  0.93800000000E+00 0.  1.
         22    1    1    2    0    0 -0.89526060198E-01 -0.31657226986E+00  0.36137735727E+01  0.36287177284E+01  0.00000000000E+00 0. -1.
</event>
<event>
 5    1  0.6645559E+001  0.1599216E+01  0.7818608E-02  0.3354214E+00
         11   -1    0    0    0    0  0.00000000000E+00  0.00000000000E+00  0.39999999674E+01  0.40000000000E+01  0.51100000000E-03 0.  1.
    9000002   -1    0    0    0    0 -0.00000000000E+00 -0.00000000000E+00  0.00000000000E+00  0.93800000000E+00  0.93800000000E+00 0.  1.
         11    1    1    2    0    0  0.31393663554E-01  0.31894713767E-01  0.35775630229E+00  0.36054495951E+00  0.51100000000E-03 0.  1.
    9000002    1    1    2    0    0 -0.18164549879E+00 -0.32362844215E+00  0.92948272053E-01  0.10130221306E+01  0.93800000000E+00 0.  1.
         22    1    1    2    0    0  0.15025183524E+00  0.29173372838E+00  0.35492953930E+01  0.35644329099E+01  0.00000000000E+00 0.  1.
</event>
<event>
 5    1  0.6645559E+001  0.1599676E+01  0.7818608E-02  0.3353715E+00
         11   -1    0    0    0    0  0.00000000000E+00  0.00000000000E+00  0.39999999674E+01  0.40000000000E+01  0.51100000000E-03 0. -1.
    9000002   -1    0    0    0    0 -0.00000000000E+00 -0.00000000000E+00  0.00000000000E+00  0.93800000000E+00  0.93800000000E+00 0. -1.
         11    1    1    2    0    0  0.44823383620E-01  0.35410207219E-01  0.40251081655E+00  0.40654426211E+00  0.51100000000E-03 0. -1.
    9000002    1    1    2    0    0 -0.42738691227E+00 -0.33708758445E+00  0.20442806659E+00  0.11035952368E+01  0.93800000000E+00 0. -1.
         22    1    1    2    0    0  0.38256352865E+00  0.30167737723E+00  0.33930610842E+01  0.34278605010E+01  0.00000000000E+00 0. -1.
</event>
<event>
 5    1  0.6645559E+001  0.1597092E+01  0.7818608E-02  0.3356526E+00
         11   -1    0    0    0    0  0.00000000000E+00  0.00000000000E+00  0.39999999674E+01  0.40000000000E+01  0.51100000000E-03 0. -1.
    9000002   -1    0    0    0    0 -0.00000000000E+00 -0.00000000000E+00  0.00000000000E+00  0.93800000000E+00  0.93800000000E+00 0. -1.
         11    1    1    2    0    0  0.30969655914E-01 -0.62608150906E-01  0.10573223172E+01  0.10596271249E+01  0.51100000000E-03 0. -1.
    9000002    1    1    2    0    0 -0.29627589316E+00  0.31135814553E+00  0.12729917566E+00  0.10396020295E+01  0.93800000000E+00 0. -1.
         22    1    1    2    0    0  0.26530623725E+00 -0.24874999462E+00  0.28153784745E+01  0.28387708456E+01  0.00000000000E+00 0. -1.
</event>
<event>
 5    1  0.6645559E+001  0.1599671E+01  0.7818608E-02  0.3353720E+00
         11   -1    0    0    0    0  0.00000000000E+00  0.00000000000E+00  0.39999999674E+01  0.40000000000E+01  0.51100000000E-03 0.  1.
    9000002   -1    0    0    0    0 -0.00000000000E+00 -0.00000000000E+00  0.00000000000E+00  0.93800000000E+00  0.93800000000E+00 0. -1.
         11    1    1    2    0    0  0.98742199787E-02  0.87758821615E-02  0.14051340077E+00  0.14113395497E+00  0.51100000000E-03 0.  1.
    9000002    1    1    2    0    0 -0.28910251226E+00 -0.22105014575E+00  0.88949058825E-01  0.10100491892E+01  0.93800000000E+00 0. -1.
         22    1    1    2    0    0  0.27922829228E+00  0.21227426358E+00  0.37705375078E+01  0.37868168558E+01  0.00000000000E+00 0.  1.
</event>
<event>
 5    1  0.6645559E+001  0.1598850E+01  0.7818608E-02  0.3354612E+00
         11   -1    0    0    0    0  0.00000000000E+00  0.00000000000E+00  0.39999999674E+01  0.40000000000E+01  0.51100000000E-03 0. -1.
    9000002   -1    0    0    0    0 -0.00000000000E+00 -0.00000000000E+00  0.00000000000E+00  0.93800000000E+00  0.93800000000E+00 0.  1.
         11    1    1    2    0    0 -0.36909018319E-01 -0.36835692643E-01  0.71646192562E+00  0.71835722024E+00  0.51100000000E-03 0. -1.
    9000002    1    1    2    0    0  0.26361782224E+00  0.33064173429E+00  0.12168239580E+00  0.10360834513E+01  0.93800000000E+00 0.  1.
         22    1    1    2    0    0 -0.22670880392E+00 -0.29380604165E+00  0.31618556459E+01  0.31835593284E+01  0.00000000000E+00 0. -1.
</event>
<event>
 5    1  0.6645559E+001  0.1538851E+01  0.7818608E-02  0.3422529E+00
         11   -1    0    0    0    0  0.00000000000E+00  0.00000000000E+00  0.39999999674E+01  0.40000000000E+01  0.51100000000E-03 0. -1.
    9000002   -1    0    0    0    0 -0.00000000000E+00 -0.00000000000E+00  0.00000000000E+00  0.93800000000E+00  0.93800000000E+00 0. -1.
         11    1    1    2    0    0  0.24174498925E+00  0.10475142943E+00  0.13289972560E+01  0.13548606827E+01  0.51100000000E-03 0. -1.
    9000002    1    1    2    0    0  0.33003511737E-01  0.50334814531E-01  0.47918665919E-01  0.94114984136E+00  0.93800000000E+00 0. -1.
         22    1    1    2    0    0 -0.27474850099E+00 -0.15508624396E+00  0.26230840454E+01  0.26419894760E+01  0.00000000000E+00 0. -1.
</event>
<event>
 5    1  0.6645559E+001  0.1598686E+01  0.7818608E-02  0.3354791E+00
         11   -1    0    0    0    0  0.00000000000E+00  0.00000000000E+00  0.39999999674E+01  0.40000000000E+01  0.51100000000E-03 0. -1.
    9000002   -1    0    0    0    0 -0.00000000000E+00 -0.00000000000E+00  0.00000000000E+00  0.93800000000E+00  0.93800000000E+00 0. -1.
         11    1    1    2    0    0 -0.10683890495E-01 -0.71283816279E-01  0.52655194861E+00  0.53146283378E+00  0.51100000000E-03 0. -1.
    9000002    1    1    2    0    0  0.18167528670E+00  0.36420186343E+00  0.11266414289E+00  0.10286817371E+01  0.93800000000E+00 0. -1.
         22    1    1    2    0    0 -0.17099139621E+00 -0.29291804716E+00  0.33607838759E+01  0.33778554291E+01  0.00000000000E+00 0. -1.
</event>
<event>
 5    1  0.6645559E+001  0.1597655E+01  0.7818608E-02  0.3355912E+00
         11   -1    0    0    0    0  0.00000000000E+00  0.00000000000E+00  0.39999999674E+01  0.40000000000E+01  0.51100000000E-03 0.  1.
    9000002   -1    0    0    0    0 -0.00000000000E+00 -0.00000000000E+00  0.00000000000E+00  0.93800000000E+00  0.93800000000E+00 0.  1.
         11    1    1    2    0    0  0.73492838352E-01  0.13604972781E+00  0.12116670045E+01  0.12214941329E+01  0.51100000000E-03 0.  1.
    9000002    1    1    2    0    0 -0.27013739336E+00 -0.27966867596E+00  0.10350701079E+00  0.10206598262E+01  0.93800000000E+00 0.  1.
         22    1    1    2    0    0  0.19664455501E+00  0.14361894815E+00  0.26848259520E+01  0.26958460409E+01  0.00000000000E+00 0.  1.
</event>
<event>
 5    1  0.6645559E+001  0.1599677E+01  0.7818608E-02  0.3353714E+00
         11   -1    0    0    0    0  0.00000000000E+00  0.00000000000E+00  0.39999999674E+01  0.40000000000E+01  0.51100000000E-03 0.  1.
    9000002   -1    0    0    0    0 -0.00000000000E+00 -0.00000000000E+00  0.00000000000E+00  0.93800000000E+00  0.93800000000E+00 0. -1.
         11    1    1    2    0    0 -0.13679774734E+00  0.31617438346E-01  0.11890904767E+01  0.11973511218E+01  0.51100000000E-03 0.  1.
    9000002    1    1    2    0    0  0.44283803572E+00 -0.10192336222E+00  0.14033945296E+00  0.10516810637E+01  0.93800000000E+00 0. -1.
         22    1    1    2    0    0 -0.30604028838E+00  0.70305923875E-01  0.26705700377E+01  0.26889678145E+01  0.00000000000E+00 0.  1.
</event>
<event>
 5    1  0.6645561E+001  0.1597827E+01  0.7818608E-02  0.3355726E+00
         11   -1    0    0    0    0  0.00000000000E+00  0.00000000000E+00  0.39999999674E+01  0.40000000000E+01  0.51100000000E-03 0. -1.
    9000002   -1    0    0    0    0 -0.00000000000E+00 -0.00000000000E+00  0.00000000000E+00  0.93800000000E+00  0.93800000000E+00 0. -1.
         11    1    1    2    0    0  0.55210627416E-01  0.49484539628E-01  0.11364734109E+01  0.11388893748E+01  0.51100000000E-03 0. -1.
    9000002    1    1    2    0    0 -0.10338993622E+00 -0.30783575714E+00  0.71987200606E-01  0.99522785800E+00  0.93800000000E+00 0. -1.
         22    1    1    2    0    0  0.48179308800E-01  0.25835121751E+00  0.27915393558E+01  0.28038827672E+01  0.00000000000E+00 0. -1.
</event>
<event>
 5    1  0.6645559E+001  0.1586412E+01  0.7818608E-02  0.3368245E+00
         11   -1    0    0    0    0  0.00000000000E+00  0.00000000000E+00  0.39999999674E+01  0.40000000000E+01  0.51100000000E-03 0.  1.
    9000002   -1    0    0    0    0 -0.00000000000E+00 -0.00000000000E+00  0.00000000000E+00  0.93800000000E+00  0.93800000000E+00 0.  1.
         11    1    1    2    0    0  0.11721915492E+00  0.18146282967E-01  0.10031416707E+01  0.10101302344E+01  0.51100000000E-03 0.  1.
    9000002    1    1    2    0    0 -0.80460534817E-01 -0.35518273483E+00  0.99926785632E-01  0.10111666704E+01  0.93800000000E+00 0.  1.
         22    1    1    2    0    0 -0.36758620105E-01  0.33703645186E+00  0.28969315111E+01  0.29167030952E+01  0.00000000000E+00 0.  1.
</event>
<event>
 5    1  0.6645559E+001  0.1599672E+01  0.7818608E-02  0.3353720E+00
         11   -1    0    0    0    0  0.00000000000E+00  0.00000000000E+00  0.39999999674E+01  0.40000000000E+01  0.51100000000E-03 0. -1.
    9000002   -1    0    0    0    0 -0.00000000000E+00 -0.00000000000E+00  0.00000000000E+00  0.93800000000E+00  0.93800000000E+00 0.  1.
         11    1    1    2    0    0 -0.41650867109E-02 -0.12021417917E+00  0.12544456138E+01  0.12601995302E+01  0.51100000000E-03 0. -1.
    9000002    1    1    2    0    0  0.20454329416E-01  0.37717779749E+00  0.95979969335E-01  0.10157448622E+01  0.93800000000E+00 0.  1.
         22    1    1    2    0    0 -0.16289242705E-01 -0.25696361831E+00  0.26495743842E+01  0.26620556076E+01  0.00000000000E+00 0. -1.
</event>
<event>
 5    1  0.6645559E+001  0.1599316E+01  0.7818608E-02  0.3354106E+00
         11   -1    0    0    0    0  0.00000000000E+00  0.00000000000E+00  0.39999999674E+01  0.40000000000E+01  0.51100000000E-03 0. -1.
    9000002   -1    0    0    0    0 -0.00000000000E+00 -0.00000000000E+00  0.00000000000E+00  0.93800000000E+00  0.93800000000E+00 0. -1.
         11    1    1    2    0    0  0.29891742958E-01  0.10757485784E-01  0.30928576852E+00  0.31091347274E+00  0.51100000000E-03 0. -1.
    9000002    1    1    2    0    0 -0.45248466623E+00 -0.11821532099E-02  0.13942232480E+00  0.10507265845E+01  0.93800000000E+00 0. -1.
         22    1    1    2    0    0  0.42259292327E+00 -0.95753325737E-02  0.35512918740E+01  0.35763599428E+01  0.00000000000E+00 0. -1.
</event>
<event>
 5    1  0.6645559E+001  0.1599675E+01  0.7818608E-02  0.3353716E+00
         11   -1    0    0    0    0  0.00000000000E+00  0.00000000000E+00  0.39999999674E+01  0.40000000000E+01  0.51100000000E-03 0.  1.
    9000002   -1    0    0    0    0 -0.00000000000E+00 -0.00000000000E+00  0.00000000000E+00  0.93800000000E+00  0.93800000000E+00 0.  1.
         11    1    1    2    0    0  0.70252574883E-01  0.28085236232E-02  0.78549603496E+00  0.78863654122E+00  0.51100000000E-03 0.  1.
    9000002    1    1    2    0    0 -0.35490520955E+00 -0.18285575809E-01  0.84732298557E-01  0.10066357993E+01  0.93800000000E+00 0.  1.
         22    1    1    2    0    0  0.28465263467E+00  0.15477052185E-01  0.31297716338E+01  0.31427276595E+01  0.00000000000E+00 0.  1.
</event>
<event>
 5    1  0.6645559E+001  0.1598859E+01  0.7818608E-02  0.3354603E+00
         11   -1    0    0    0    0  0.00000000000E+00  0.00000000000E+00  0.39999999674E+01  0.40000000000E+01  0.51100000000E-03 0.  1.
    9000002   -1    0    0    0    0 -0.00000000000E+00 -0.00000000000E+00  0.00000000000E+00  0.93800000000E+00  0.93800000000E+00 0. -1.
         11    1    1    2    0    0 -0.71784601063E-01 -0.77323495807E-01  0.85465514773E+00  0.86114321376E+00  0.51100000000E-03 0.  1.
    9000002    1    1    2    0    0  0.32793179352E+00  0.22217093869E+00  0.10645823723E+00  0.10237560957E+01  0.93800000000E+00 0. -1.
         22    1    1    2    0    0 -0.25614719245E+00 -0.14484744288E+00  0.30388865824E+01  0.30531006905E+01  0.00000000000E+00 0.  1.
</event>
<event>
 5    1  0.6645559E+001  0.1596650E+01  0.7818608E-02  0.3357007E+00
         11   -1    0    0    0    0  0.00000000000E+00  0.00000000000E+00  0.39999999674E+01  0.40000000000E+01  0.51100000000E-03 0.  1.
    9000002   -1    0    0    0    0 -0.00000000000E+00 -0.00000000000E+00  0.00000000000E+00  0.93800000000E+00  0.93800000000E+00 0. -1.
         11    1    1    2    0    0  0.61077922823E-01 -0.36202863500E-01  0.45113845581E+00  0.45669172033E+00  0.51100000000E-03 0.  1.
    9000002    1    1    2    0    0 -0.16615714189E+00  0.38004131996E+00  0.11881849079E+00  0.10324734546E+01  0.93800000000E+00 0. -1.
         22    1    1    2    0    0  0.10507921907E+00 -0.34383845646E+00  0.34300430208E+01  0.34488348251E+01  0.00000000000E+00 0.  1.
</event>
<event>
 5    1  0.6645559E+001  0.1567649E+01  0.7818608E-02  0.3389242E+00
         11   -1    0    0    0    0  0.00000000000E+00  0.00000000000E+00  0.39999999674E+01  0.40000000000E+01  0.51100000000E-03 0.  1.
    9000002   -1    0    0    0    0 -0.00000000000E+00 -0.00000000000E+00  0.00000000000E+00  0.93800000000E+00  0.93800000000E+00 0. -1.
         11    1    1    2    0    0 -0.28769462236E-01 -0.15004830858E+00  0.75696598252E+00  0.77223049453E+00  0.51100000000E-03 0.  1.
    9000002    1    1    2    0    0  0.28723280050E+00 -0.93812889250E-01  0.86456214513E-01  0.98925336335E+00  0.93800000000E+00 0. -1.
         22    1    1    2    0    0 -0.25846333826E+00  0.24386119783E+00  0.31565777703E+01  0.31765161421E+01  0.00000000000E+00 0.  1.
</event>
<event>
 5    1  0.7801044E+001  0.1599520E+01  0.7818608E-02  0.3353884E+00
         11   -1    0    0    0    0  0.00000000000E+00  0.00000000000E+00  0.39999999674E+01  0.40000000000E+01  0.51100000000E-03 0.  1.
    9000002   -1    0    0    0    0 -0.00000000000E+00 -0.00000000000E+00  0.00000000000E+00  0.93800000000E+00  0.93800000000E+00 0. -1.
         11    1    1    2    0    0 -0.14240867988E+00 -0.23515860721E+00  0.14540428939E+01  0.14798043117E+01  0.51100000000E-03 0.  1.
    9000002    1    1    2    0    0  0.37738543186E+00  0.61624998052E+00  0.37571103430E+00  0.12422506124E+01  0.93800000000E+00 0. -1.
         22    1    1    2    0    0 -0.23497675198E+00 -0.38109137330E+00  0.21702460392E+01  0.22159450759E+01  0.00000000000E+00 0. -1.
</event>
<event>
 5    1  0.6645559E+001  0.1587088E+01  0.7818608E-02  0.3367497E+00
         11   -1    0    0    0    0  0.00000000000E+00  0.00000000000E+00  0.39999999674E+01  0.40000000000E+01  0.51100000000E-03 0. -1.
    9000002   -1    0    0    0    0 -0.00000000000E+00 -0.00000000000E+00  0.00000000000E+00  0.93800000000E+00  0.93800000000E+00 0. -1.
         11    1    1    2    0    0 -0.34156578346E-01 -0.64493135819E-01  0.63793368163E+00  0.64209475912E+00  0.51100000000E-03 0. -1.
    9000002    1    1    2    0    0 -0.32810056974E+00  0.10364320044E+00  0.89501115319E-01  0.10031183113E+01  0.93800000000E+00 0. -1.
         22    1    1    2    0    0  0.36225714808E+00 -0.39150064617E-01  0.32725651704E+01  0.32927869296E+01  0.00000000000E+00 0. -1.
</event>
<event>
 5    1  0.6645559E+001  0.1581370E+01  0.7818608E-02  0.3373836E+00
         11   -1    0    0    0    0  0.00000000000E+00  0.00000000000E+00  0.39999999674E+01  0.40000000000E+01  0.51100000000E-03 0. -1.
    9000002   -1    0    0    0    0 -0.00000000000E+00 -0.00000000000E+00  0.00000000000E+00  0.93800000000E+00  0.93800000000E+00 0.  1.
         11    1    1    2    0    0 -0.38988149214E-01 -0.65941593799E-01  0.11186163488E+01  0.11212364454E+01  0.51100000000E-03 0. -1.
    9000002    1    1    2    0    0 -0.37061877122E+00  0.14937291360E+00  0.12308373479E+00  0.10269684254E+01  0.93800000000E+00 0.  1.
         22    1    1    2    0    0  0.40960692043E+00 -0.83431319796E-01  0.27582998837E+01  0.27897951292E+01  0.00000000000E+00 0. -1.
</event>
<event>
 5    1  0.6645559E+001  0.1599653E+01  0.7818608E-02  0.3353740E+00
         11   -1    0    0    0    0  0.00000000000E+00  0.00000000000E+00  0.39999999674E+01  0.40000000000E+01  0.51100000000E-03 0.  1.
    9000002   -1    0    0    0    0 -0.00000000000E+00 -0.00000000000E+00  0.00000000000E+00  0.93800000000E+00  0.93800000000E+00 0.  1.
         11    1    1    2    0    0  0.41111510162E-02  0.85514253872E-01  0.30395272481E+00  0.31578015963E+00  0.51100000000E-03 0.  1.
    9000002    1    1    2    0    0 -0.44016321790E-01 -0.95923485880E+00  0.72607293565E+00  0.15261372346E+01  0.93800000000E+00 0.  1.
         22    1    1    2    0    0  0.39905170774E-01  0.87372060493E+00  0.29699743069E+01  0.30960826058E+01  0.00000000000E+00 0.  1.
</event>
<event>
 5    1  0.6645559E+001  0.1599676E+01  0.7818608E-02  0.3353715E+00
         11   -1    0    0    0    0  0.00000000000E+00  0.00000000000E+00  0.39999999674E+01  0.40000000000E+01  0.51100000000E-03 0.  1.
    9000002   -1    0    0    0    0 -0.00000000000E+00 -0.00000000000E+00  0.00000000000E+00  0.93800000000E+00  0.93800000000E+00 0. -1.
         11    1    1    2    0    0  0.25230419657E-01  0.31230185169E-01  0.22084379007E+00  0.22446411579E+00  0.51100000000E-03 0. -1.
    9000002    1    1    2    0    0 -0.41559446421E+00 -0.52162558682E+00  0.31518576060E+00  0.11933139047E+01  0.93800000000E+00 0. -1.
         22    1    1    2    0    0  0.39036404455E+00  0.49039540165E+00  0.34639704167E+01  0.35202219795E+01  0.00000000000E+00 0.  1.
</event>
<event>
 5    1  0.1149441E+002  0.1585547E+01  0.7818608E-02  0.3369202E+00
         11   -1    0    0    0    0  0.00000000000E+00  0.00000000000E+00  0.39999999674E+01  0.40000000000E+01  0.51100000000E-03 0. -1.
    9000002   -1    0    0    0    0 -0.00000000000E+00 -0.00000000000E+00  0.00000000000E+00  0.93800000000E+00  0.93800000000E+00 0.  1.
         11    1    1    2    0    0  0.68367607176E-01  0.91164858445E-01  0.14711457886E+01  0.14755525587E+01  0.51100000000E-03 0. -1.
    9000002    1    1    2    0    0  0.17710659556E+00 -0.15617495843E+00  0.47814166919E-01  0.96844595016E+00  0.93800000000E+00 0.  1.
         22    1    1    2    0    0 -0.24547420273E+00  0.65010099983E-01  0.24810400119E+01  0.24940014911E+01  0.00000000000E+00 0.  1.
</event>
<event>
 5    1  0.6645559E+001  0.1489794E+01  0.7818608E-02  0.3482411E+00
         11   -1    0    0    0    0  0.00000000000E+00  0.00000000000E+00  0.39999999674E+01  0.40000000000E+01  0.51100000000E-03 0.  1.
    9000002   -1    0    0    0    0 -0.00000000000E+00 -0.00000000000E+00  0.00000000000E+00  0.93800000000E+00  0.93800000000E+00 0. -1.
         11    1    1    2    0    0  0.84205200135E-01 -0.32781650516E-01  0.82313428634E-02  0.90736808775E-01  0.51100000000E-03 0.  1.
    9000002    1    1    2    0    0  0.16359309665E+00  0.44611200345E+00  0.25820360793E+00  0.10827242142E+01  0.93800000000E+00 0. -1.
         22    1    1    2    0    0 -0.24779829678E+00 -0.41333035293E+00  0.37335650166E+01  0.37645389770E+01  0.00000000000E+00 0.  1.
</event>
<event>
 5    1  0.6645559E+001  0.1582252E+01  0.7818608E-02  0.3372854E+00
         11   -1    0    0    0    0  0.00000000000E+00  0.00000000000E+00  0.39999999674E+01  0.40000000000E+01  0.51100000000E-03 0.  1.
    9000002   -1    0    0    0    0 -0.00000000000E+00 -0.00000000000E+00  0.00000000000E+00  0.93800000000E+00  0.93800000000E+00 0. -1.
         11    1    1    2    0    0  0.32143152162E-01  0.86099716515E-01  0.87115513140E+00  0.87598965034E+00  0.51100000000E-03 0.  1.
    9000002    1    1    2    0    0 -0.15203346184E+00  0.20676306129E+00  0.57252449444E-01  0.97415962758E+00  0.93800000000E+00 0. -1.
         22    1    1    2    0    0  0.11989030968E+00 -0.29286277780E+00  0.30715923865E+01  0.30878507221E+01  0.00000000000E+00 0.  1.
</event>
<event>
 5    1  0.6645559E+001  0.1599494E+01  0.7818608E-02  0.3353913E+00
         11   -1    0    0    0    0  0.00000000000E+00  0.00000000000E+00  0.39999999674E+01  0.40000000000E+01  0.51100000000E-03 0.  1.
    9000002   -1    0    0    0    0 -0.00000000000E+00 -0.00000000000E+00  0.00000000000E+00  0.93800000000E+00  0.93800000000E+00 0.  1.
         11    1    1    2    0    0 -0.37452622142E-01 -0.18215916486E-01  0.29288104576E+00  0.29582779890E+00  0.51100000000E-03 0.  1.
    9000002    1    1    2    0    0  0.43898589982E+00  0.13946281127E+00  0.14448294787E+00  0.10549302433E+01  0.93800000000E+00 0.  1.
         22    1    1    2    0    0 -0.40153327767E+00 -0.12124689478E+00  0.35626359737E+01  0.35872419578E+01  0.00000000000E+00 0.  1.
</event>
<event>
 5    1  0.6645559E+001  0.1599659E+01  0.7818608E-02  0.3353733E+00
         11   -1    0    0    0    0  0.00000000000E+00  0.00000000000E+00  0.39999999674E+01  0.40000000000E+01  0.51100000000E-03 0.  1.
    9000002   -1    0    0    0    0 -0.00000000000E+00 -0.00000000000E+00  0.00000000000E+00  0.93800000000E+00  0.93800000000E+00 0.  1.
         11    1    1    2    0    0 -0.86921314907E-01 -0.51210230305E-01  0.10071540267E+01  0.10121942981E+01  0.51100000000E-03 0.  1.
    9000002    1    1    2    0    0  0.32539032246E+00  0.18592872363E+00  0.94454379920E-01  0.10145018394E+01  0.93800000000E+00 0.  1.
         22    1    1    2    0    0 -0.23846900756E+00 -0.13471849333E+00  0.28983915608E+01  0.29113038625E+01  0.00000000000E+00 0. -1.
</event>
<event>
 5    1  0.6645559E+001  0.1597942E+01  0.7818608E-02  0.3355600E+00
         11   -1    0    0    0    0  0.00000000000E+00  0.00000000000E+00  0.39999999674E+01  0.40000000000E+01  0.51100000000E-03 0. -1.
    9000002   -1    0    0    0    0 -0.00000000000E+00 -0.00000000000E+00  0.00000000000E+00  0.93800000000E+00  0.93800000000E+00 0. -1.
         11    1    1    2    0    0 -0.83743211578E-01  0.13206962635E+00  0.10071841400E+01  0.10192524048E+01  0.51100000000E-03 0. -1.
    9000002    1    1    2    0    0  0.17101977995E+00 -0.57838264798E+00  0.25570789554E+00  0.11441174679E+01  0.93800000000E+00 0. -1.
         22    1    1    2    0    0 -0.87276568372E-01  0.44631302162E+00  0.27371079318E+01  0.27746301272E+01  0.00000000000E+00 0. -1.
</event>
<event>
 5    1  0.6645559E+001  0.1574631E+01  0.7818608E-02  0.3381367E+00
         11   -1    0    0    0    0  0.00000000000E+00  0.00000000000E+00  0.39999999674E+01  0.40000000000E+01  0.51100000000E-03 0. -1.
    9000002   -1    0    0    0    0 -0.00000000000E+00 -0.00000000000E+00  0.00000000000E+00  0.93800000000E+00  0.93800000000E+00 0.  1.
         11    1    1    2    0    0 -0.33860266192E-01  0.10096776511E+00  0.71755845364E+00  0.72541808822E+00  0.51100000000E-03 0. -1.
    9000002    1    1    2    0    0 -0.19228056811E+00  0.15877880392E+00  0.60690864909E-01  0.97247617273E+00  0.93800000000E+00 0.  1.
         22    1    1    2    0    0  0.22614083430E+00 -0.25974656903E+00  0.32217506488E+01  0.32401057390E+01  0.00000000000E+00 0. -1.
</event>
<event>
 5    1  0.6645559E+001  0.1599677E+01  0.7818608E-02  0.3353714E+00
         11   -1    0    0    0    0  0.00000000000E+00  0.00000000000E+00  0.39999999674E+01  0.40000000000E+01  0.51100000000E-03 0.  1.
    9000002   -1    0    0    0    0 -0.00000000000E+00 -0.00000000000E+00  0.00000000000E+00  0.93800000000E+00  0.93800000000E+00 0.  1.
         11    1    1    2    0    0  0.93735759072E-01  0.56053277557E-01  0.10978803438E+01  0.11032995390E+01  0.51100000000E-03 0.  1.
    9000002    1    1    2    0    0 -0.33159919516E+00 -0.19990045732E+00  0.10095996124E+00  0.10197819045E+01  0.93800000000E+00 0.  1.
         22    1    1    2    0    0  0.23786343609E+00  0.14384717976E+00  0.28011596624E+01  0.28149185564E+01  0.00000000000E+00 0.  1.
</event>
<event>
 5    1  0.6645559E+001  0.1594958E+01  0.7818608E-02  0.3358854E+00
         11   -1    0    0    0    0  0.00000000000E+00  0.00000000000E+00  0.39999999674E+01  0.40000000000E+01  0.51100000000E-03 0.  1.
    9000002   -1    0    0    0    0 -0.00000000000E+00 -0.00000000000E+00  0.00000000000E+00  0.93800000000E+00  0.93800000000E+00 0.  1.
         11    1    1    2    0    0  0.65859551408E-01 -0.23126965150E-01  0.13548996434E+01  0.13566965917E+01  0.51100000000E-03 0.  1.
    9000002    1    1    2    0    0 -0.17185998074E+00  0.29388903575E+00  0.81423338824E-01  0.10011894818E+01  0.93800000000E+00 0.  1.
         22    1    1    2    0    0  0.10600042934E+00 -0.27076207060E+00  0.25636769851E+01  0.25801139265E+01  0.00000000000E+00 0.  1.
</event>
<event>
 5    1  0.6645559E+001  0.1503157E+01  0.7818608E-02  0.3465682E+00
         11   -1    0    0    0    0  0.00000000000E+00  0.00000000000E+00  0.39999999674E+01  0.40000000000E+01  0.51100000000E-03 0.  1.
    9000002   -1    0    0    0    0 -0.00000000000E+00 -0.00000000000E+00  0.00000000000E+00  0.93800000000E+00  0.93800000000E+00 0.  1.
         11    1    1    2    0    0 -0.27132036063E+00  0.40266329740E-01  0.70420639570E+00  0.75574005072E+00  0.51100000000E-03 0.  1.
    9000002    1    1    2    0    0 -0.10519698706E+00 -0.20991653120E+00  0.11384025079E+00  0.97361951442E+00  0.93800000000E+00 0.  1.
         22    1    1    2    0    0  0.37651734769E+00  0.16965020146E+00  0.31819533209E+01  0.32086404349E+01  0.00000000000E+00 0.  1.
</event>
<event>
 5    1  0.7062898E+001  0.1566458E+01  0.7818608E-02  0.3390594E+00
         11   -1    0    0    0    0  0.00000000000E+00  0.00000000000E+00  0.39999999674E+01  0.40000000000E+01  0.51100000000E-03 0.  1.
    9000002   -1    0    0    0    0 -0.00000000000E+00 -0.00000000000E+00  0.00000000000E+00  0.93800000000E+00  0.93800000000E+00 0.  1.
         11    1    1    2    0    0 -0.51725001404E-02  0.13018120294E+00  0.62062001854E+00  0.63414775005E+00  0.51100000000E-03 0.  1.
    9000002    1    1    2    0    0 -0.63454291793E-01  0.18437116013E+00  0.50438453573E-01  0.95937855377E+00  0.93800000000E+00 0.  1.
         22    1    1    2    0    0  0.68626791933E-01 -0.31455236307E+00  0.33289414952E+01  0.33444736962E+01  0.00000000000E+00 0.  1.
</event>
<event>
 5    1  0.6645559E+001  0.1599676E+01  0.7818608E-02  0.3353715E+00
         11   -1    0    0    0    0  0.00000000000E+00  0.00000000000E+00  0.39999999674E+01  0.40000000000E+01  0.51100000000E-03 0. -1.
    9000002   -1    0    0    0    0 -0.00000000000E+00 -0.00000000000E+00  0.00000000000E+00  0.93800000000E+00  0.93800000000E+00 0. -1.
         11    1    1    2    0    0 -0.24764186869E-01 -0.66616553032E-01  0.44955346532E+00  0.45513691279E+00  0.51100000000E-03 0.  1.
    9000002    1    1    2    0    0  0.20473963983E+00  0.55264433324E+00  0.24179119411E+00  0.11338611294E+01  0.93800000000E+00 0. -1.
         22    1    1    2    0    0 -0.17997545296E+00 -0.48602778021E+00  0.33086553079E+01  0.33490019578E+01  0.00000000000E+00 0. -1.
</event>
<event>
 5    1  0.6645559E+001  0.1599658E+01  0.7818608E-02  0.3353734E+00
         11   -1    0    0    0    0  0.00000000000E+00  0.00000000000E+00  0.39999999674E+01  0.40000000000E+01  0.51100000000E-03 0.  1.
    9000002   -1    0    0    0    0 -0.00000000000E+00 -0.00000000000E+00  0.00000000000E+00  0.93800000000E+00  0.93800000000E+00 0. -1.
         11    1    1    2    0    0  0.14031480017E+00 -0.23056795265E-01  0.13780421849E+01  0.13853592976E+01  0.51100000000E-03 0.  1.
    9000002    1    1    2    0    0 -0.38941530142E+00  0.53140899362E-01  0.10411503142E+00  0.10223268420E+01  0.93800000000E+00 0. -1.
         22    1    1    2    0    0  0.24910050125E+00 -0.30084104096E-01  0.25178427510E+01  0.25303138603E+01  0.00000000000E+00 0.  1.
</event>
<event>
 5    1  0.6645559E+001  0.1599677E+01  0.7818608E-02  0.3353714E+00
         11   -1    0    0    0    0  0.00000000000E+00  0.00000000000E+00  0.39999999674E+01  0.40000000000E+01  0.51100000000E-03 0.  1.
    9000002   -1    0    0    0    0 -0.00000000000E+00 -0.00000000000E+00  0.00000000000E+00  0.93800000000E+00  0.93800000000E+00 0.  1.
         11    1    1    2    0    0 -0.70576291635E-02 -0.12945877511E+00  0.12338317392E+01  0.12406250064E+01  0.51100000000E-03 0. -1.
    9000002    1    1    2    0    0  0.21294002213E-01  0.40883332939E+00  0.11318659131E+00  0.10296860348E+01  0.93800000000E+00 0.  1.
         22    1    1    2    0    0 -0.14236373050E-01 -0.27937455428E+00  0.26529816368E+01  0.26676889588E+01  0.00000000000E+00 0.  1.
</event>
<event>
 5    1  0.6645559E+001  0.1599677E+01  0.7818608E-02  0.3353714E+00
         11   -1    0    0    0    0  0.00000000000E+00  0.00000000000E+00  0.39999999674E+01  0.40000000000E+01  0.51100000000E-03 0.  1.
    9000002   -1    0    0    0    0 -0.00000000000E+00 -0.00000000000E+00  0.00000000000E+00  0.93800000000E+00  0.93800000000E+00 0.  1.
         11    1    1    2    0    0 -0.96003429756E-01  0.12004850196E+00  0.10199407289E+01  0.10314589924E+01  0.51100000000E-03 0. -1.
    9000002    1    1    2    0    0  0.35561290398E+00 -0.44401570207E+00  0.22433863529E+00  0.11197242091E+01  0.93800000000E+00 0.  1.
         22    1    1    2    0    0 -0.25960947423E+00  0.32396720011E+00  0.27557206032E+01  0.27868167985E+01  0.00000000000E+00 0.  1.
</event>
<event>
 5    1  0.6645559E+001  0.1599671E+01  0.7818608E-02  0.3353721E+00
         11   -1    0    0    0    0  0.00000000000E+00  0.00000000000E+00  0.39999999674E+01  0.40000000000E+01  0.51100000000E-03 0.  1.
    9000002   -1    0    0    0    0 -0.00000000000E+00 -0.00000000000E+00  0.00000000000E+00  0.93800000000E+00  0.93800000000E+00 0.  1.
         11    1    1    2    0    0 -0.93722598286E-01  0.12219654016E+00  0.13233582640E+01  0.13322887359E+01  0.51100000000E-03 0.  1.
    9000002    1    1    2    0    0  0.27237553407E+00 -0.34870814243E+00  0.13283419057E+00  0.10455977823E+01  0.93800000000E+00 0.  1.
         22    1    1    2    0    0 -0.17865293579E+00  0.22651160227E+00  0.25438075128E+01  0.25601134818E+01  0.00000000000E+00 0.  1.
</event>
<event>
 5    1  0.6645559E+001  0.1599354E+01  0.7818608E-02  0.3354064E+00
         11   -1    0    0    0    0  0.00000000000E+00  0.00000000000E+00  0.39999999674E+01  0.40000000000E+01  0.51100000000E-03 0.  1.
    9000002   -1    0    0    0    0 -0.00000000000E+00 -0.00000000000E+00  0.00000000000E+00  0.93800000000E+00  0.93800000000E+00 0.  1.
         11    1    1    2    0    0 -0.36392086023E-01  0.75710757349E-01  0.87061474935E+00  0.87465810784E+00  0.51100000000E-03 0.  1.
    9000002    1    1    2    0    0  0.21991570843E+00 -0.39134862535E+00  0.13712328279E+00  0.10488867718E+01  0.93800000000E+00 0.  1.
         22    1    1    2    0    0 -0.18352362241E+00  0.31563786800E+00  0.29922619352E+01  0.30144551204E+01  0.00000000000E+00 0.  1.
</event>
<event>
 5    1  0.6645559E+001  0.1599669E+01  0.7818608E-02  0.3353723E+00
         11   -1    0    0    0    0  0.00000000000E+00  0.00000000000E+00  0.39999999674E+01  0.40000000000E+01  0.51100000000E-03 0.  1.
    9000002   -1    0    0    0    0 -0.00000000000E+00 -0.00000000000E+00  0.00000000000E+00  0.93800000000E+00  0.93800000000E+00 0.  1.
         11    1    1    2    0    0 -0.79621467755E-01  0.32412702625E-01  0.79658725799E+00  0.80121263228E+00  0.51100000000E-03 0.  1.
    9000002    1    1    2    0    0  0.37522531825E+00 -0.15595373757E+00  0.11147226890E+00  0.10282926016E+01  0.93800000000E+00 0.  1.
         22    1    1    2    0    0 -0.29560385050E+00  0.12354103494E+00  0.30919404405E+01  0.31084947661E+01  0.00000000000E+00 0.  1.
</event>
<event>
 5    1  0.7458473E+001  0.1599676E+01  0.7818608E-02  0.3353715E+00
         11   -1    0    0    0    0  0.00000000000E+00  0.00000000000E+00  0.39999999674E+01  0.40000000000E+01  0.51100000000E-03 0. -1.
    9000002   -1    0    0    0    0 -0.00000000000E+00 -0.00000000000E+00  0.00000000000E+00  0.93800000000E+00  0.93800000000E+00 0.  1.
         11    1    1    2    0    0  0.22723728672E-01 -0.12943918935E+00  0.12719733388E+01  0.12787444261E+01  0.51100000000E-03 0. -1.
    9000002    1    1    2    0    0 -0.69631120593E-01  0.39865121594E+00  0.11053451044E+00  0.10275374265E+01  0.93800000000E+00 0.  1.
         22    1    1    2    0    0  0.46907391920E-01 -0.26921202659E+00  0.26174921181E+01  0.26317181473E+01  0.00000000000E+00 0. -1.
</event>
<event>
 5    1  0.6645559E+001  0.1591667E+01  0.7818608E-02  0.3362458E+00
         11   -1    0    0    0    0  0.00000000000E+00  0.00000000000E+00  0.39999999674E+01  0.40000000000E+01  0.51100000000E-03 0.  1.
    9000002   -1    0    0    0    0 -0.00000000000E+00 -0.00000000000E+00  0.00000000000E+00  0.93800000000E+00  0.93800000000E+00 0. -1.
         11    1    1    2    0    0  0.24558096090E-01 -0.32148568201E-01  0.27785578353E+00  0.28078591147E+00  0.51100000000E-03 0.  1.
    9000002    1    1    2    0    0  0.32110307553E+00  0.50171078086E-01  0.77017744994E-01  0.99569074277E+00  0.93800000000E+00 0. -1.
         22    1    1    2    0    0 -0.34566117162E+00 -0.18022509885E-01  0.36451264388E+01  0.36615233458E+01  0.00000000000E+00 0.  1.
</event>
<event>
 5    1  0.6645559E+001  0.1596483E+01  0.7818608E-02  0.3357189E+00
         11   -1    0    0    0    0  0.00000000000E+00  0.00000000000E+00  0.39999999674E+01  0.40000000000E+01  0.51100000000E-03 0. -1.
    9000002   -1    0    0    0    0 -0.00000000000E+00 -0.00000000000E+00  0.00000000000E+00  0.93800000000E+00  0.93800000000E+00 0. -1.
         11    1    1    2    0    0  0.62016590726E-01 -0.35985990192E+00  0.13780911538E+01  0.14256509726E+01  0.51100000000E-03 0. -1.
    9000002    1    1    2    0    0 -0.20455207400E+00  0.75766774657E+00  0.45544455750E+00  0.13050577421E+01  0.93800000000E+00 0. -1.
         22    1    1    2    0    0  0.14253548328E+00 -0.39780784465E+00  0.21664642561E+01  0.22072912853E+01  0.00000000000E+00 0.  1.
</event>
<event>
 5    1  0.6645559E+001  0.1595975E+01  0.7818608E-02  0.3357744E+00
         11   -1    0    0    0    0  0.00000000000E+00  0.00000000000E+00  0.39999999674E+01  0.40000000000E+01  0.51100000000E-03 0.  1.
    9000002   -1    0    0    0    0 -0.00000000000E+00 -0.00000000000E+00  0.00000000000E+00  0.93800000000E+00  0.93800000000E+00 0. -1.
         11    1    1    2    0    0 -0.26801562927E-01 -0.14364220495E-01  0.90328526892E+00  0.90379709713E+00  0.51100000000E-03 0.  1.
    9000002    1    1    2    0    0  0.37916115260E+00  0.16411280092E-01  0.99948736622E-01  0.10167921418E+01  0.93800000000E+00 0. -1.
         22    1    1    2    0    0 -0.35235958967E+00 -0.20470595971E-02  0.29967659618E+01  0.30174107610E+01  0.00000000000E+00 0.  1.
</event>
<event>
 5    1  0.6645559E+001  0.1629949E+01  0.7818608E-02  0.3321486E+00
         11   -1    0    0    0    0  0.00000000000E+00  0.00000000000E+00  0.39999999674E+01  0.40000000000E+01  0.51100000000E-03 0. -1.
    9000002   -1    0    0    0    0 -0.00000000000E+00 -0.00000000000E+00  0.00000000000E+00  0.93800000000E+00  0.93800000000E+00 0. -1.
         11    1    1    2    0    0  0.34378937122E+00 -0.49267916970E-01  0.15138679618E+00  0.37886235309E+00  0.51100000000E-03 0. -1.
    9000002    1    1    2    0    0  0.12064875318E+00  0.13195594436E+00  0.33190026463E+00  0.10109254565E+01  0.93800000000E+00 0. -1.
         22    1    1    2    0    0 -0.46443812440E+00 -0.82688027388E-01  0.35167129065E+01  0.35482121904E+01  0.00000000000E+00 0. -1.
</event>
<event>
 5    1  0.6645559E+001  0.1595787E+01  0.7818608E-02  0.3357949E+00
         11   -1    0    0    0    0  0.00000000000E+00  0.00000000000E+00  0.39999999674E+01  0.40000000000E+01  0.51100000000E-03 0. -1.
    9000002   -1    0    0    0    0 -0.00000000000E+00 -0.00000000000E+00  0.00000000000E+00  0.93800000000E+00  0.93800000000E+00 0.  1.
         11    1    1    2    0    0 -0.36231027604E-02 -0.49221670026E-01  0.51584796837E+00  0.51820390510E+00  0.51100000000E-03 0. -1.
    9000002    1    1    2    0    0  0.24032361189E+00  0.65390209378E+00  0.35090542952E+00  0.12199680353E+01  0.93800000000E+00 0.  1.
         22    1    1    2    0    0 -0.23670050913E+00 -0.60468042375E+00  0.31332465695E+01  0.31998280596E+01  0.00000000000E+00 0. -1.
</event>
<event>
 5    1  0.6645559E+001  0.1472303E+01  0.7818608E-02  0.3504802E+00
         11   -1    0    0    0    0  0.00000000000E+00  0.00000000000E+00  0.39999999674E+01  0.40000000000E+01  0.51100000000E-03 0.  1.
    9000002   -1    0    0    0    0 -0.00000000000E+00 -0.00000000000E+00  0.00000000000E+00  0.93800000000E+00  0.93800000000E+00 0.  1.
         11    1    1    2    0    0  0.17222965695E+00 -0.42237861968E+00  0.78635646488E+00  0.90907838170E+00  0.51100000000E-03 0.  1.
    9000002    1    1    2    0    0  0.17270110113E+00  0.56536974679E+00  0.38190908764E+00  0.11726752202E+01  0.93800000000E+00 0.  1.
         22    1    1    2    0    0 -0.34493075808E+00 -0.14299112711E+00  0.28317344148E+01  0.28562463981E+01  0.00000000000E+00 0.  1.
</event>
<event>
 5    1  0.6645559E+001  0.1599676E+01  0.7818608E-02  0.3353715E+00
         11   -1    0    0    0    0  0.00000000000E+00  0.00000000000E+00  0.39999999674E+01  0.40000000000E+01  0.51100000000E-03 0. -1.
    9000002   -1    0    0    0    0 -0.00000000000E+00 -0.00000000000E+00  0.00000000000E+00  0.93800000000E+00  0.93800000000E+00 0. -1.
         11    1    1    2    0    0 -0.22705398402E+00 -0.18845008257E-01  0.11060527348E+01  0.11292747935E+01  0.51100000000E-03 0. -1.
    9000002    1    1    2    0    0  0.74148577146E+00  0.59932642882E-01  0.40044131297E+00  0.12623748715E+01  0.93800000000E+00 0. -1.
         22    1    1    2    0    0 -0.51443178744E+00 -0.41087634625E-01  0.24935059196E+01  0.25463503350E+01  0.00000000000E+00 0. -1.
</event>
<event>
 5    1  0.6645559E+001  0.1583642E+01  0.7818608E-02  0.3371312E+00
         11   -1    0    0    0    0  0.00000000000E+00  0.00000000000E+00  0.39999999674E+01  0.40000000000E+01  0.51100000000E-03 0.  1.
    9000002   -1    0    0    0    0 -0.00000000000E+00 -0.00000000000E+00  0.00000000000E+00  0.93800000000E+00  0.93800000000E+00 0.  1.
         11    1    1    2    0    0  0.55906261231E-01 -0.24696918101E-01  0.31187864246E+00  0.31781125933E+00  0.51100000000E-03 0.  1.
    9000002    1    1    2    0    0  0.31824200203E+00  0.50464552242E+00  0.26422322264E+00  0.11426298554E+01  0.93800000000E+00 0.  1.
         22    1    1    2    0    0 -0.37414826326E+00 -0.47994860432E+00  0.34238981023E+01  0.34775588852E+01  0.00000000000E+00 0.  1.
</event>
<event>
 5    1  0.6645559E+001  0.1599663E+01  0.7818608E-02  0.3353730E+00
         11   -1    0    0    0    0  0.00000000000E+00  0.00000000000E+00  0.39999999674E+01  0.40000000000E+01  0.51100000000E-03 0. -1.
    9000002   -1    0    0    0    0 -0.00000000000E+00 -0.00000000000E+00  0.00000000000E+00  0.93800000000E+00  0.93800000000E+00 0. -1.
         11    1    1    2    0    0  0.10229758671E+00  0.10440115112E+00  0.14165406813E+01  0.14240618524E+01  0.51100000000E-03 0. -1.
    9000002    1    1    2    0    0 -0.28859066335E+00 -0.27736385856E+00  0.10808419274E+00  0.10255444767E+01  0.93800000000E+00 0. -1.
         22    1    1    2    0    0  0.18629307664E+00  0.17296270745E+00  0.24753750933E+01  0.24883936709E+01  0.00000000000E+00 0. -1.
</event>
<event>
 5    1  0.6645559E+001  0.1545511E+01  0.7818608E-02  0.3414713E+00
         11   -1    0    0    0    0  0.00000000000E+00  0.00000000000E+00  0.39999999674E+01  0.40000000000E+01  0.51100000000E-03 0.  1.
    9000002   -1    0    0    0    0 -0.00000000000E+00 -0.00000000000E+00  0.00000000000E+00  0.93800000000E+00  0.93800000000E+00 0.  1.
         11    1    1    2    0    0  0.58011347853E-01 -0.11401791161E+00  0.14391929049E+00  0.19255758605E+00  0.51100000000E-03 0.  1.
    9000002    1    1    2    0    0 -0.48882913096E+00  0.11215082227E+00  0.22284718742E+00  0.10867550760E+01  0.93800000000E+00 0.  1.
         22    1    1    2    0    0  0.43081778311E+00  0.18670893395E-02  0.36332334894E+01  0.36586873380E+01  0.00000000000E+00 0.  1.
</event>
<event>
 5    1  0.6645559E+001  0.1599668E+01  0.7818608E-02  0.3353724E+00
         11   -1    0    0    0    0  0.00000000000E+00  0.00000000000E+00  0.39999999674E+01  0.40000000000E+01  0.51100000000E-03 0. -1.
    9000002   -1    0    0    0    0 -0.00000000000E+00 -0.00000000000E+00  0.00000000000E+00  0.93800000000E+00  0.93800000000E+00 0.  1.
         11    1    1    2    0    0 -0.31668832197E-01 -0.10852920883E+00  0.12847168288E+01  0.12896817807E+01  0.51100000000E-03 0. -1.
    9000002    1    1    2    0    0  0.10340628727E+00  0.33859207685E+00  0.84084974121E-01  0.10061072197E+01  0.93800000000E+00 0.  1.
         22    1    1    2    0    0 -0.71737455072E-01 -0.23006286802E+00  0.26311981645E+01  0.26422109996E+01  0.00000000000E+00 0. -1.
</event>
<event>
 5    1  0.6645559E+001  0.1599604E+01  0.7818608E-02  0.3353794E+00
         11   -1    0    0    0    0  0.00000000000E+00  0.00000000000E+00  0.39999999674E+01  0.40000000000E+01  0.51100000000E-03 0. -1.
    9000002   -1    0    0    0    0 -0.00000000000E+00 -0.00000000000E+00  0.00000000000E+00  0.93800000000E+00  0.93800000000E+00 0. -1.
         11    1    1    2    0    0  0.11700004399E-01  0.18258382091E-01  0.18985197069E+00  0.19108712808E+00  0.51100000000E-03 0. -1.
    9000002    1    1    2    0    0 -0.27615647160E+00 -0.29111550107E+00  0.10868371908E+00  0.10259955081E+01  0.93800000000E+00 0. -1.
         22    1    1    2    0    0  0.26445646720E+00  0.27285711898E+00  0.37014642776E+01  0.37209173639E+01  0.00000000000E+00 0. -1.
</event>
<event>
 5    1  0.6645559E+001  0.1502793E+01  0.7818608E-02  0.3466133E+00
         11   -1    0    0    0    0  0.00000000000E+00  0.00000000000E+00  0.39999999674E+01  0.40000000000E+01  0.51100000000E-03 0. -1.
    9000002   -1    0    0    0    0 -0.00000000000E+00 -0.00000000000E+00  0.00000000000E+00  0.93800000000E+00  0.93800000000E+00 0. -1.
         11    1    1    2    0    0 -0.40138311630E-01  0.14031114206E+00  0.15413395829E+00  0.21226360702E+00  0.51100000000E-03 0. -1.
    9000002    1    1    2    0    0  0.13474417321E+00  0.31517786479E+00  0.16093019313E+00  0.10115510890E+01  0.93800000000E+00 0. -1.
         22    1    1    2    0    0 -0.94605861576E-01 -0.45548900686E+00  0.36849358159E+01  0.37141853039E+01  0.00000000000E+00 0. -1.
</event>
<event>
 5    1  0.8715256E+001  0.1586463E+01  0.7818608E-02  0.3368188E+00
         11   -1    0    0    0    0  0.00000000000E+00  0.00000000000E+00  0.39999999674E+01  0.40000000000E+01  0.51100000000E-03 0.  1.
    9000002   -1    0    0    0    0 -0.00000000000E+00 -0.00000000000E+00  0.00000000000E+00  0.93800000000E+00  0.93800000000E+00 0. -1.
         11    1    1    2    0    0 -0.30315087020E-01 -0.70036288917E-01  0.75956105765E+00  0.76338545158E+00  0.51100000000E-03 0.  1.
    9000002    1    1    2    0    0  0.13664771409E+00 -0.20233780472E+00  0.49724332488E-01  0.97053062509E+00  0.93800000000E+00 0. -1.
         22    1    1    2    0    0 -0.10633262707E+00  0.27237409364E+00  0.31907145772E+01  0.32040839233E+01  0.00000000000E+00 0.  1.
</event>
<event>
 5    1  0.6645559E+001  0.1599141E+01  0.7818608E-02  0.3354297E+00
         11   -1    0    0    0    0  0.00000000000E+00  0.00000000000E+00  0.39999999674E+01  0.40000000000E+01  0.51100000000E-03 0. -1.
    9000002   -1    0    0    0    0 -0.00000000000E+00 -0.00000000000E+00  0.00000000000E+00  0.93800000000E+00  0.93800000000E+00 0.  1.
         11    1    1    2    0    0  0.12347195776E+00  0.11546300906E+00  0.11792986655E+01  0.11913532786E+01  0.51100000000E-03 0. -1.
    9000002    1    1    2    0    0 -0.35689987237E+00 -0.30603634023E+00  0.15105376462E+00  0.10600457538E+01  0.93800000000E+00 0.  1.
         22    1    1    2    0    0  0.23342791461E+00  0.19057333118E+00  0.26696475372E+01  0.26866009676E+01  0.00000000000E+00 0. -1.
</event>
<event>
 5    1  0.6645559E+001  0.1599676E+01  0.7818608E-02  0.3353715E+00
         11   -1    0    0    0    0  0.00000000000E+00  0.00000000000E+00  0.39999999674E+01  0.40000000000E+01  0.51100000000E-03 0. -1.
    9000002   -1    0    0    0    0 -0.00000000000E+00 -0.00000000000E+00  0.00000000000E+00  0.93800000000E+00  0.93800000000E+00 0. -1.
         11    1    1    2    0    0  0.13976647777E-01  0.11167432248E+00  0.99961172977E+00  0.10059276179E+01  0.51100000000E-03 0. -1.
    9000002    1    1    2    0    0 -0.51076917453E-01 -0.43220645051E+00  0.12837095284E+00  0.10419857815E+01  0.93800000000E+00 0. -1.
         22    1    1    2    0    0  0.37100269677E-01  0.32053212802E+00  0.28720172847E+01  0.28900866006E+01  0.00000000000E+00 0. -1.
</event>
<event>
 5    1  0.6645559E+001  0.1597471E+01  0.7818608E-02  0.3356113E+00
         11   -1    0    0    0    0  0.00000000000E+00  0.00000000000E+00  0.39999999674E+01  0.40000000000E+01  0.51100000000E-03 0. -1.
    9000002   -1    0    0    0    0 -0.00000000000E+00 -0.00000000000E+00  0.00000000000E+00  0.93800000000E+00  0.93800000000E+00 0. -1.
         11    1    1    2    0    0 -0.10450975700E-01 -0.18108945196E+00  0.10627137367E+01  0.10780831877E+01  0.51100000000E-03 0. -1.
    9000002    1    1    2    0    0  0.78277716517E-01  0.47458875706E+00  0.15984500266E+00  0.10661877481E+01  0.93800000000E+00 0. -1.
         22    1    1    2    0    0 -0.67826740817E-01 -0.29349930510E+00  0.27774412280E+01  0.27937290642E+01  0.00000000000E+00 0. -1.
</event>
<event>
 5    1  0.6645559E+001  0.1599669E+01  0.7818608E-02  0.3353723E+00
         11   -1    0    0    0    0  0.00000000000E+00  0.00000000000E+00  0.39999999674E+01  0.40000000000E+01  0.51100000000E-03 0.  1.
    9000002   -1    0    0    0    0 -0.00000000000E+00 -0.00000000000E+00  0.00000000000E+00  0.93800000000E+00  0.93800000000E+00 0. -1.
         11    1    1    2    0    0  0.54733641806E-01 -0.12264253280E+00  0.13002357256E+01  0.13071534591E+01  0.51100000000E-03 0.  1.
    9000002    1    1    2    0    0 -0.17319698463E+00  0.36452992102E+00  0.10992299234E+00  0.10270376444E+01  0.93800000000E+00 0. -1.
         22    1    1    2    0    0  0.11846334282E+00 -0.24188738823E+00  0.25898412494E+01  0.26038088965E+01  0.00000000000E+00 0.  1.
</event>
<event>
 5    1  0.6645559E+001  0.1599655E+01  0.7818608E-02  0.3353738E+00
         11   -1    0    0    0    0  0.00000000000E+00  0.00000000000E+00  0.39999999674E+01  0.40000000000E+01  0.51100000000E-03 0. -1.
    9000002   -1    0    0    0    0 -0.00000000000E+00 -0.00000000000E+00  0.00000000000E+00  0.93800000000E+00  0.93800000000E+00 0.  1.
         11    1    1    2    0    0 -0.48310702182E-02 -0.20336583361E-01  0.17649021599E+00  0.17772443086E+00  0.51100000000E-03 0. -1.
    9000002    1    1    2    0    0  0.95299532333E-01  0.39832169785E+00  0.11330459755E+00  0.10297689584E+01  0.93800000000E+00 0.  1.
         22    1    1    2    0    0 -0.90468462115E-01 -0.37798511449E+00  0.37102051538E+01  0.37305066107E+01  0.00000000000E+00 0. -1.
</event>
<event>
 5    1  0.6645559E+001  0.1598824E+01  0.7818608E-02  0.3354641E+00
         11   -1    0    0    0    0  0.00000000000E+00  0.00000000000E+00  0.39999999674E+01  0.40000000000E+01  0.51100000000E-03 0.  1.
    9000002   -1    0    0    0    0 -0.00000000000E+00 -0.00000000000E+00  0.00000000000E+00  0.93800000000E+00  0.93800000000E+00 0. -1.
         11    1    1    2    0    0 -0.21449678591E-01 -0.95440967700E-01  0.11793581840E+01  0.11834082365E+01  0.51100000000E-03 0.  1.
    9000002    1    1    2    0    0  0.80489012647E-02  0.40139806190E+00  0.10945440998E+00  0.10261624904E+01  0.93800000000E+00 0. -1.
         22    1    1    2    0    0  0.13400777327E-01 -0.30595709419E+00  0.27111873734E+01  0.27284292731E+01  0.00000000000E+00 0.  1.
</event>
<event>
 5    1  0.6645559E+001  0.1541481E+01  0.7818608E-02  0.3419435E+00
         11   -1    0    0    0    0  0.00000000000E+00  0.00000000000E+00  0.39999999674E+01  0.40000000000E+01  0.51100000000E-03 0. -1.
    9000002   -1    0    0    0    0 -0.00000000000E+00 -0.00000000000E+00  0.00000000000E+00  0.93800000000E+00  0.93800000000E+00 0. -1.
         11    1    1    2    0    0  0.72655763561E-02 -0.17494890976E+00  0.61723313290E+00  0.64158936330E+00  0.51100000000E-03 0. -1.
    9000002    1    1    2    0    0  0.26554273060E+00 -0.20188699401E+00  0.12242747781E+00  0.10030472509E+01  0.93800000000E+00 0. -1.
         22    1    1    2    0    0 -0.27280830696E+00  0.37683590377E+00  0.32603393566E+01  0.32933633858E+01  0.00000000000E+00 0. -1.
</event>
<event>
 5    1  0.6645559E+001  0.1593765E+01  0.7818608E-02  0.3360159E+00
         11   -1    0    0    0    0  0.00000000000E+00  0.00000000000E+00  0.39999999674E+01  0.40000000000E+01  0.51100000000E-03 0. -1.
    9000002   -1    0    0    0    0 -0.00000000000E+00 -0.00000000000E+00  0.00000000000E+00  0.93800000000E+00  0.93800000000E+00 0. -1.
         11    1    1    2    0    0  0.52104408205E-01 -0.42055794931E-01  0.88488236702E+00  0.88741231895E+00  0.51100000000E-03 0. -1.
    9000002    1    1    2    0    0 -0.27666054477E+00 -0.15348749702E+00  0.71565322237E-01  0.99250444035E+00  0.93800000000E+00 0. -1.
         22    1    1    2    0    0  0.22455613656E+00  0.19554329195E+00  0.30435522781E+01  0.30580832407E+01  0.00000000000E+00 0. -1.
</event>
<event>
 5    1  0.6645559E+001  0.1599642E+01  0.7818608E-02  0.3353752E+00
         11   -1    0    0    0    0  0.00000000000E+00  0.00000000000E+00  0.39999999674E+01  0.40000000000E+01  0.51100000000E-03 0.  1.
    9000002   -1    0    0    0    0 -0.00000000000E+00 -0.00000000000E+00  0.00000000000E+00  0.93800000000E+00  0.93800000000E+00 0.  1.
         11    1    1    2    0    0  0.18293879010E-01  0.18915574771E+00  0.70549489084E+00  0.73064209092E+00  0.51100000000E-03 0.  1.
    9000002    1    1    2    0    0 -0.97252494814E-01 -0.88389085237E+00  0.60250553416E+00  0.14260357658E+01  0.93800000000E+00 0.  1.
         22    1    1    2    0    0  0.78958615805E-01  0.69473510465E+00  0.26919995424E+01  0.27813221433E+01  0.00000000000E+00 0.  1.
</event>
<event>
 5    1  0.6645559E+001  0.1477813E+01  0.7818608E-02  0.3497685E+00
         11   -1    0    0    0    0  0.00000000000E+00  0.00000000000E+00  0.39999999674E+01  0.40000000000E+01  0.51100000000E-03 0.  1.
    9000002   -1    0    0    0    0 -0.00000000000E+00 -0.00000000000E+00  0.00000000000E+00  0.93800000000E+00  0.93800000000E+00 0.  1.
         11    1    1    2    0    0 -0.69056749800E-01 -0.37152573779E+00  0.97776068834E+00  0.10482444530E+01  0.51100000000E-03 0.  1.
    9000002    1    1    2    0    0  0.33466537934E-01  0.37712962650E-01  0.95914915443E-01  0.94423828969E+00  0.93800000000E+00 0.  1.
         22    1    1    2    0    0  0.35590211866E-01  0.33381277515E+00  0.29263243636E+01  0.29455172573E+01  0.00000000000E+00 0.  1.
</event>
<event>
 5    1  0.6645559E+001  0.1580739E+01  0.7818608E-02  0.3374538E+00
         11   -1    0    0    0    0  0.00000000000E+00  0.00000000000E+00  0.39999999674E+01  0.40000000000E+01  0.51100000000E-03 0.  1.
    9000002   -1    0    0    0    0 -0.00000000000E+00 -0.00000000000E+00  0.00000000000E+00  0.93800000000E+00  0.93800000000E+00 0.  1.
         11    1    1    2    0    0  0.25762321352E+00  0.15849133791E+00  0.76663579462E+00  0.82414800070E+00  0.51100000000E-03 0.  1.
    9000002    1    1    2    0    0 -0.51054715338E+00 -0.72857479531E+00  0.63244790801E+00  0.14392060257E+01  0.93800000000E+00 0.  1.
         22    1    1    2    0    0  0.25292393986E+00  0.57008345740E+00  0.26009162647E+01  0.26746459736E+01  0.00000000000E+00 0.  1.
</event>
<event>
 5    1  0.6645559E+001  0.1510575E+01  0.7818608E-02  0.3456534E+00
         11   -1    0    0    0    0  0.00000000000E+00  0.00000000000E+00  0.39999999674E+01  0.40000000000E+01  0.51100000000E-03 0. -1.
    9000002   -1    0    0    0    0 -0.00000000000E+00 -0.00000000000E+00  0.00000000000E+00  0.93800000000E+00  0.93800000000E+00 0.  1.
         11    1    1    2    0    0  0.23602155096E+00 -0.13113749966E+00  0.11146048160E+01  0.11468423489E+01  0.51100000000E-03 0. -1.
    9000002    1    1    2    0    0  0.44173338967E-02 -0.31837326208E+00  0.14187262362E+00  0.10006762155E+01  0.93800000000E+00 0.  1.
         22    1    1    2    0    0 -0.24043888486E+00  0.44951076174E+00  0.27435225277E+01  0.27904814356E+01  0.00000000000E+00 0. -1.
</event>
<event>
 5    1  0.6645559E+001  0.1593316E+01  0.7818608E-02  0.3360650E+00
         11   -1    0    0    0    0  0.00000000000E+00  0.00000000000E+00  0.39999999674E+01  0.40000000000E+01  0.51100000000E-03 0.  1.
    9000002   -1    0    0    0    0 -0.00000000000E+00 -0.00000000000E+00  0.00000000000E+00  0.93800000000E+00  0.93800000000E+00 0.  1.
         11    1    1    2    0    0  0.11385041996E+00 -0.25446666967E-01  0.68064724448E+00  0.69057250418E+00  0.51100000000E-03 0.  1.
    9000002    1    1    2    0    0 -0.40770438277E+00 -0.19673307029E+00  0.14476460959E+00  0.10515358086E+01  0.93800000000E+00 0.  1.
         22    1    1    2    0    0  0.29385396281E+00  0.22217973726E+00  0.31745881133E+01  0.31958916872E+01  0.00000000000E+00 0.  1.
</event>
<event>
 5    1  0.6645559E+001  0.1599671E+01  0.7818608E-02  0.3353721E+00
         11   -1    0    0    0    0  0.00000000000E+00  0.00000000000E+00  0.39999999674E+01  0.40000000000E+01  0.51100000000E-03 0.  1.
    9000002   -1    0    0    0    0 -0.00000000000E+00 -0.00000000000E+00  0.00000000000E+00  0.93800000000E+00  0.93800000000E+00 0.  1.
         11    1    1    2    0    0  0.29526242570E-01  0.19861959896E+00  0.13798264177E+01  0.13943610537E+01  0.51100000000E-03 0.  1.
    9000002    1    1    2    0    0 -0.88309289182E-01 -0.54255676255E+00  0.20870030786E+00  0.11070529299E+01  0.93800000000E+00 0.  1.
         22    1    1    2    0    0  0.58783046612E-01  0.34393716360E+00  0.24114732418E+01  0.24365860163E+01  0.00000000000E+00 0.  1.
</event>
<event>
 5    1  0.6645559E+001  0.1597164E+01  0.7818608E-02  0.3356448E+00
         11   -1    0    0    0    0  0.00000000000E+00  0.00000000000E+00  0.39999999674E+01  0.40000000000E+01  0.51100000000E-03 0. -1.
    9000002   -1    0    0    0    0 -0.00000000000E+00 -0.00000000000E+00  0.00000000000E+00  0.93800000000E+00  0.93800000000E+00 0. -1.
         11    1    1    2    0    0  0.17970418963E-01  0.16360288126E-03  0.18325630712E+00  0.18413608539E+00  0.51100000000E-03 0. -1.
    9000002    1    1    2    0    0 -0.35123243081E-01  0.41400483482E+00  0.11879923590E+00  0.10327588798E+01  0.93800000000E+00 0. -1.
         22    1    1    2    0    0  0.17152824118E-01 -0.41416843770E+00  0.36979444243E+01  0.37211050348E+01  0.00000000000E+00 0. -1.
</event>
<event>
 5    1  0.6645559E+001  0.1599674E+01  0.7818608E-02  0.3353718E+00
         11   -1    0    0    0    0  0.00000000000E+00  0.00000000000E+00  0.39999999674E+01  0.40000000000E+01  0.51100000000E-03 0. -1.
    9000002   -1    0    0    0    0 -0.00000000000E+00 -0.00000000000E+00  0.00000000000E+00  0.93800000000E+00  0.93800000000E+00 0.  1.
         11    1    1    2    0    0 -0.21584558853E-01  0.44968271417E-01  0.21567591411E+00  0.22136937382E+00  0.51100000000E-03 0. -1.
    9000002    1    1    2    0    0  0.33715297032E+00 -0.73862847344E+00  0.48761496558E+00  0.13329878101E+01  0.93800000000E+00 0.  1.
         22    1    1    2    0    0 -0.31556841147E+00  0.69366020203E+00  0.32967090877E+01  0.33836428161E+01  0.00000000000E+00 0. -1.
</event>
<event>
 5    1  0.6645559E+001  0.1599645E+01  0.7818608E-02  0.3353749E+00
         11   -1    0    0    0    0  0.00000000000E+00  0.00000000000E+00  0.39999999674E+01  0.40000000000E+01  0.51100000000E-03 0. -1.
    9000002   -1    0    0    0    0 -0.00000000000E+00 -0.00000000000E+00  0.00000000000E+00  0.93800000000E+00  0.93800000000E+00 0.  1.
         11    1    1    2    0    0  0.95022409635E-01 -0.90829925264E-01  0.92254706310E+00  0.93186516107E+00  0.51100000000E-03 0. -1.
    9000002    1    1    2    0    0 -0.39307258129E+00  0.35095942024E+00  0.19100767143E+00  0.10927060443E+01  0.93800000000E+00 0.  1.
         22    1    1    2    0    0  0.29805017165E+00 -0.26012949497E+00  0.28864452328E+01  0.29134287946E+01  0.00000000000E+00 0. -1.
</event>
<event>
 5    1  0.6645559E+001  0.1599676E+01  0.7818608E-02  0.3353715E+00
         11   -1    0    0    0    0  0.00000000000E+00  0.00000000000E+00  0.39999999674E+01  0.40000000000E+01  0.51100000000E-03 0. -1.
    9000002   -1    0    0    0    0 -0.00000000000E+00 -0.00000000000E+00  0.00000000000E+00  0.93800000000E+00  0.93800000000E+00 0.  1.
         11    1    1    2    0    0  0.14950102282E-03  0.97781446929E-01  0.10551156807E+01  0.10596370107E+01  0.51100000000E-03 0. -1.
    9000002    1    1    2    0    0  0.82822725046E-03 -0.35897506850E+00  0.86492149260E-01  0.10080618422E+01  0.93800000000E+00 0.  1.
         22    1    1    2    0    0 -0.97772827328E-03  0.26119362157E+00  0.28583921374E+01  0.28703011471E+01  0.00000000000E+00 0. -1.
</event>
<event>
 5    1  0.6645559E+001  0.1599659E+01  0.7818608E-02  0.3353733E+00
         11   -1    0    0    0    0  0.00000000000E+00  0.00000000000E+00  0.39999999674E+01  0.40000000000E+01  0.51100000000E-03 0. -1.
    9000002   -1    0    0    0    0 -0.00000000000E+00 -0.00000000000E+00  0.00000000000E+00  0.93800000000E+00  0.93800000000E+00 0. -1.
         11    1    1    2    0    0  0.10426130891E+00 -0.65178039138E-01  0.80413085235E+00  0.81347728065E+00  0.51100000000E-03 0. -1.
    9000002    1    1    2    0    0 -0.47118332860E+00  0.30251715371E+00  0.21698665215E+00  0.11137583062E+01  0.93800000000E+00 0. -1.
         22    1    1    2    0    0  0.36692201970E+00 -0.23733911458E+00  0.29788824629E+01  0.30107644131E+01  0.00000000000E+00 0. -1.
</event>
<event>
 5    1  0.6645559E+001  0.1599676E+01  0.7818608E-02  0.3353716E+00
         11   -1    0    0    0    0  0.00000000000E+00  0.00000000000E+00  0.39999999674E+01  0.40000000000E+01  0.51100000000E-03 0.  1.
    9000002   -1    0    0    0    0 -0.00000000000E+00 -0.00000000000E+00  0.00000000000E+00  0.93800000000E+00  0.93800000000E+00 0.  1.
         11    1    1    2    0    0  0.27378293289E-01  0.16476969547E+00  0.13071760607E+01  0.13178042868E+01  0.51100000000E-03 0.  1.
    9000002    1    1    2    0    0 -0.84230748223E-01 -0.48407795286E+00  0.16503390811E+00  0.10716839432E+01  0.93800000000E+00 0.  1.
         22    1    1    2    0    0  0.56852454934E-01  0.31930825739E+00  0.25277899986E+01  0.25485117700E+01  0.00000000000E+00 0.  1.
</event>
<event>
 5    1  0.6645559E+001  0.1486184E+01  0.7818608E-02  0.3486985E+00
         11   -1    0    0    0    0  0.00000000000E+00  0.00000000000E+00  0.39999999674E+01  0.40000000000E+01  0.51100000000E-03 0. -1.
    9000002   -1    0    0    0    0 -0.00000000000E+00 -0.00000000000E+00  0.00000000000E+00  0.93800000000E+00  0.93800000000E+00 0.  1.
         11    1    1    2    0    0 -0.16662240121E+00 -0.21337459217E+00  0.71839679116E+00  0.76771475943E+00  0.51100000000E-03 0. -1.
    9000002    1    1    2    0    0 -0.83583847104E-01 -0.24819219086E+00  0.13854542967E+00  0.98367904277E+00  0.93800000000E+00 0.  1.
         22    1    1    2    0    0  0.25020624832E+00  0.46156678303E+00  0.31430577465E+01  0.31866061978E+01  0.00000000000E+00 0. -1.
</event>
<event>
 5    1  0.6645559E+001  0.1599673E+01  0.7818608E-02  0.3353718E+00
         11   -1    0    0    0    0  0.00000000000E+00  0.00000000000E+00  0.39999999674E+01  0.40000000000E+01  0.51100000000E-03 0.  1.
    9000002   -1    0    0    0    0 -0.00000000000E+00 -0.00000000000E+00  0.00000000000E+00  0.93800000000E+00  0.93800000000E+00 0.  1.
         11    1    1    2    0    0 -0.58106212768E-02  0.20239682899E-01  0.17421088792E+00  0.17547963606E+00  0.51100000000E-03 0. -1.
    9000002    1    1    2    0    0  0.14232897519E+00 -0.43492137727E+00  0.14239562333E+00  0.10533445092E+01  0.93800000000E+00 0.  1.
         22    1    1    2    0    0 -0.13651835391E+00  0.41468169437E+00  0.36833934561E+01  0.37091758547E+01  0.00000000000E+00 0.  1.
</event>
<event>
 5    1  0.6645559E+001  0.1596109E+01  0.7818608E-02  0.3357597E+00
         11   -1    0    0    0    0  0.00000000000E+00  0.00000000000E+00  0.39999999674E+01  0.40000000000E+01  0.51100000000E-03 0. -1.
    9000002   -1    0    0    0    0 -0.00000000000E+00 -0.00000000000E+00  0.00000000000E+00  0.93800000000E+00  0.93800000000E+00 0.  1.
         11    1    1    2    0    0 -0.20955512027E-01  0.51200939761E-01  0.54219419390E+00  0.54500960976E+00  0.51100000000E-03 0. -1.
    9000002    1    1    2    0    0  0.35796526863E+00 -0.76738075725E-01  0.92938451670E-01  0.10111920795E+01  0.93800000000E+00 0.  1.
         22    1    1    2    0    0 -0.33700975660E+00  0.25537135964E-01  0.33648673218E+01  0.33817983108E+01  0.00000000000E+00 0. -1.
</event>
<event>
 5    1  0.6645559E+001  0.1599639E+01  0.7818608E-02  0.3353755E+00
         11   -1    0    0    0    0  0.00000000000E+00  0.00000000000E+00  0.39999999674E+01  0.40000000000E+01  0.51100000000E-03 0.  1.
    9000002   -1    0    0    0    0 -0.00000000000E+00 -0.00000000000E+00  0.00000000000E+00  0.93800000000E+00  0.93800000000E+00 0.  1.
         11    1    1    2    0    0 -0.82534952155E-01 -0.10927568561E-01  0.94148010844E+00  0.94515421270E+00  0.51100000000E-03 0.  1.
    9000002    1    1    2    0    0  0.36145832445E+00  0.63962258062E-01  0.90552662837E-01  0.10113293606E+01  0.93800000000E+00 0.  1.
         22    1    1    2    0    0 -0.27892337230E+00 -0.53034689501E-01  0.29679671961E+01  0.29815164267E+01  0.00000000000E+00 0.  1.
</event>
<event>
 5    1  0.6645559E+001  0.1599582E+01  0.7818608E-02  0.3353817E+00
         11   -1    0    0    0    0  0.00000000000E+00  0.00000000000E+00  0.39999999674E+01  0.40000000000E+01  0.51100000000E-03 0.  1.
    9000002   -1    0    0    0    0 -0.00000000000E+00 -0.00000000000E+00  0.00000000000E+00  0.93800000000E+00  0.93800000000E+00 0. -1.
         11    1    1    2    0    0 -0.17667858447E+00 -0.49496710958E-01  0.12589694717E+01  0.12722694834E+01  0.51100000000E-03 0.  1.
    9000002    1    1    2    0    0  0.52070699602E+00  0.11873692303E+00  0.19651626198E+00  0.10971312017E+01  0.93800000000E+00 0. -1.
         22    1    1    2    0    0 -0.34402841154E+00 -0.69240212073E-01  0.25445142337E+01  0.25685993148E+01  0.00000000000E+00 0.  1.
</event>
<event>
 5    1  0.6645559E+001  0.1599677E+01  0.7818608E-02  0.3353714E+00
         11   -1    0    0    0    0  0.00000000000E+00  0.00000000000E+00  0.39999999674E+01  0.40000000000E+01  0.51100000000E-03 0. -1.
    9000002   -1    0    0    0    0 -0.00000000000E+00 -0.00000000000E+00  0.00000000000E+00  0.93800000000E+00  0.93800000000E+00 0. -1.
         11    1    1    2    0    0  0.31972903795E-01  0.14832805102E+00  0.12290927926E+01  0.12384235266E+01  0.51100000000E-03 0. -1.
    9000002    1    1    2    0    0 -0.10072544000E+00 -0.46589017437E+00  0.15494019796E+00  0.10635082199E+01  0.93800000000E+00 0. -1.
         22    1    1    2    0    0  0.68752536206E-01  0.31756212335E+00  0.26159669768E+01  0.26360682535E+01  0.00000000000E+00 0. -1.
</event>
<event>
 5    1  0.6645559E+001  0.1593168E+01  0.7818608E-02  0.3360813E+00
         11   -1    0    0    0    0  0.00000000000E+00  0.00000000000E+00  0.39999999674E+01  0.40000000000E+01  0.51100000000E-03 0.  1.
    9000002   -1    0    0    0    0 -0.00000000000E+00 -0.00000000000E+00  0.00000000000E+00  0.93800000000E+00  0.93800000000E+00 0.  1.
         11    1    1    2    0    0 -0.26592529920E-01  0.85066269966E-01  0.33337169595E+00  0.34508025402E+00  0.51100000000E-03 0.  1.
    9000002    1    1    2    0    0  0.20720744464E-01 -0.41552708097E+00  0.12249927921E+00  0.10334128786E+01  0.93800000000E+00 0.  1.
         22    1    1    2    0    0  0.58717854562E-02  0.33046081100E+00  0.35441289922E+01  0.35595068674E+01  0.00000000000E+00 0.  1.
</event>
<event>
 5    1  0.6645559E+001  0.1598628E+01  0.7818608E-02  0.3354854E+00
         11   -1    0    0    0    0  0.00000000000E+00  0.00000000000E+00  0.39999999674E+01  0.40000000000E+01  0.51100000000E-03 0.  1.
    9000002   -1    0    0    0    0 -0.00000000000E+00 -0.00000000000E+00  0.00000000000E+00  0.93800000000E+00  0.93800000000E+00 0. -1.
         11    1    1    2    0    0 -0.38519105741E-01  0.66321275309E-01  0.98175698920E+00  0.98474833334E+00  0.51100000000E-03 0.  1.
    9000002    1    1    2    0    0  0.28134372473E+00 -0.30046528179E+00  0.11534017294E+00  0.10308157122E+01  0.93800000000E+00 0. -1.
         22    1    1    2    0    0 -0.24282461899E+00  0.23414400648E+00  0.29029028052E+01  0.29224359545E+01  0.00000000000E+00 0.  1.
</event>
<event>
 5    1  0.6732545E+001  0.1592764E+01  0.7818608E-02  0.3361255E+00
         11   -1    0    0    0    0  0.00000000000E+00  0.00000000000E+00  0.39999999674E+01  0.40000000000E+01  0.51100000000E-03 0. -1.
    9000002   -1    0    0    0    0 -0.00000000000E+00 -0.00000000000E+00  0.00000000000E+00  0.93800000000E+00  0.93800000000E+00 0. -1.
         11    1    1    2    0    0 -0.52338124621E-01  0.11117908213E-01  0.49101519894E+00  0.49392213343E+00  0.51100000000E-03 0. -1.
    9000002    1    1    2    0    0 -0.63783458795E-01 -0.30679686886E+00  0.71058673701E-01  0.99150692558E+00  0.93800000000E+00 0. -1.
         22    1    1    2    0    0  0.11612158342E+00  0.29567896065E+00  0.34379260947E+01  0.34525709410E+01  0.00000000000E+00 0. -1.
</event>
<event>
 5    1  0.6645559E+001  0.1599634E+01  0.7818608E-02  0.3353761E+00
         11   -1    0    0    0    0  0.00000000000E+00  0.00000000000E+00  0.39999999674E+01  0.40000000000E+01  0.51100000000E-03 0. -1.
    9000002   -1    0    0    0    0 -0.00000000000E+00 -0.00000000000E+00  0.00000000000E+00  0.93800000000E+00  0.93800000000E+00 0. -1.
         11    1    1    2    0    0 -0.38358234237E-01  0.58857846581E-01  0.78593735139E+00  0.78907121457E+00  0.51100000000E-03 0. -1.
    9000002    1    1    2    0    0  0.17382543445E+00 -0.31944734791E+00  0.88854929737E-01  0.10099510326E+01  0.93800000000E+00 0. -1.
         22    1    1    2    0    0 -0.13546720022E+00  0.26058950132E+00  0.31252076862E+01  0.31389777528E+01  0.00000000000E+00 0. -1.
</event>
<event>
 5    1  0.9965385E+001  0.1563675E+01  0.7818608E-02  0.3393758E+00
         11   -1    0    0    0    0  0.00000000000E+00  0.00000000000E+00  0.39999999674E+01  0.40000000000E+01  0.51100000000E-03 0. -1.
    9000002   -1    0    0    0    0 -0.00000000000E+00 -0.00000000000E+00  0.00000000000E+00  0.93800000000E+00  0.93800000000E+00 0.  1.
         11    1    1    2    0    0  0.19635670699E-01  0.17541550153E+00  0.10928172228E+01  0.11069805333E+01  0.51100000000E-03 0. -1.
    9000002    1    1    2    0    0  0.15819389962E-01  0.98982868675E-01  0.33382707234E-01  0.94393128274E+00  0.93800000000E+00 0.  1.
         22    1    1    2    0    0 -0.35455060661E-01 -0.27439837021E+00  0.28738000374E+01  0.28870881839E+01  0.00000000000E+00 0. -1.
</event>
<event>
 5    1  0.6645559E+001  0.1599182E+01  0.7818608E-02  0.3354252E+00
         11   -1    0    0    0    0  0.00000000000E+00  0.00000000000E+00  0.39999999674E+01  0.40000000000E+01  0.51100000000E-03 0. -1.
    9000002   -1    0    0    0    0 -0.00000000000E+00 -0.00000000000E+00  0.00000000000E+00  0.93800000000E+00  0.93800000000E+00 0.  1.
         11    1    1    2    0    0  0.60835247079E-01 -0.14319026540E-01  0.46129193542E+00  0.46550668374E+00  0.51100000000E-03 0. -1.
    9000002    1    1    2    0    0 -0.41258003640E+00  0.22928996122E+00  0.15226161962E+00  0.10610484313E+01  0.93800000000E+00 0.  1.
         22    1    1    2    0    0  0.35174478932E+00 -0.21497093468E+00  0.33864464123E+01  0.34114448850E+01  0.00000000000E+00 0. -1.
</event>
<event>
 5    1  0.6645559E+001  0.1598496E+01  0.7818608E-02  0.3354997E+00
         11   -1    0    0    0    0  0.00000000000E+00  0.00000000000E+00  0.39999999674E+01  0.40000000000E+01  0.51100000000E-03 0.  1.
    9000002   -1    0    0    0    0 -0.00000000000E+00 -0.00000000000E+00  0.00000000000E+00  0.93800000000E+00  0.93800000000E+00 0. -1.
         11    1    1    2    0    0  0.37694820004E-01 -0.72353516362E-04  0.34848479311E+00  0.35051792656E+00  0.51100000000E-03 0.  1.
    9000002    1    1    2    0    0 -0.32723886397E+00  0.24719731602E+00  0.11458815402E+00  0.10301292308E+01  0.93800000000E+00 0. -1.
         22    1    1    2    0    0  0.28954404396E+00 -0.24712496250E+00  0.35369270202E+01  0.35573528426E+01  0.00000000000E+00 0.  1.
</event>
<event>
 5    1  0.6645559E+001  0.1599106E+01  0.7818608E-02  0.3354334E+00
         11   -1    0    0    0    0  0.00000000000E+00  0.00000000000E+00  0.39999999674E+01  0.40000000000E+01  0.51100000000E-03 0.  1.
    9000002   -1    0    0    0    0 -0.00000000000E+00 -0.00000000000E+00  0.00000000000E+00  0.93800000000E+00  0.93800000000E+00 0.  1.
         11    1    1    2    0    0  0.24671536954E-01 -0.18288039323E+00  0.11786565581E+01  0.11930152832E+01  0.51100000000E-03 0.  1.
    9000002    1    1    2    0    0 -0.11535989694E+00  0.51234431734E+00  0.19015504745E+00  0.10916993851E+01  0.93800000000E+00 0.  1.
         22    1    1    2    0    0  0.90688359987E-01 -0.32946392411E+00  0.26311883618E+01  0.26532853317E+01  0.00000000000E+00 0. -1.
</event>
<event>
 5    1  0.6645559E+001  0.1599676E+01  0.7818608E-02  0.3353715E+00
         11   -1    0    0    0    0  0.00000000000E+00  0.00000000000E+00  0.39999999674E+01  0.40000000000E+01  0.51100000000E-03 0. -1.
    9000002   -1    0    0    0    0 -0.00000000000E+00 -0.00000000000E+00  0.00000000000E+00  0.93800000000E+00  0.93800000000E+00 0. -1.
         11    1    1    2    0    0  0.97756027325E-01 -0.84358217664E-01  0.11568133091E+01  0.11639973552E+01  0.51100000000E-03 0. -1.
    9000002    1    1    2    0    0 -0.33033880534E+00  0.28396222195E+00  0.12861368979E+00  0.10421822062E+01  0.93800000000E+00 0. -1.
         22    1    1    2    0    0  0.23258277801E+00 -0.19960400428E+00  0.27145729685E+01  0.27318204385E+01  0.00000000000E+00 0. -1.
</event>
<event>
 5    1  0.6645559E+001  0.1518582E+01  0.7818608E-02  0.3446767E+00
         11   -1    0    0    0    0  0.00000000000E+00  0.00000000000E+00  0.39999999674E+01  0.40000000000E+01  0.51100000000E-03 0.  1.
    9000002   -1    0    0    0    0 -0.00000000000E+00 -0.00000000000E+00  0.00000000000E+00  0.93800000000E+00  0.93800000000E+00 0. -1.
         11    1    1    2    0    0 -0.17782823938E+00 -0.22151667675E+00  0.12695024018E+01  0.13008955109E+01  0.51100000000E-03 0.  1.
    9000002    1    1    2    0    0 -0.10723388349E+00 -0.57881931482E-01  0.71791722255E-01  0.94860290699E+00  0.93800000000E+00 0. -1.
         22    1    1    2    0    0  0.28506212287E+00  0.27939860824E+00  0.26587058433E+01  0.26885015822E+01  0.00000000000E+00 0.  1.
</event>
<event>
 5    1  0.6645559E+001  0.1599675E+01  0.7818608E-02  0.3353716E+00
         11   -1    0    0    0    0  0.00000000000E+00  0.00000000000E+00  0.39999999674E+01  0.40000000000E+01  0.51100000000E-03 0.  1.
    9000002   -1    0    0    0    0 -0.00000000000E+00 -0.00000000000E+00  0.00000000000E+00  0.93800000000E+00  0.93800000000E+00 0. -1.
         11    1    1    2    0    0 -0.27984570191E-01 -0.75678457842E-01  0.80750182860E+00  0.81152315399E+00  0.51100000000E-03 0.  1.
    9000002    1    1    2    0    0  0.13439043330E+00  0.37074167635E+00  0.10482056761E+00  0.10229083686E+01  0.93800000000E+00 0. -1.
         22    1    1    2    0    0 -0.10640586311E+00 -0.29506321850E+00  0.30876775712E+01  0.31035684774E+01  0.00000000000E+00 0.  1.
</event>
<event>
 5    1  0.6645559E+001  0.1583883E+01  0.7818608E-02  0.3371044E+00
         11   -1    0    0    0    0  0.00000000000E+00  0.00000000000E+00  0.39999999674E+01  0.40000000000E+01  0.51100000000E-03 0.  1.
    9000002   -1    0    0    0    0 -0.00000000000E+00 -0.00000000000E+00  0.00000000000E+00  0.93800000000E+00  0.93800000000E+00 0.  1.
         11    1    1    2    0    0 -0.20368373351E-01  0.15335144742E+00  0.42908333963E+00  0.45611874608E+00  0.51100000000E-03 0.  1.
    9000002    1    1    2    0    0  0.25348953293E+00 -0.48784594561E+00  0.22381589190E+00  0.11100397125E+01  0.93800000000E+00 0.  1.
         22    1    1    2    0    0 -0.23312115958E+00  0.33449449819E+00  0.33471007358E+01  0.33718415414E+01  0.00000000000E+00 0.  1.
</event>
<event>
 5    1  0.6645559E+001  0.1594318E+01  0.7818608E-02  0.3359554E+00
         11   -1    0    0    0    0  0.00000000000E+00  0.00000000000E+00  0.39999999674E+01  0.40000000000E+01  0.51100000000E-03 0.  1.
    9000002   -1    0    0    0    0 -0.00000000000E+00 -0.00000000000E+00  0.00000000000E+00  0.93800000000E+00  0.93800000000E+00 0. -1.
         11    1    1    2    0    0  0.72839483269E-01  0.45925779943E-01  0.52318631949E+00  0.53022538001E+00  0.51100000000E-03 0.  1.
    9000002    1    1    2    0    0 -0.11693911386E+00 -0.48882474692E+00  0.17786579757E+00  0.10789368061E+01  0.93800000000E+00 0. -1.
         22    1    1    2    0    0  0.44099630592E-01  0.44289896698E+00  0.32989478503E+01  0.33288378139E+01  0.00000000000E+00 0.  1.
</event>
<event>
 5    1  0.6645559E+001  0.1607378E+01  0.7818608E-02  0.3345395E+00
         11   -1    0    0    0    0  0.00000000000E+00  0.00000000000E+00  0.39999999674E+01  0.40000000000E+01  0.51100000000E-03 0. -1.
    9000002   -1    0    0    0    0 -0.00000000000E+00 -0.00000000000E+00  0.00000000000E+00  0.93800000000E+00  0.93800000000E+00 0. -1.
         11    1    1    2    0    0  0.19554487554E+00 -0.46653497913E+00  0.50336762872E+00  0.71363289993E+00  0.51100000000E-03 0. -1.
    9000002    1    1    2    0    0 -0.25858340298E+00 -0.14314434249E-01  0.34012849643E+00  0.10308257241E+01  0.93800000000E+00 0. -1.
         22    1    1    2    0    0  0.63038527447E-01  0.48084941338E+00  0.31565038422E+01  0.31935413760E+01  0.00000000000E+00 0. -1.
</event>
<event>
 5    1  0.6645559E+001  0.1588505E+01  0.7818608E-02  0.3365935E+00
         11   -1    0    0    0    0  0.00000000000E+00  0.00000000000E+00  0.39999999674E+01  0.40000000000E+01  0.51100000000E-03 0. -1.
    9000002   -1    0    0    0    0 -0.00000000000E+00 -0.00000000000E+00  0.00000000000E+00  0.93800000000E+00  0.93800000000E+00 0.  1.
         11    1    1    2    0    0 -0.91165482943E-01 -0.14989392380E-01  0.31404028092E+00  0.32734902829E+00  0.51100000000E-03 0. -1.
    9000002    1    1    2    0    0  0.26636257442E+00  0.29748549140E+00  0.11689075773E+00  0.10261355115E+01  0.93800000000E+00 0.  1.
         22    1    1    2    0    0 -0.17519709148E+00 -0.28249609902E+00  0.35690689287E+01  0.35845154602E+01  0.00000000000E+00 0. -1.
</event>
<event>
 5    1  0.6645559E+001  0.1582082E+01  0.7818608E-02  0.3373044E+00
         11   -1    0    0    0    0  0.00000000000E+00  0.00000000000E+00  0.39999999674E+01  0.40000000000E+01  0.51100000000E-03 0. -1.
    9000002   -1    0    0    0    0 -0.00000000000E+00 -0.00000000000E+00  0.00000000000E+00  0.93800000000E+00  0.93800000000E+00 0.  1.
         11    1    1    2    0    0 -0.29853892100E+00  0.80128548283E-02  0.97619581104E+00  0.10208566088E+01  0.51100000000E-03 0. -1.
    9000002    1    1    2    0    0  0.63813544419E+00 -0.27646497611E+00  0.36510863078E+00  0.12234369785E+01  0.93800000000E+00 0.  1.
         22    1    1    2    0    0 -0.33959652318E+00  0.26845212128E+00  0.26586955255E+01  0.26937064126E+01  0.00000000000E+00 0.  1.
</event>
<event>
 5    1  0.6645559E+001  0.1599676E+01  0.7818608E-02  0.3353715E+00
         11   -1    0    0    0    0  0.00000000000E+00  0.00000000000E+00  0.39999999674E+01  0.40000000000E+01  0.51100000000E-03 0. -1.
    9000002   -1    0    0    0    0 -0.00000000000E+00 -0.00000000000E+00  0.00000000000E+00  0.93800000000E+00  0.93800000000E+00 0.  1.
         11    1    1    2    0    0 -0.97267703580E-01  0.16105380725E-01  0.93020473781E+00  0.93541515105E+00  0.51100000000E-03 0. -1.
    9000002    1    1    2    0    0  0.40302035494E+00 -0.69750689701E-01  0.11297400194E+00  0.10295133269E+01  0.93800000000E+00 0.  1.
         22    1    1    2    0    0 -0.30575265136E+00  0.53645308976E-01  0.29568212276E+01  0.29730715220E+01  0.00000000000E+00 0. -1.
</event>
<event>
 5    1  0.6645559E+001  0.1593385E+01  0.7818608E-02  0.3360575E+00
         11   -1    0    0    0    0  0.00000000000E+00  0.00000000000E+00  0.39999999674E+01  0.40000000000E+01  0.51100000000E-03 0. -1.
    9000002   -1    0    0    0    0 -0.00000000000E+00 -0.00000000000E+00  0.00000000000E+00  0.93800000000E+00  0.93800000000E+00 0.  1.
         11    1    1    2    0    0  0.19949613177E+00  0.16348446521E+00  0.14705402374E+01  0.14929885224E+01  0.51100000000E-03 0. -1.
    9000002    1    1    2    0    0 -0.49252401407E+00 -0.18300277167E+00  0.19564331571E+00  0.10927901106E+01  0.93800000000E+00 0.  1.
         22    1    1    2    0    0  0.29302788231E+00  0.19518306462E-01  0.23338164142E+01  0.23522213670E+01  0.00000000000E+00 0. -1.
</event>
<event>
 5    1  0.6645559E+001  0.1599660E+01  0.7818608E-02  0.3353733E+00
         11   -1    0    0    0    0  0.00000000000E+00  0.00000000000E+00  0.39999999674E+01  0.40000000000E+01  0.51100000000E-03 0. -1.
    9000002   -1    0    0    0    0 -0.00000000000E+00 -0.00000000000E+00  0.00000000000E+00  0.93800000000E+00  0.93800000000E+00 0. -1.
         11    1    1    2    0    0  0.12170685234E+00  0.26726133021E-02  0.10376448807E+01  0.10447616285E+01  0.51100000000E-03 0. -1.
    9000002    1    1    2    0    0 -0.44320409003E+00  0.28171151170E-02  0.13329983277E+00  0.10459687600E+01  0.93800000000E+00 0. -1.
         22    1    1    2    0    0  0.32149723769E+00 -0.54897284191E-02  0.28290552538E+01  0.28472696114E+01  0.00000000000E+00 0.  1.
</event>
<event>
 5    1  0.6645559E+001  0.1599531E+01  0.7818608E-02  0.3353873E+00
         11   -1    0    0    0    0  0.00000000000E+00  0.00000000000E+00  0.39999999674E+01  0.40000000000E+01  0.51100000000E-03 0.  1.
    9000002   -1    0    0    0    0 -0.00000000000E+00 -0.00000000000E+00  0.00000000000E+00  0.93800000000E+00  0.93800000000E+00 0. -1.
         11    1    1    2    0    0 -0.11912439669E+00 -0.10580433524E+00  0.82377463905E+00  0.83904117677E+00  0.51100000000E-03 0.  1.
    9000002    1    1    2    0    0  0.50424936064E+00  0.42740991904E+00  0.30931368731E+00  0.11884719659E+01  0.93800000000E+00 0. -1.
         22    1    1    2    0    0 -0.38512496394E+00 -0.32160558380E+00  0.28669116410E+01  0.29104868573E+01  0.00000000000E+00 0.  1.
</event>
<event>
 5    1  0.6645559E+001  0.1599661E+01  0.7818608E-02  0.3353732E+00
         11   -1    0    0    0    0  0.00000000000E+00  0.00000000000E+00  0.39999999674E+01  0.40000000000E+01  0.51100000000E-03 0. -1.
    9000002   -1    0    0    0    0 -0.00000000000E+00 -0.00000000000E+00  0.00000000000E+00  0.93800000000E+00  0.93800000000E+00 0. -1.
         11    1    1    2    0    0  0.16512065755E-01 -0.88492001158E-01  0.98626680772E+00  0.99036657845E+00  0.51100000000E-03 0. -1.
    9000002    1    1    2    0    0 -0.63673153531E-01  0.36726899951E+00  0.93417279803E-01  0.10136624570E+01  0.93800000000E+00 0. -1.
         22    1    1    2    0    0  0.47161087777E-01 -0.27877699836E+00  0.29203158798E+01  0.29339709646E+01  0.00000000000E+00 0. -1.
</event>
<event>
 5    1  0.6645559E+001  0.1598295E+01  0.7818608E-02  0.3355216E+00
         11   -1    0    0    0    0  0.00000000000E+00  0.00000000000E+00  0.39999999674E+01  0.40000000000E+01  0.51100000000E-03 0.  1.
    9000002   -1    0    0    0    0 -0.00000000000E+00 -0.00000000000E+00  0.00000000000E+00  0.93800000000E+00  0.93800000000E+00 0.  1.
         11    1    1    2    0    0 -0.47236222569E-01 -0.40953643467E-02  0.82237681630E+00  0.82374263082E+00  0.51100000000E-03 0.  1.
    9000002    1    1    2    0    0  0.31963827610E+00  0.16499486653E+00  0.87973321234E-01  0.10084519021E+01  0.93800000000E+00 0.  1.
         22    1    1    2    0    0 -0.27240205353E+00 -0.16089950219E+00  0.30896498298E+01  0.31058054671E+01  0.00000000000E+00 0.  1.
</event>
<event>
 5    1  0.6645559E+001  0.1519312E+01  0.7818608E-02  0.3445882E+00
         11   -1    0    0    0    0  0.00000000000E+00  0.00000000000E+00  0.39999999674E+01  0.40000000000E+01  0.51100000000E-03 0.  1.
    9000002   -1    0    0    0    0 -0.00000000000E+00 -0.00000000000E+00  0.00000000000E+00  0.93800000000E+00  0.93800000000E+00 0. -1.
         11    1    1    2    0    0  0.11614130224E+00  0.15300971699E+00  0.22974506641E+00  0.29947259013E+00  0.51100000000E-03 0.  1.
    9000002    1    1    2    0    0  0.68593119509E-01 -0.42951822766E+00  0.20035765881E+00  0.10531752539E+01  0.93800000000E+00 0. -1.
         22    1    1    2    0    0 -0.18473442175E+00  0.27650851067E+00  0.35698972421E+01  0.35853521560E+01  0.00000000000E+00 0.  1.
</event>
<event>
 5    1  0.6645559E+001  0.1596304E+01  0.7818608E-02  0.3357385E+00
         11   -1    0    0    0    0  0.00000000000E+00  0.00000000000E+00  0.39999999674E+01  0.40000000000E+01  0.51100000000E-03 0. -1.
    9000002   -1    0    0    0    0 -0.00000000000E+00 -0.00000000000E+00  0.00000000000E+00  0.93800000000E+00  0.93800000000E+00 0.  1.
         11    1    1    2    0    0  0.80900326408E-02 -0.36419475389E-01  0.32310208497E+00  0.32524920484E+00  0.51100000000E-03 0. -1.
    9000002    1    1    2    0    0  0.31552081568E+00  0.22611029137E+00  0.10427368279E+00  0.10204882410E+01  0.93800000000E+00 0.  1.
         22    1    1    2    0    0 -0.32361084833E+00 -0.18969081599E+00  0.35726241996E+01  0.35922625542E+01  0.00000000000E+00 0. -1.
</event>
<event>
 5    1  0.6645559E+001  0.1592876E+01  0.7818608E-02  0.3361132E+00
         11   -1    0    0    0    0  0.00000000000E+00  0.00000000000E+00  0.39999999674E+01  0.40000000000E+01  0.51100000000E-03 0. -1.
    9000002   -1    0    0    0    0 -0.00000000000E+00 -0.00000000000E+00  0.00000000000E+00  0.93800000000E+00  0.93800000000E+00 0. -1.
         11    1    1    2    0    0 -0.42356422891E-01  0.17880489019E+00  0.11726196197E+01  0.11869297742E+01  0.51100000000E-03 0. -1.
    9000002    1    1    2    0    0 -0.15760284747E+00 -0.54436299203E+00  0.22910804219E+00  0.11196000266E+01  0.93800000000E+00 0. -1.
         22    1    1    2    0    0  0.19995927036E+00  0.36555810184E+00  0.25982723055E+01  0.26314701991E+01  0.00000000000E+00 0. -1.
</event>
<event>
 5    1  0.6645559E+001  0.1599607E+01  0.7818608E-02  0.3353790E+00
         11   -1    0    0    0    0  0.00000000000E+00  0.00000000000E+00  0.39999999674E+01  0.40000000000E+01  0.51100000000E-03 0. -1.
    9000002   -1    0    0    0    0 -0.00000000000E+00 -0.00000000000E+00  0.00000000000E+00  0.93800000000E+00  0.93800000000E+00 0. -1.
         11    1    1    2    0    0 -0.41012693278E-01  0.13312503845E+00  0.12441619640E+01  0.12519359292E+01  0.51100000000E-03 0. -1.
    9000002    1    1    2    0    0  0.10159577952E+00 -0.40282606642E+00  0.11671043854E+00  0.10324998153E+01  0.93800000000E+00 0. -1.
         22    1    1    2    0    0 -0.60583086244E-01  0.26970102797E+00  0.26391275648E+01  0.26535642555E+01  0.00000000000E+00 0. -1.
</event>
<event>
 5    1  0.6887803E+001  0.1597435E+01  0.7818608E-02  0.3356152E+00
         11   -1    0    0    0    0  0.00000000000E+00  0.00000000000E+00  0.39999999674E+01  0.40000000000E+01  0.51100000000E-03 0. -1.
    9000002   -1    0    0    0    0 -0.00000000000E+00 -0.00000000000E+00  0.00000000000E+00  0.93800000000E+00  0.93800000000E+00 0. -1.
         11    1    1    2    0    0  0.84811802231E-01  0.19554985385E+00  0.14330912224E+01  0.14488559280E+01  0.51100000000E-03 0. -1.
    9000002    1    1    2    0    0 -0.11835305557E+00 -0.42690985572E+00  0.13508879972E+00  0.10461130218E+01  0.93800000000E+00 0. -1.
         22    1    1    2    0    0  0.33541253339E-01  0.23136000187E+00  0.24318199452E+01  0.24430310502E+01  0.00000000000E+00 0. -1.
</event>
<event>
 5    1  0.6645559E+001  0.1592451E+01  0.7818608E-02  0.3361598E+00
         11   -1    0    0    0    0  0.00000000000E+00  0.00000000000E+00  0.39999999674E+01  0.40000000000E+01  0.51100000000E-03 0. -1.
    9000002   -1    0    0    0    0 -0.00000000000E+00 -0.00000000000E+00  0.00000000000E+00  0.93800000000E+00  0.93800000000E+00 0.  1.
         11    1    1    2    0    0  0.86497456444E-01 -0.12073843874E+00  0.44408692697E+00  0.46826599320E+00  0.51100000000E-03 0. -1.
    9000002    1    1    2    0    0 -0.20800255704E+00  0.71526950672E+00  0.41029619600E+00  0.12661210445E+01  0.93800000000E+00 0.  1.
         22    1    1    2    0    0  0.12150510060E+00 -0.59453106798E+00  0.31456168444E+01  0.32036129623E+01  0.00000000000E+00 0. -1.
</event>
<event>
 5    1  0.6645559E+001  0.1599212E+01  0.7818608E-02  0.3354219E+00
         11   -1    0    0    0    0  0.00000000000E+00  0.00000000000E+00  0.39999999674E+01  0.40000000000E+01  0.51100000000E-03 0. -1.
    9000002   -1    0    0    0    0 -0.00000000000E+00 -0.00000000000E+00  0.00000000000E+00  0.93800000000E+00  0.93800000000E+00 0. -1.
         11    1    1    2    0    0 -0.49083935562E-01 -0.92503375972E-01  0.12937598230E+01  0.12979910816E+01  0.51100000000E-03 0. -1.
    9000002    1    1    2    0    0  0.17530722883E+00  0.34734646577E+00  0.10235355586E+00  0.10206382523E+01  0.93800000000E+00 0. -1.
         22    1    1    2    0    0 -0.12622329326E+00 -0.25484308980E+00  0.26038865885E+01  0.26193706661E+01  0.00000000000E+00 0. -1.
</event>
<event>
 5    1  0.6645559E+001  0.1599664E+01  0.7818608E-02  0.3353728E+00
         11   -1    0    0    0    0  0.00000000000E+00  0.00000000000E+00  0.39999999674E+01  0.40000000000E+01  0.51100000000E-03 0.  1.
    9000002   -1    0    0    0    0 -0.00000000000E+00 -0.00000000000E+00  0.00000000000E+00  0.93800000000E+00  0.93800000000E+00 0.  1.
         11    1    1    2    0    0  0.96432983230E-01 -0.66560139585E-01  0.12857058045E+01  0.12910341782E+01  0.51100000000E-03 0.  1.
    9000002    1    1    2    0    0 -0.28888755780E+00  0.21387395901E+00  0.86730461689E-01  0.10082481165E+01  0.93800000000E+00 0.  1.
         22    1    1    2    0    0  0.19245457457E+00 -0.14731381943E+00  0.26275637012E+01  0.26387177053E+01  0.00000000000E+00 0.  1.
</event>
<event>
 5    1  0.6645559E+001  0.1513994E+01  0.7818608E-02  0.3452350E+00
         11   -1    0    0    0    0  0.00000000000E+00  0.00000000000E+00  0.39999999674E+01  0.40000000000E+01  0.51100000000E-03 0.  1.
    9000002   -1    0    0    0    0 -0.00000000000E+00 -0.00000000000E+00  0.00000000000E+00  0.93800000000E+00  0.93800000000E+00 0.  1.
         11    1    1    2    0    0  0.79768115999E-01 -0.32727745498E+00  0.12951166016E+01  0.13382080398E+01  0.51100000000E-03 0.  1.
    9000002    1    1    2    0    0  0.97516127637E-01  0.44947788994E-01  0.73071443530E-01  0.94694938341E+00  0.93800000000E+00 0.  1.
         22    1    1    2    0    0 -0.17728424364E+00  0.28232966599E+00  0.26318119222E+01  0.26528425768E+01  0.00000000000E+00 0.  1.
</event>
<event>
 5    1  0.6645559E+001  0.1548419E+01  0.7818608E-02  0.3411324E+00
         11   -1    0    0    0    0  0.00000000000E+00  0.00000000000E+00  0.39999999674E+01  0.40000000000E+01  0.51100000000E-03 0.  1.
    9000002   -1    0    0    0    0 -0.00000000000E+00 -0.00000000000E+00  0.00000000000E+00  0.93800000000E+00  0.93800000000E+00 0. -1.
         11    1    1    2    0    0 -0.28946180844E-01  0.15909470620E+00  0.53519483615E+00  0.55909103077E+00  0.51100000000E-03 0.  1.
    9000002    1    1    2    0    0 -0.19027348088E+00  0.15083713479E+00  0.79267476146E-01  0.97215388264E+00  0.93800000000E+00 0. -1.
         22    1    1    2    0    0  0.21921966173E+00 -0.30993184099E+00  0.33855376551E+01  0.34067550866E+01  0.00000000000E+00 0.  1.
</event>
<event>
 5    1  0.6645559E+001  0.1599676E+01  0.7818608E-02  0.3353715E+00
         11   -1    0    0    0    0  0.00000000000E+00  0.00000000000E+00  0.39999999674E+01  0.40000000000E+01  0.51100000000E-03 0. -1.
    9000002   -1    0    0    0    0 -0.00000000000E+00 -0.00000000000E+00  0.00000000000E+00  0.93800000000E+00  0.93800000000E+00 0.  1.
         11    1    1    2    0    0  0.48264745316E-01 -0.62779568654E-01  0.83368725328E+00  0.83743982308E+00  0.51100000000E-03 0. -1.
    9000002    1    1    2    0    0 -0.22708183429E+00  0.29008681696E+00  0.91190411994E-01  0.10118676851E+01  0.93800000000E+00 0.  1.
         22    1    1    2    0    0  0.17881708897E+00 -0.22730724831E+00  0.30751223021E+01  0.30886924919E+01  0.00000000000E+00 0.  1.
</event>
<event>
 5    1  0.6645559E+001  0.1599634E+01  0.7818608E-02  0.3353761E+00
         11   -1    0    0    0    0  0.00000000000E+00  0.00000000000E+00  0.39999999674E+01  0.40000000000E+01  0.51100000000E-03 0. -1.
    9000002   -1    0    0    0    0 -0.00000000000E+00 -0.00000000000E+00  0.00000000000E+00  0.93800000000E+00  0.93800000000E+00 0. -1.
         11    1    1    2    0    0 -0.73736699733E-01 -0.96899130088E-01  0.13254566664E+01  0.13310380077E+01  0.51100000000E-03 0. -1.
    9000002    1    1    2    0    0  0.23017317354E+00  0.30307614265E+00  0.97492645321E-01  0.10169482061E+01  0.93800000000E+00 0. -1.
         22    1    1    2    0    0 -0.15643647381E+00 -0.20617701257E+00  0.25770506556E+01  0.25900137861E+01  0.00000000000E+00 0. -1.
</event>
<event>
 5    1  0.6645559E+001  0.1599648E+01  0.7818608E-02  0.3353745E+00
         11   -1    0    0    0    0  0.00000000000E+00  0.00000000000E+00  0.39999999674E+01  0.40000000000E+01  0.51100000000E-03 0.  1.
    9000002   -1    0    0    0    0 -0.00000000000E+00 -0.00000000000E+00  0.00000000000E+00  0.93800000000E+00  0.93800000000E+00 0.  1.
         11    1    1    2    0    0  0.12662706513E+00 -0.12354820536E+00  0.84545995923E+00  0.86377159970E+00  0.51100000000E-03 0.  1.
    9000002    1    1    2    0    0 -0.55076446309E+00  0.50561867621E+00  0.40498007065E+00  0.12660349905E+01  0.93800000000E+00 0.  1.
         22    1    1    2    0    0  0.42413739796E+00 -0.38207047085E+00  0.27495599375E+01  0.28081934098E+01  0.00000000000E+00 0.  1.
</event>
<event>
 5    1  0.6645559E+001  0.1599676E+01  0.7818608E-02  0.3353715E+00
         11   -1    0    0    0    0  0.00000000000E+00  0.00000000000E+00  0.39999999674E+01  0.40000000000E+01  0.51100000000E-03 0. -1.
    9000002   -1    0    0    0    0 -0.00000000000E+00 -0.00000000000E+00  0.00000000000E+00  0.93800000000E+00  0.93800000000E+00 0. -1.
         11    1    1    2    0    0  0.96909798405E-01 -0.11703454664E+00  0.35050206699E+00  0.38202166721E+00  0.51100000000E-03 0.  1.
    9000002    1    1    2    0    0 -0.75063397530E+00  0.90842239100E+00  0.12908032259E+01  0.19836077166E+01  0.93800000000E+00 0. -1.
         22    1    1    2    0    0  0.65372417690E+00 -0.79138784436E+00  0.23586946745E+01  0.25723706162E+01  0.00000000000E+00 0. -1.
</event>
<event>
 5    1  0.6645559E+001  0.1599527E+01  0.7818608E-02  0.3353877E+00
         11   -1    0    0    0    0  0.00000000000E+00  0.00000000000E+00  0.39999999674E+01  0.40000000000E+01  0.51100000000E-03 0.  1.
    9000002   -1    0    0    0    0 -0.00000000000E+00 -0.00000000000E+00  0.00000000000E+00  0.93800000000E+00  0.93800000000E+00 0. -1.
         11    1    1    2    0    0  0.37595358454E-01 -0.24408791957E-01  0.51612489399E+00  0.51806791777E+00  0.51100000000E-03 0.  1.
    9000002    1    1    2    0    0 -0.35564159469E+00  0.16033395807E+00  0.10264978112E+00  0.10210626325E+01  0.93800000000E+00 0. -1.
         22    1    1    2    0    0  0.31804623623E+00 -0.13592516612E+00  0.33812252923E+01  0.33988694497E+01  0.00000000000E+00 0.  1.
</event>
<event>
 5    1  0.6645559E+001  0.1596534E+01  0.7818608E-02  0.3357133E+00
         11   -1    0    0    0    0  0.00000000000E+00  0.00000000000E+00  0.39999999674E+01  0.40000000000E+01  0.51100000000E-03 0.  1.
    9000002   -1    0    0    0    0 -0.00000000000E+00 -0.00000000000E+00  0.00000000000E+00  0.93800000000E+00  0.93800000000E+00 0. -1.
         11    1    1    2    0    0 -0.23656682983E-01  0.47721230090E-01  0.96424661981E+00  0.96571670763E+00  0.51100000000E-03 0.  1.
    9000002    1    1    2    0    0 -0.22108049300E-02 -0.40662994155E+00  0.11426130885E+00  0.10287139757E+01  0.93800000000E+00 0. -1.
         22    1    1    2    0    0  0.25867487913E-01  0.35890871146E+00  0.29214920387E+01  0.29435693167E+01  0.00000000000E+00 0.  1.
</event>
<event>
 5    1  0.6645559E+001  0.1599672E+01  0.7818608E-02  0.3353720E+00
         11   -1    0    0    0    0  0.00000000000E+00  0.00000000000E+00  0.39999999674E+01  0.40000000000E+01  0.51100000000E-03 0. -1.
    9000002   -1    0    0    0    0 -0.00000000000E+00 -0.00000000000E+00  0.00000000000E+00  0.93800000000E+00  0.93800000000E+00 0. -1.
         11    1    1    2    0    0  0.53932114653E-01 -0.30372263942E-01  0.65634581813E+00  0.65925809931E+00  0.51100000000E-03 0. -1.
    9000002    1    1    2    0    0 -0.32722293956E+00  0.19067585669E+00  0.96496215755E-01  0.10161632025E+01  0.93800000000E+00 0. -1.
         22    1    1    2    0    0  0.27329082491E+00 -0.16030359275E+00  0.32471579335E+01  0.32625786982E+01  0.00000000000E+00 0. -1.
</event>
<event>
 5    1  0.6645559E+001  0.1588983E+01  0.7818608E-02  0.3365408E+00
         11   -1    0    0    0    0  0.00000000000E+00  0.00000000000E+00  0.39999999674E+01  0.40000000000E+01  0.51100000000E-03 0.  1.
    9000002   -1    0    0    0    0 -0.00000000000E+00 -0.00000000000E+00  0.00000000000E+00  0.93800000000E+00  0.93800000000E+00 0.  1.
         11    1    1    2    0    0 -0.11520773980E-01  0.16382614241E+00  0.14719894743E+01  0.14811228872E+01  0.51100000000E-03 0.  1.
    9000002    1    1    2    0    0  0.32032626319E+00 -0.30165834134E+00  0.14052510977E+00  0.10455610820E+01  0.93800000000E+00 0.  1.
         22    1    1    2    0    0 -0.30880548921E+00  0.13783219893E+00  0.23874853833E+01  0.24113160308E+01  0.00000000000E+00 0.  1.
</event>
<event>
 5    1  0.6645559E+001  0.1599549E+01  0.7818608E-02  0.3353853E+00
         11   -1    0    0    0    0  0.00000000000E+00  0.00000000000E+00  0.39999999674E+01  0.40000000000E+01  0.51100000000E-03 0. -1.
    9000002   -1    0    0    0    0 -0.00000000000E+00 -0.00000000000E+00  0.00000000000E+00  0.93800000000E+00  0.93800000000E+00 0. -1.
         11    1    1    2    0    0  0.10805907058E+00 -0.22846994539E-01  0.11376911177E+01  0.11430398455E+01  0.51100000000E-03 0. -1.
    9000002    1    1    2    0    0 -0.40613025117E+00  0.57398926594E-01  0.11373610092E+00  0.10300564637E+01  0.93800000000E+00 0. -1.
         22    1    1    2    0    0  0.29807118059E+00 -0.34551932055E-01  0.27485727487E+01  0.27649036909E+01  0.00000000000E+00 0. -1.
</event>
<event>
 5    1  0.6645559E+001  0.1599670E+01  0.7818608E-02  0.3353722E+00
         11   -1    0    0    0    0  0.00000000000E+00  0.00000000000E+00  0.39999999674E+01  0.40000000000E+01  0.51100000000E-03 0. -1.
    9000002   -1    0    0    0    0 -0.00000000000E+00 -0.00000000000E+00  0.00000000000E+00  0.93800000000E+00  0.93800000000E+00 0. -1.
         11    1    1    2    0    0  0.18825455629E-01 -0.34954863617E-02  0.16822748333E+00  0.16931439240E+00  0.51100000000E-03 0. -1.
    9000002    1    1    2    0    0 -0.42335716531E+00  0.10752951765E+00  0.12934294013E+00  0.10427691416E+01  0.93800000000E+00 0. -1.
         22    1    1    2    0    0  0.40453170968E+00 -0.10403403128E+00  0.37024295439E+01  0.37259164660E+01  0.00000000000E+00 0. -1.
</event>
<event>
 5    1  0.6645559E+001  0.1596177E+01  0.7818608E-02  0.3357523E+00
         11   -1    0    0    0    0  0.00000000000E+00  0.00000000000E+00  0.39999999674E+01  0.40000000000E+01  0.51100000000E-03 0.  1.
    9000002   -1    0    0    0    0 -0.00000000000E+00 -0.00000000000E+00  0.00000000000E+00  0.93800000000E+00  0.93800000000E+00 0. -1.
         11    1    1    2    0    0 -0.92543857885E-01 -0.93035524858E-01  0.57479049966E+00  0.58957981151E+00  0.51100000000E-03 0.  1.
    9000002    1    1    2    0    0  0.30294414659E+00  0.46342664594E+00  0.21519755268E+00  0.11102672646E+01  0.93800000000E+00 0. -1.
         22    1    1    2    0    0 -0.21040028870E+00 -0.37039112108E+00  0.32100119150E+01  0.32381529239E+01  0.00000000000E+00 0.  1.
</event>
<event>
 5    1  0.6645559E+001  0.1599591E+01  0.7818608E-02  0.3353807E+00
         11   -1    0    0    0    0  0.00000000000E+00  0.00000000000E+00  0.39999999674E+01  0.40000000000E+01  0.51100000000E-03 0.  1.
    9000002   -1    0    0    0    0 -0.00000000000E+00 -0.00000000000E+00  0.00000000000E+00  0.93800000000E+00  0.93800000000E+00 0. -1.
         11    1    1    2    0    0 -0.41185871021E-02 -0.39518983274E-01  0.30579595591E+00  0.30836689279E+00  0.51100000000E-03 0.  1.
    9000002    1    1    2    0    0  0.72798639045E-01  0.42690864957E+00  0.12714414674E+00  0.10409420113E+01  0.93800000000E+00 0. -1.
         22    1    1    2    0    0 -0.68680051943E-01 -0.38738966630E+00  0.35670598647E+01  0.35886910959E+01  0.00000000000E+00 0.  1.
</event>
<event>
 5    1  0.6645559E+001  0.1599599E+01  0.7818608E-02  0.3353798E+00
         11   -1    0    0    0    0  0.00000000000E+00  0.00000000000E+00  0.39999999674E+01  0.40000000000E+01  0.51100000000E-03 0.  1.
    9000002   -1    0    0    0    0 -0.00000000000E+00 -0.00000000000E+00  0.00000000000E+00  0.93800000000E+00  0.93800000000E+00 0. -1.
         11    1    1    2    0    0  0.36064104079E-02 -0.19203466261E-02  0.26456489776E-01  0.26775005125E-01  0.51100000000E-03 0. -1.
    9000002    1    1    2    0    0 -0.44926491328E+00  0.47553202203E-01  0.13872514486E+00  0.10503280131E+01  0.93800000000E+00 0. -1.
         22    1    1    2    0    0  0.44565850287E+00 -0.45632855577E-01  0.38348183327E+01  0.38608969817E+01  0.00000000000E+00 0.  1.
</event>
<event>
 5    1  0.6645559E+001  0.1593720E+01  0.7818608E-02  0.3360208E+00
         11   -1    0    0    0    0  0.00000000000E+00  0.00000000000E+00  0.39999999674E+01  0.40000000000E+01  0.51100000000E-03 0.  1.
    9000002   -1    0    0    0    0 -0.00000000000E+00 -0.00000000000E+00  0.00000000000E+00  0.93800000000E+00  0.93800000000E+00 0. -1.
         11    1    1    2    0    0 -0.33298819882E-01  0.56888690050E-01  0.12346250166E+01  0.12363835680E+01  0.51100000000E-03 0.  1.
    9000002    1    1    2    0    0  0.26896037533E+00  0.40463177120E-01  0.53841056223E-01  0.97812055061E+00  0.93800000000E+00 0. -1.
         22    1    1    2    0    0 -0.23566155544E+00 -0.97351867170E-01  0.27115338945E+01  0.27234958814E+01  0.00000000000E+00 0.  1.
</event>
<event>
 5    1  0.6645559E+001  0.1412544E+01  0.7818608E-02  0.3586978E+00
         11   -1    0    0    0    0  0.00000000000E+00  0.00000000000E+00  0.39999999674E+01  0.40000000000E+01  0.51100000000E-03 0.  1.
    9000002   -1    0    0    0    0 -0.00000000000E+00 -0.00000000000E+00  0.00000000000E+00  0.93800000000E+00  0.93800000000E+00 0.  1.
         11    1    1    2    0    0 -0.49848581523E+00 -0.20630445701E+00  0.13578216381E+01  0.14610713531E+01  0.51100000000E-03 0.  1.
    9000002    1    1    2    0    0  0.23472335210E+00 -0.21646086139E+00  0.23449956442E+00  0.10182261057E+01  0.93800000000E+00 0.  1.
         22    1    1    2    0    0  0.26376246314E+00  0.42276531840E+00  0.24076787649E+01  0.24587025412E+01  0.00000000000E+00 0.  1.
</event>
<event>
 5    1  0.6645559E+001  0.1599651E+01  0.7818608E-02  0.3353742E+00
         11   -1    0    0    0    0  0.00000000000E+00  0.00000000000E+00  0.39999999674E+01  0.40000000000E+01  0.51100000000E-03 0.  1.
    9000002   -1    0    0    0    0 -0.00000000000E+00 -0.00000000000E+00  0.00000000000E+00  0.93800000000E+00  0.93800000000E+00 0.  1.
         11    1    1    2    0    0 -0.13281673006E+00 -0.94380435706E-01  0.13301813016E+01  0.13401233177E+01  0.51100000000E-03 0.  1.
    9000002    1    1    2    0    0  0.38739798306E+00  0.25663212580E+00  0.14700840050E+00  0.10570679804E+01  0.93800000000E+00 0.  1.
         22    1    1    2    0    0 -0.25458125300E+00 -0.16225169009E+00  0.25228102653E+01  0.25408087019E+01  0.00000000000E+00 0.  1.
</event>
<event>
 5    1  0.6645559E+001  0.1516266E+01  0.7818608E-02  0.3449581E+00
         11   -1    0    0    0    0  0.00000000000E+00  0.00000000000E+00  0.39999999674E+01  0.40000000000E+01  0.51100000000E-03 0. -1.
    9000002   -1    0    0    0    0 -0.00000000000E+00 -0.00000000000E+00  0.00000000000E+00  0.93800000000E+00  0.93800000000E+00 0.  1.
         11    1    1    2    0    0 -0.20422905258E+00  0.25956107900E+00  0.10987018094E+01  0.11472695354E+01  0.51100000000E-03 0. -1.
    9000002    1    1    2    0    0  0.32210498575E+00  0.12161156299E+00  0.14968527239E+00  0.10103418604E+01  0.93800000000E+00 0.  1.
         22    1    1    2    0    0 -0.11787593317E+00 -0.38117264199E+00  0.27516128856E+01  0.27803886042E+01  0.00000000000E+00 0. -1.
</event>
<event>
 5    1  0.6645559E+001  0.1599673E+01  0.7818608E-02  0.3353718E+00
         11   -1    0    0    0    0  0.00000000000E+00  0.00000000000E+00  0.39999999674E+01  0.40000000000E+01  0.51100000000E-03 0.  1.
    9000002   -1    0    0    0    0 -0.00000000000E+00 -0.00000000000E+00  0.00000000000E+00  0.93800000000E+00  0.93800000000E+00 0.  1.
         11    1    1    2    0    0  0.22994168550E-03 -0.46134825860E-01  0.43414923505E+00  0.43659396978E+00  0.51100000000E-03 0.  1.
    9000002    1    1    2    0    0  0.30811552230E-02  0.40193585056E+00  0.10900716544E+00  0.10262984379E+01  0.93800000000E+00 0.  1.
         22    1    1    2    0    0 -0.33110969085E-02 -0.35580102470E+00  0.34568435669E+01  0.34751075923E+01  0.00000000000E+00 0.  1.
</event>
<event>
 5    1  0.6645559E+001  0.1599122E+01  0.7818608E-02  0.3354317E+00
         11   -1    0    0    0    0  0.00000000000E+00  0.00000000000E+00  0.39999999674E+01  0.40000000000E+01  0.51100000000E-03 0. -1.
    9000002   -1    0    0    0    0 -0.00000000000E+00 -0.00000000000E+00  0.00000000000E+00  0.93800000000E+00  0.93800000000E+00 0. -1.
         11    1    1    2    0    0 -0.18014840696E-01 -0.23854035142E-01  0.32834046354E+00  0.32969875734E+00  0.51100000000E-03 0. -1.
    9000002    1    1    2    0    0  0.60782086304E-01  0.39034160851E+00  0.10566032881E+00  0.10232639632E+01  0.93800000000E+00 0. -1.
         22    1    1    2    0    0 -0.42767245608E-01 -0.36648757337E+00  0.35659991750E+01  0.35850372794E+01  0.00000000000E+00 0. -1.
</event>
<event>
 5    1  0.6645559E+001  0.1599675E+01  0.7818608E-02  0.3353716E+00
         11   -1    0    0    0    0  0.00000000000E+00  0.00000000000E+00  0.39999999674E+01  0.40000000000E+01  0.51100000000E-03 0.  1.
    9000002   -1    0    0    0    0 -0.00000000000E+00 -0.00000000000E+00  0.00000000000E+00  0.93800000000E+00  0.93800000000E+00 0.  1.
         11    1    1    2    0    0  0.96795604926E-01 -0.16029637050E+00  0.91692163787E+00  0.93584713851E+00  0.51100000000E-03 0.  1.
    9000002    1    1    2    0    0 -0.37742558399E+00  0.62782022163E+00  0.38700295600E+00  0.12514885497E+01  0.93800000000E+00 0.  1.
         22    1    1    2    0    0  0.28062997906E+00 -0.46752385112E+00  0.26960753735E+01  0.27506643118E+01  0.00000000000E+00 0.  1.
</event>
<event>
 5    1  0.6645559E+001  0.1459048E+01  0.7818608E-02  0.3522158E+00
         11   -1    0    0    0    0  0.00000000000E+00  0.00000000000E+00  0.39999999674E+01  0.40000000000E+01  0.51100000000E-03 0.  1.
    9000002   -1    0    0    0    0 -0.00000000000E+00 -0.00000000000E+00  0.00000000000E+00  0.93800000000E+00  0.93800000000E+00 0. -1.
         11    1    1    2    0    0  0.41253650903E+00  0.21596136654E+00  0.10451782833E+01  0.11442130869E+01  0.51100000000E-03 0.  1.
    9000002    1    1    2    0    0 -0.15032656380E+00 -0.18226119434E+00  0.15276251396E+00  0.97928423066E+00  0.93800000000E+00 0. -1.
         22    1    1    2    0    0 -0.26220994523E+00 -0.33700172206E-01  0.28020591701E+01  0.28145026825E+01  0.00000000000E+00 0.  1.
</event>
<event>
 5    1  0.6645559E+001  0.1490312E+01  0.7818608E-02  0.3481756E+00
         11   -1    0    0    0    0  0.00000000000E+00  0.00000000000E+00  0.39999999674E+01  0.40000000000E+01  0.51100000000E-03 0.  1.
    9000002   -1    0    0    0    0 -0.00000000000E+00 -0.00000000000E+00  0.00000000000E+00  0.93800000000E+00  0.93800000000E+00 0.  1.
         11    1    1    2    0    0 -0.33712032803E-01  0.10020422056E+00  0.52975655893E-01  0.11825425240E+00  0.51100000000E-03 0.  1.
    9000002    1    1    2    0    0 -0.15342876926E+00  0.58870837377E+00  0.37824617046E+00  0.11802678095E+01  0.93800000000E+00 0.  1.
         22    1    1    2    0    0  0.18714080206E+00 -0.68891259433E+00  0.35687781410E+01  0.36394779381E+01  0.00000000000E+00 0.  1.
</event>
<event>
 5    1  0.6645559E+001  0.1599662E+01  0.7818608E-02  0.3353731E+00
         11   -1    0    0    0    0  0.00000000000E+00  0.00000000000E+00  0.39999999674E+01  0.40000000000E+01  0.51100000000E-03 0. -1.
    9000002   -1    0    0    0    0 -0.00000000000E+00 -0.00000000000E+00  0.00000000000E+00  0.93800000000E+00  0.93800000000E+00 0. -1.
         11    1    1    2    0    0 -0.63779863338E-01  0.33185350505E-01  0.77450749869E+00  0.77783755702E+00  0.51100000000E-03 0. -1.
    9000002    1    1    2    0    0  0.33840860562E+00 -0.15859807581E+00  0.93920008159E-01  0.10140703634E+01  0.93800000000E+00 0. -1.
         22    1    1    2    0    0 -0.27462874228E+00  0.12541272530E+00  0.31315724605E+01  0.31460920796E+01  0.00000000000E+00 0. -1.
</event>
<event>
 5    1  0.6645559E+001  0.1594648E+01  0.7818608E-02  0.3359193E+00
         11   -1    0    0    0    0  0.00000000000E+00  0.00000000000E+00  0.39999999674E+01  0.40000000000E+01  0.51100000000E-03 0. -1.
    9000002   -1    0    0    0    0 -0.00000000000E+00 -0.00000000000E+00  0.00000000000E+00  0.93800000000E+00  0.93800000000E+00 0. -1.
         11    1    1    2    0    0  0.86695272456E-02 -0.15681906749E-01  0.10383105434E+01  0.10384652755E+01  0.51100000000E-03 0. -1.
    9000002    1    1    2    0    0 -0.18007561603E-01  0.34349657775E+00  0.83324180356E-01  0.10025473007E+01  0.93800000000E+00 0. -1.
         22    1    1    2    0    0  0.93380343575E-02 -0.32781467100E+00  0.28783652436E+01  0.28969874237E+01  0.00000000000E+00 0. -1.
</event>
<event>
 5    1  0.6645559E+001  0.1599673E+01  0.7818608E-02  0.3353719E+00
         11   -1    0    0    0    0  0.00000000000E+00  0.00000000000E+00  0.39999999674E+01  0.40000000000E+01  0.51100000000E-03 0.  1.
    9000002   -1    0    0    0    0 -0.00000000000E+00 -0.00000000000E+00  0.00000000000E+00  0.93800000000E+00  0.93800000000E+00 0.  1.
         11    1    1    2    0    0 -0.80542909310E-01 -0.26597832486E-01  0.89380344980E+00  0.89781928746E+00  0.51100000000E-03 0.  1.
    9000002    1    1    2    0    0  0.34650477281E+00  0.12342217067E+00  0.90906324958E-01  0.10116355815E+01  0.93800000000E+00 0.  1.
         22    1    1    2    0    0 -0.26596186350E+00 -0.96824338186E-01  0.30152901926E+01  0.30285451311E+01  0.00000000000E+00 0.  1.
</event>
<event>
 5    1  0.6645559E+001  0.1599676E+01  0.7818608E-02  0.3353715E+00
         11   -1    0    0    0    0  0.00000000000E+00  0.00000000000E+00  0.39999999674E+01  0.40000000000E+01  0.51100000000E-03 0.  1.
    9000002   -1    0    0    0    0 -0.00000000000E+00 -0.00000000000E+00  0.00000000000E+00  0.93800000000E+00  0.93800000000E+00 0.  1.
         11    1    1    2    0    0 -0.29337287447E-01 -0.44851643549E-01  0.52397324539E+00  0.52670729003E+00  0.51100000000E-03 0.  1.
    9000002    1    1    2    0    0  0.22134033710E+00  0.33468768183E+00  0.10862076442E+00  0.10259872610E+01  0.93800000000E+00 0.  1.
         22    1    1    2    0    0 -0.19200304965E+00 -0.28983603828E+00  0.33674059575E+01  0.33853054490E+01  0.00000000000E+00 0.  1.
</event>
<event>
 5    1  0.6645559E+001  0.1599637E+01  0.7818608E-02  0.3353757E+00
         11   -1    0    0    0    0  0.00000000000E+00  0.00000000000E+00  0.39999999674E+01  0.40000000000E+01  0.51100000000E-03 0.  1.
    9000002   -1    0    0    0    0 -0.00000000000E+00 -0.00000000000E+00  0.00000000000E+00  0.93800000000E+00  0.93800000000E+00 0.  1.
         11    1    1    2    0    0  0.34157125181E-02  0.95815121310E-02  0.10322159587E+00  0.10372285882E+00  0.51100000000E-03 0.  1.
    9000002    1    1    2    0    0 -0.20628948378E+00 -0.40278698890E+00  0.13917879304E+00  0.10507175862E+01  0.93800000000E+00 0.  1.
         22    1    1    2    0    0  0.20287377126E+00  0.39320547677E+00  0.37575995784E+01  0.37835595550E+01  0.00000000000E+00 0.  1.
</event>
<event>
 5    1  0.6645559E+001  0.1596381E+01  0.7818608E-02  0.3357300E+00
         11   -1    0    0    0    0  0.00000000000E+00  0.00000000000E+00  0.39999999674E+01  0.40000000000E+01  0.51100000000E-03 0. -1.
    9000002   -1    0    0    0    0 -0.00000000000E+00 -0.00000000000E+00  0.00000000000E+00  0.93800000000E+00  0.93800000000E+00 0. -1.
         11    1    1    2    0    0  0.33532205689E-01 -0.18253189962E-01  0.13498466906E+00  0.14028082465E+00  0.51100000000E-03 0. -1.
    9000002    1    1    2    0    0 -0.24812322872E+00  0.34055784197E+00  0.12288629232E+00  0.10356108445E+01  0.93800000000E+00 0. -1.
         22    1    1    2    0    0  0.21459102303E+00 -0.32230465200E+00  0.37421290060E+01  0.37621083309E+01  0.00000000000E+00 0. -1.
</event>
<event>
 5    1  0.6645559E+001  0.1596369E+01  0.7818608E-02  0.3357314E+00
         11   -1    0    0    0    0  0.00000000000E+00  0.00000000000E+00  0.39999999674E+01  0.40000000000E+01  0.51100000000E-03 0. -1.
    9000002   -1    0    0    0    0 -0.00000000000E+00 -0.00000000000E+00  0.00000000000E+00  0.93800000000E+00  0.93800000000E+00 0. -1.
         11    1    1    2    0    0  0.40194278380E-01  0.34249032059E-01  0.67420039545E+00  0.67626548822E+00  0.51100000000E-03 0. -1.
    9000002    1    1    2    0    0  0.16689351968E-01 -0.37046203159E+00  0.95132004359E-01  0.10131212907E+01  0.93800000000E+00 0. -1.
         22    1    1    2    0    0 -0.56883630348E-01  0.33621299953E+00  0.32306675676E+01  0.32486132211E+01  0.00000000000E+00 0. -1.
</event>
<event>
 5    1  0.1012477E+002  0.1595223E+01  0.7818608E-02  0.3358565E+00
         11   -1    0    0    0    0  0.00000000000E+00  0.00000000000E+00  0.39999999674E+01  0.40000000000E+01  0.51100000000E-03 0. -1.
    9000002   -1    0    0    0    0 -0.00000000000E+00 -0.00000000000E+00  0.00000000000E+00  0.93800000000E+00  0.93800000000E+00 0.  1.
         11    1    1    2    0    0  0.66651213259E-01 -0.63257357411E-01  0.13583902002E+01  0.13614947942E+01  0.51100000000E-03 0. -1.
    9000002    1    1    2    0    0 -0.30647735406E+00 -0.67303994312E-02  0.66236238861E-01  0.98904241879E+00  0.93800000000E+00 0.  1.
         22    1    1    2    0    0  0.23982614081E+00  0.69987756843E-01  0.25753735283E+01  0.25874627870E+01  0.00000000000E+00 0.  1.
</event>
<event>
 5    1  0.6645559E+001  0.1597380E+01  0.7818608E-02  0.3356211E+00
         11   -1    0    0    0    0  0.00000000000E+00  0.00000000000E+00  0.39999999674E+01  0.40000000000E+01  0.51100000000E-03 0. -1.
    9000002   -1    0    0    0    0 -0.00000000000E+00 -0.00000000000E+00  0.00000000000E+00  0.93800000000E+00  0.93800000000E+00 0.  1.
         11    1    1    2    0    0 -0.16554898366E+00 -0.39195056564E-01  0.13006251661E+01  0.13117045408E+01  0.51100000000E-03 0. -1.
    9000002    1    1    2    0    0  0.36487407932E+00  0.21624368392E+00  0.12367907419E+00  0.10368389161E+01  0.93800000000E+00 0.  1.
         22    1    1    2    0    0 -0.19932509565E+00 -0.17704862735E+00  0.25756957271E+01  0.25894565431E+01  0.00000000000E+00 0. -1.
</event>
<event>
 5    1  0.6645559E+001  0.1552272E+01  0.7818608E-02  0.3406853E+00
         11   -1    0    0    0    0  0.00000000000E+00  0.00000000000E+00  0.39999999674E+01  0.40000000000E+01  0.51100000000E-03 0. -1.
    9000002   -1    0    0    0    0 -0.00000000000E+00 -0.00000000000E+00  0.00000000000E+00  0.93800000000E+00  0.93800000000E+00 0. -1.
         11    1    1    2    0    0 -0.83311134512E-01  0.17266426466E+00  0.80618942133E+00  0.82867082585E+00  0.51100000000E-03 0. -1.
    9000002    1    1    2    0    0 -0.11284005501E+00  0.50591789654E-01  0.45696888871E-01  0.94721941114E+00  0.93800000000E+00 0. -1.
         22    1    1    2    0    0  0.19615118952E+00 -0.22325605431E+00  0.31481136572E+01  0.31621097630E+01  0.00000000000E+00 0. -1.
</event>
<event>
 5    1  0.6645559E+001  0.1595134E+01  0.7818608E-02  0.3358662E+00
         11   -1    0    0    0    0  0.00000000000E+00  0.00000000000E+00  0.39999999674E+01  0.40000000000E+01  0.51100000000E-03 0. -1.
    9000002   -1    0    0    0    0 -0.00000000000E+00 -0.00000000000E+00  0.00000000000E+00  0.93800000000E+00  0.93800000000E+00 0.  1.
         11    1    1    2    0    0  0.13897112363E-01  0.12480435365E-01  0.18488634264E+00  0.18582817821E+00  0.51100000000E-03 0. -1.
    9000002    1    1    2    0    0  0.21528245343E+00  0.25631013153E+00  0.78635065644E-01  0.99903397932E+00  0.93800000000E+00 0.  1.
         22    1    1    2    0    0 -0.22917956579E+00 -0.26879056689E+00  0.37364785591E+01  0.37531378425E+01  0.00000000000E+00 0. -1.
</event>
<event>
 5    1  0.6645559E+001  0.1599677E+01  0.7818608E-02  0.3353714E+00
         11   -1    0    0    0    0  0.00000000000E+00  0.00000000000E+00  0.39999999674E+01  0.40000000000E+01  0.51100000000E-03 0.  1.
    9000002   -1    0    0    0    0 -0.00000000000E+00 -0.00000000000E+00  0.00000000000E+00  0.93800000000E+00  0.93800000000E+00 0. -1.
         11    1    1    2    0    0  0.14616943083E+00 -0.25467379837E-01  0.14182823969E+01  0.14260221978E+01  0.51100000000E-03 0.  1.
    9000002    1    1    2    0    0 -0.40001756048E+00  0.69192802403E-01  0.11124789592E+00  0.10281156486E+01  0.93800000000E+00 0. -1.
         22    1    1    2    0    0  0.25384812965E+00 -0.43725422566E-01  0.24704696745E+01  0.24838621536E+01  0.00000000000E+00 0.  1.
</event>
<event>
 5    1  0.6645559E+001  0.1590901E+01  0.7818608E-02  0.3363298E+00
         11   -1    0    0    0    0  0.00000000000E+00  0.00000000000E+00  0.39999999674E+01  0.40000000000E+01  0.51100000000E-03 0.  1.
    9000002   -1    0    0    0    0 -0.00000000000E+00 -0.00000000000E+00  0.00000000000E+00  0.93800000000E+00  0.93800000000E+00 0.  1.
         11    1    1    2    0    0 -0.71664197445E-01  0.48583725658E-01  0.40391434036E+00  0.41308980992E+00  0.51100000000E-03 0.  1.
    9000002    1    1    2    0    0  0.59412170647E-01 -0.68921207179E+00  0.35104846704E+00  0.12172190075E+01  0.93800000000E+00 0.  1.
         22    1    1    2    0    0  0.12252026797E-01  0.64062834613E+00  0.32450371600E+01  0.33076911826E+01  0.00000000000E+00 0.  1.
</event>
<event>
 5    1  0.6645559E+001  0.1502821E+01  0.7818608E-02  0.3466099E+00
         11   -1    0    0    0    0  0.00000000000E+00  0.00000000000E+00  0.39999999674E+01  0.40000000000E+01  0.51100000000E-03 0.  1.
    9000002   -1    0    0    0    0 -0.00000000000E+00 -0.00000000000E+00  0.00000000000E+00  0.93800000000E+00  0.93800000000E+00 0.  1.
         11    1    1    2    0    0  0.31585750960E+00  0.22717220088E+00  0.13499233034E+01  0.14048723648E+01  0.51100000000E-03 0.  1.
    9000002    1    1    2    0    0 -0.18099510349E-01 -0.14167742866E+00  0.88548750732E-01  0.95293492292E+00  0.93800000000E+00 0.  1.
         22    1    1    2    0    0 -0.29775799925E+00 -0.85494772221E-01  0.25615279132E+01  0.25801927123E+01  0.00000000000E+00 0.  1.
</event>
<event>
 5    1  0.6645559E+001  0.1599674E+01  0.7818608E-02  0.3353717E+00
         11   -1    0    0    0    0  0.00000000000E+00  0.00000000000E+00  0.39999999674E+01  0.40000000000E+01  0.51100000000E-03 0. -1.
    9000002   -1    0    0    0    0 -0.00000000000E+00 -0.00000000000E+00  0.00000000000E+00  0.93800000000E+00  0.93800000000E+00 0. -1.
         11    1    1    2    0    0  0.71135079363E-01 -0.11355621616E+00  0.14558289255E+01  0.14619826727E+01  0.51100000000E-03 0. -1.
    9000002    1    1    2    0    0 -0.18780750019E+00  0.30883643503E+00  0.87718108259E-01  0.10090540458E+01  0.93800000000E+00 0. -1.
         22    1    1    2    0    0  0.11667242083E+00 -0.19528021887E+00  0.24564529336E+01  0.24669632816E+01  0.00000000000E+00 0. -1.
</event>
<event>
 5    1  0.6645559E+001  0.1595687E+01  0.7818608E-02  0.3358058E+00
         11   -1    0    0    0    0  0.00000000000E+00  0.00000000000E+00  0.39999999674E+01  0.40000000000E+01  0.51100000000E-03 0.  1.
    9000002   -1    0    0    0    0 -0.00000000000E+00 -0.00000000000E+00  0.00000000000E+00  0.93800000000E+00  0.93800000000E+00 0. -1.
         11    1    1    2    0    0 -0.50949442232E-01  0.15837341409E+00  0.11182971953E+01  0.11306046445E+01  0.51100000000E-03 0.  1.
    9000002    1    1    2    0    0  0.24731310405E+00 -0.32096747933E+00  0.11415943139E+00  0.10281343638E+01  0.93800000000E+00 0. -1.
         22    1    1    2    0    0 -0.19636366182E+00  0.16259406523E+00  0.27675433407E+01  0.27792609918E+01  0.00000000000E+00 0.  1.
</event>
<event>
 5    1  0.6645559E+001  0.1599675E+01  0.7818608E-02  0.3353716E+00
         11   -1    0    0    0    0  0.00000000000E+00  0.00000000000E+00  0.39999999674E+01  0.40000000000E+01  0.51100000000E-03 0. -1.
    9000002   -1    0    0    0    0 -0.00000000000E+00 -0.00000000000E+00  0.00000000000E+00  0.93800000000E+00  0.93800000000E+00 0.  1.
         11    1    1    2    0    0  0.49135805344E-01 -0.78921267620E-02  0.41735643209E+00  0.42031329453E+00  0.51100000000E-03 0. -1.
    9000002    1    1    2    0    0 -0.45080494720E+00  0.65812884500E-01  0.14108746191E+00  0.10522861341E+01  0.93800000000E+00 0.  1.
         22    1    1    2    0    0  0.40166914186E+00 -0.57920757738E-01  0.34415560734E+01  0.34654005713E+01  0.00000000000E+00 0. -1.
</event>
<event>
 5    1  0.6645559E+001  0.1592424E+01  0.7818608E-02  0.3361628E+00
         11   -1    0    0    0    0  0.00000000000E+00  0.00000000000E+00  0.39999999674E+01  0.40000000000E+01  0.51100000000E-03 0. -1.
    9000002   -1    0    0    0    0 -0.00000000000E+00 -0.00000000000E+00  0.00000000000E+00  0.93800000000E+00  0.93800000000E+00 0. -1.
         11    1    1    2    0    0  0.36152869941E-01 -0.13325762827E-01  0.10317963788E+01  0.10325156824E+01  0.51100000000E-03 0. -1.
    9000002    1    1    2    0    0 -0.30160716017E+00 -0.24903355591E+00  0.10909762422E+00  0.10221207769E+01  0.93800000000E+00 0. -1.
         22    1    1    2    0    0  0.26545429023E+00  0.26235931874E+00  0.28591059643E+01  0.28833635406E+01  0.00000000000E+00 0. -1.
</event>
<event>
 5    1  0.6645559E+001  0.1490201E+01  0.7818608E-02  0.3481896E+00
         11   -1    0    0    0    0  0.00000000000E+00  0.00000000000E+00  0.39999999674E+01  0.40000000000E+01  0.51100000000E-03 0.  1.
    9000002   -1    0    0    0    0 -0.00000000000E+00 -0.00000000000E+00  0.00000000000E+00  0.93800000000E+00  0.93800000000E+00 0. -1.
         11    1    1    2    0    0  0.27839812146E+00  0.28946014692E-01  0.24714430202E+00  0.37339516995E+00  0.51100000000E-03 0.  1.
    9000002    1    1    2    0    0  0.11518670941E+00 -0.19749188430E+00  0.19989276722E+00  0.98593718906E+00  0.93800000000E+00 0. -1.
         22    1    1    2    0    0 -0.39358483087E+00  0.16854586960E+00  0.35529628981E+01  0.35786676410E+01  0.00000000000E+00 0.  1.
</event>
<event>
 5    1  0.6645559E+001  0.1599676E+01  0.7818608E-02  0.3353715E+00
         11   -1    0    0    0    0  0.00000000000E+00  0.00000000000E+00  0.39999999674E+01  0.40000000000E+01  0.51100000000E-03 0. -1.
    9000002   -1    0    0    0    0 -0.00000000000E+00 -0.00000000000E+00  0.00000000000E+00  0.93800000000E+00  0.93800000000E+00 0.  1.
         11    1    1    2    0    0  0.48878574094E-01 -0.49555905844E-01  0.71738344621E+00  0.72075250456E+00  0.51100000000E-03 0. -1.
    9000002    1    1    2    0    0 -0.26616876122E+00  0.27510519320E+00  0.98624931469E-01  0.10178897553E+01  0.93800000000E+00 0.  1.
         22    1    1    2    0    0  0.21729018712E+00 -0.22554928735E+00  0.31839915897E+01  0.31993577402E+01  0.00000000000E+00 0. -1.
</event>
<event>
 5    1  0.6645559E+001  0.1599619E+01  0.7818608E-02  0.3353777E+00
         11   -1    0    0    0    0  0.00000000000E+00  0.00000000000E+00  0.39999999674E+01  0.40000000000E+01  0.51100000000E-03 0. -1.
    9000002   -1    0    0    0    0 -0.00000000000E+00 -0.00000000000E+00  0.00000000000E+00  0.93800000000E+00  0.93800000000E+00 0. -1.
         11    1    1    2    0    0  0.62341204921E-01  0.12297662315E+00  0.12338698424E+01  0.12415493243E+01  0.51100000000E-03 0. -1.
    9000002    1    1    2    0    0 -0.19468552630E+00 -0.36034541930E+00  0.11334156250E+00  0.10297774445E+01  0.93800000000E+00 0. -1.
         22    1    1    2    0    0  0.13234432138E+00  0.23736879616E+00  0.26527885625E+01  0.26666732312E+01  0.00000000000E+00 0. -1.
</event>
<event>
 5    1  0.6645559E+001  0.1599187E+01  0.7818608E-02  0.3354247E+00
         11   -1    0    0    0    0  0.00000000000E+00  0.00000000000E+00  0.39999999674E+01  0.40000000000E+01  0.51100000000E-03 0. -1.
    9000002   -1    0    0    0    0 -0.00000000000E+00 -0.00000000000E+00  0.00000000000E+00  0.93800000000E+00  0.93800000000E+00 0.  1.
         11    1    1    2    0    0  0.21820519146E+00  0.26451046743E-03  0.13894630033E+01  0.14064925433E+01  0.51100000000E-03 0. -1.
    9000002    1    1    2    0    0 -0.53656368980E+00 -0.37709375503E-01  0.19984036172E+00  0.10995920882E+01  0.93800000000E+00 0.  1.
         22    1    1    2    0    0  0.31835849834E+00  0.37444865036E-01  0.24106966023E+01  0.24319153685E+01  0.00000000000E+00 0. -1.
</event>
<event>
 5    1  0.6645559E+001  0.1599312E+01  0.7818608E-02  0.3354110E+00
         11   -1    0    0    0    0  0.00000000000E+00  0.00000000000E+00  0.39999999674E+01  0.40000000000E+01  0.51100000000E-03 0.  1.
    9000002   -1    0    0    0    0 -0.00000000000E+00 -0.00000000000E+00  0.00000000000E+00  0.93800000000E+00  0.93800000000E+00 0.  1.
         11    1    1    2    0    0  0.30410336470E-01 -0.26139867831E-01  0.52782587104E+00  0.52934723246E+00  0.51100000000E-03 0.  1.
    9000002    1    1    2    0    0 -0.32271580716E+00  0.12935037940E+00  0.81322014800E-01  0.10036604420E+01  0.93800000000E+00 0.  1.
         22    1    1    2    0    0  0.29230547069E+00 -0.10321051157E+00  0.33908520815E+01  0.34049923255E+01  0.00000000000E+00 0.  1.
</event>
<event>
 5    1  0.6645559E+001  0.1599521E+01  0.7818608E-02  0.3353883E+00
         11   -1    0    0    0    0  0.00000000000E+00  0.00000000000E+00  0.39999999674E+01  0.40000000000E+01  0.51100000000E-03 0. -1.
    9000002   -1    0    0    0    0 -0.00000000000E+00 -0.00000000000E+00  0.00000000000E+00  0.93800000000E+00  0.93800000000E+00 0. -1.
         11    1    1    2    0    0 -0.12186958858E-01 -0.33398328170E-02  0.14577399440E+00  0.14632154665E+00  0.51100000000E-03 0. -1.
    9000002    1    1    2    0    0  0.47241327502E+00  0.77776838790E-01  0.15651048334E+00  0.10646891896E+01  0.93800000000E+00 0. -1.
         22    1    1    2    0    0 -0.46022631616E+00 -0.74437005973E-01  0.36977154896E+01  0.37269892638E+01  0.00000000000E+00 0. -1.
</event>
<event>
 5    1  0.6645559E+001  0.1599401E+01  0.7818608E-02  0.3354014E+00
         11   -1    0    0    0    0  0.00000000000E+00  0.00000000000E+00  0.39999999674E+01  0.40000000000E+01  0.51100000000E-03 0.  1.
    9000002   -1    0    0    0    0 -0.00000000000E+00 -0.00000000000E+00  0.00000000000E+00  0.93800000000E+00  0.93800000000E+00 0. -1.
         11    1    1    2    0    0  0.48264408179E-01  0.93607708724E-01  0.12626648167E+01  0.12670495478E+01  0.51100000000E-03 0.  1.
    9000002    1    1    2    0    0 -0.20324814282E+00 -0.31116548333E+00  0.93075001318E-01  0.10132328071E+01  0.93800000000E+00 0. -1.
         22    1    1    2    0    0  0.15498373464E+00  0.21755777461E+00  0.26442601493E+01  0.26577176450E+01  0.00000000000E+00 0.  1.
</event>
<event>
 5    1  0.6645559E+001  0.1589211E+01  0.7818608E-02  0.3365157E+00
         11   -1    0    0    0    0  0.00000000000E+00  0.00000000000E+00  0.39999999674E+01  0.40000000000E+01  0.51100000000E-03 0.  1.
    9000002   -1    0    0    0    0 -0.00000000000E+00 -0.00000000000E+00  0.00000000000E+00  0.93800000000E+00  0.93800000000E+00 0. -1.
         11    1    1    2    0    0 -0.97235668521E-01  0.53870095917E-02  0.36557127188E+00  0.37832051365E+00  0.51100000000E-03 0.  1.
    9000002    1    1    2    0    0  0.32926861964E+00  0.26147040806E+00  0.12845818309E+00  0.10359199308E+01  0.93800000000E+00 0. -1.
         22    1    1    2    0    0 -0.23203295112E+00 -0.26685741765E+00  0.35059705124E+01  0.35237595556E+01  0.00000000000E+00 0.  1.
</event>
<event>
 5    1  0.6645559E+001  0.1599649E+01  0.7818608E-02  0.3353745E+00
         11   -1    0    0    0    0  0.00000000000E+00  0.00000000000E+00  0.39999999674E+01  0.40000000000E+01  0.51100000000E-03 0.  1.
    9000002   -1    0    0    0    0 -0.00000000000E+00 -0.00000000000E+00  0.00000000000E+00  0.93800000000E+00  0.93800000000E+00 0.  1.
         11    1    1    2    0    0 -0.29918315544E+00  0.14908377579E+00  0.14419953595E+01  0.14802322151E+01  0.51100000000E-03 0.  1.
    9000002    1    1    2    0    0  0.73427043761E+00 -0.34877198514E+00  0.48895796734E+00  0.13340610432E+01  0.93800000000E+00 0.  1.
         22    1    1    2    0    0 -0.43508728216E+00  0.19968820935E+00  0.20690466405E+01  0.21237067417E+01  0.00000000000E+00 0.  1.
</event>
<event>
 5    1  0.6645559E+001  0.1599662E+01  0.7818608E-02  0.3353731E+00
         11   -1    0    0    0    0  0.00000000000E+00  0.00000000000E+00  0.39999999674E+01  0.40000000000E+01  0.51100000000E-03 0. -1.
    9000002   -1    0    0    0    0 -0.00000000000E+00 -0.00000000000E+00  0.00000000000E+00  0.93800000000E+00  0.93800000000E+00 0. -1.
         11    1    1    2    0    0 -0.72732002322E-01 -0.87684840012E-01  0.11053159831E+01  0.11111715705E+01  0.51100000000E-03 0. -1.
    9000002    1    1    2    0    0  0.25595973363E+00  0.29414610476E+00  0.10243428623E+00  0.10209672371E+01  0.93800000000E+00 0. -1.
         22    1    1    2    0    0 -0.18322773131E+00 -0.20646126475E+00  0.27922496980E+01  0.28058611925E+01  0.00000000000E+00 0. -1.
</event>
<event>
 5    1  0.6645559E+001  0.1598783E+01  0.7818608E-02  0.3354686E+00
         11   -1    0    0    0    0  0.00000000000E+00  0.00000000000E+00  0.39999999674E+01  0.40000000000E+01  0.51100000000E-03 0.  1.
    9000002   -1    0    0    0    0 -0.00000000000E+00 -0.00000000000E+00  0.00000000000E+00  0.93800000000E+00  0.93800000000E+00 0.  1.
         11    1    1    2    0    0  0.64593406160E-01  0.12624472369E+00  0.10595285825E+01  0.10689766680E+01  0.51100000000E-03 0.  1.
    9000002    1    1    2    0    0 -0.29006577301E+00 -0.35605447177E+00  0.14422532069E+00  0.10543044544E+01  0.93800000000E+00 0.  1.
         22    1    1    2    0    0  0.22547236685E+00  0.22980974808E+00  0.27962460641E+01  0.28147188776E+01  0.00000000000E+00 0.  1.
</event>
<event>
 5    1  0.6645559E+001  0.1569960E+01  0.7818608E-02  0.3386627E+00
         11   -1    0    0    0    0  0.00000000000E+00  0.00000000000E+00  0.39999999674E+01  0.40000000000E+01  0.51100000000E-03 0.  1.
    9000002   -1    0    0    0    0 -0.00000000000E+00 -0.00000000000E+00  0.00000000000E+00  0.93800000000E+00  0.93800000000E+00 0.  1.
         11    1    1    2    0    0  0.79455841707E-01  0.14952004028E+00  0.50730436214E+00  0.53481534214E+00  0.51100000000E-03 0.  1.
    9000002    1    1    2    0    0 -0.61607891679E+00 -0.43046840873E-01  0.29790980276E+00  0.11618952245E+01  0.93800000000E+00 0.  1.
         22    1    1    2    0    0  0.53662307509E+00 -0.10647319941E+00  0.31947858025E+01  0.32412894333E+01  0.00000000000E+00 0.  1.
</event>
<event>
 5    1  0.6645559E+001  0.1587871E+01  0.7818608E-02  0.3366633E+00
         11   -1    0    0    0    0  0.00000000000E+00  0.00000000000E+00  0.39999999674E+01  0.40000000000E+01  0.51100000000E-03 0.  1.
    9000002   -1    0    0    0    0 -0.00000000000E+00 -0.00000000000E+00  0.00000000000E+00  0.93800000000E+00  0.93800000000E+00 0. -1.
         11    1    1    2    0    0  0.42717431172E-01  0.23815128766E-02  0.20290537321E+00  0.20736755321E+00  0.51100000000E-03 0.  1.
    9000002    1    1    2    0    0  0.25980597753E+00  0.23737659239E+00  0.92636817830E-01  0.10061174745E+01  0.93800000000E+00 0. -1.
         22    1    1    2    0    0 -0.30252340870E+00 -0.23975810526E+00  0.37044577763E+01  0.37245149722E+01  0.00000000000E+00 0.  1.
</event>
<event>
 5    1  0.6645559E+001  0.1599452E+01  0.7818608E-02  0.3353958E+00
         11   -1    0    0    0    0  0.00000000000E+00  0.00000000000E+00  0.39999999674E+01  0.40000000000E+01  0.51100000000E-03 0. -1.
    9000002   -1    0    0    0    0 -0.00000000000E+00 -0.00000000000E+00  0.00000000000E+00  0.93800000000E+00  0.93800000000E+00 0.  1.
         11    1    1    2    0    0  0.20786833738E-02  0.12403193501E+00  0.83543477783E+00  0.84459444170E+00  0.51100000000E-03 0. -1.
    9000002    1    1    2    0    0 -0.72204678718E-01 -0.58315837626E+00  0.24049905995E+00  0.11326831001E+01  0.93800000000E+00 0.  1.
         22    1    1    2    0    0  0.70125995344E-01  0.45912644125E+00  0.29240661296E+01  0.29607224582E+01  0.00000000000E+00 0. -1.
</event>
<event>
 5    1  0.6645559E+001  0.1599676E+01  0.7818608E-02  0.3353715E+00
         11   -1    0    0    0    0  0.00000000000E+00  0.00000000000E+00  0.39999999674E+01  0.40000000000E+01  0.51100000000E-03 0. -1.
    9000002   -1    0    0    0    0 -0.00000000000E+00 -0.00000000000E+00  0.00000000000E+00  0.93800000000E+00  0.93800000000E+00 0. -1.
         11    1    1    2    0    0  0.13467055120E+00  0.13810560377E+00  0.12671307774E+01  0.12817292941E+01  0.51100000000E-03 0. -1.
    9000002    1    1    2    0    0 -0.40147925507E+00 -0.41414738468E+00  0.23101063701E+00  0.11251282429E+01  0.93800000000E+00 0. -1.
         22    1    1    2    0    0  0.26680870387E+00  0.27604178091E+00  0.25018585529E+01  0.25311424630E+01  0.00000000000E+00 0. -1.
</event>
<event>
 5    1  0.6645559E+001  0.1599669E+01  0.7818608E-02  0.3353722E+00
         11   -1    0    0    0    0  0.00000000000E+00  0.00000000000E+00  0.39999999674E+01  0.40000000000E+01  0.51100000000E-03 0.  1.
    9000002   -1    0    0    0    0 -0.00000000000E+00 -0.00000000000E+00  0.00000000000E+00  0.93800000000E+00  0.93800000000E+00 0. -1.
         11    1    1    2    0    0 -0.14828608101E+00 -0.31170743826E-01  0.91078124948E+00  0.92330012597E+00  0.51100000000E-03 0.  1.
    9000002    1    1    2    0    0  0.61579372095E+00  0.13357891881E+00  0.27887877964E+00  0.11638997414E+01  0.93800000000E+00 0. -1.
         22    1    1    2    0    0 -0.46750763993E+00 -0.10240817499E+00  0.28103399382E+01  0.28508001326E+01  0.00000000000E+00 0.  1.
</event>
<event>
 5    1  0.9740036E+001  0.1580166E+01  0.7818608E-02  0.3375176E+00
         11   -1    0    0    0    0  0.00000000000E+00  0.00000000000E+00  0.39999999674E+01  0.40000000000E+01  0.51100000000E-03 0.  1.
    9000002   -1    0    0    0    0 -0.00000000000E+00 -0.00000000000E+00  0.00000000000E+00  0.93800000000E+00  0.93800000000E+00 0.  1.
         11    1    1    2    0    0  0.91504809083E-01  0.41414149623E-01  0.14718150904E+01  0.14752383479E+01  0.51100000000E-03 0.  1.
    9000002    1    1    2    0    0  0.18322989506E+00 -0.29328737180E-01  0.37471131606E-01  0.95691245941E+00  0.93800000000E+00 0.  1.
         22    1    1    2    0    0 -0.27473470415E+00 -0.12085412444E-01  0.24907137454E+01  0.25058491926E+01  0.00000000000E+00 0. -1.
</event>
<event>
 5    1  0.6645559E+001  0.1599417E+01  0.7818608E-02  0.3353996E+00
         11   -1    0    0    0    0  0.00000000000E+00  0.00000000000E+00  0.39999999674E+01  0.40000000000E+01  0.51100000000E-03 0. -1.
    9000002   -1    0    0    0    0 -0.00000000000E+00 -0.00000000000E+00  0.00000000000E+00  0.93800000000E+00  0.93800000000E+00 0. -1.
         11    1    1    2    0    0 -0.10568421188E+00 -0.19345519458E-01  0.11096897378E+01  0.11148789069E+01  0.51100000000E-03 0. -1.
    9000002    1    1    2    0    0  0.40813717178E+00  0.19418460581E-01  0.11295658868E+00  0.10293474722E+01  0.93800000000E+00 0. -1.
         22    1    1    2    0    0 -0.30245295990E+00 -0.72941122514E-04  0.27773536409E+01  0.27937736209E+01  0.00000000000E+00 0.  1.
</event>
<event>
 5    1  0.6645559E+001  0.1597623E+01  0.7818608E-02  0.3355947E+00
         11   -1    0    0    0    0  0.00000000000E+00  0.00000000000E+00  0.39999999674E+01  0.40000000000E+01  0.51100000000E-03 0. -1.
    9000002   -1    0    0    0    0 -0.00000000000E+00 -0.00000000000E+00  0.00000000000E+00  0.93800000000E+00  0.93800000000E+00 0. -1.
         11    1    1    2    0    0  0.26938267521E-02  0.14955857742E+00  0.69465596208E+00  0.71057877224E+00  0.51100000000E-03 0. -1.
    9000002    1    1    2    0    0  0.11867710876E+00 -0.61419714185E+00  0.27666928764E+00  0.11609101085E+01  0.93800000000E+00 0. -1.
         22    1    1    2    0    0 -0.12137093552E+00  0.46463856442E+00  0.30286747176E+01  0.30665111193E+01  0.00000000000E+00 0. -1.
</event>
<event>
 5    1  0.6645559E+001  0.1599659E+01  0.7818608E-02  0.3353733E+00
         11   -1    0    0    0    0  0.00000000000E+00  0.00000000000E+00  0.39999999674E+01  0.40000000000E+01  0.51100000000E-03 0.  1.
    9000002   -1    0    0    0    0 -0.00000000000E+00 -0.00000000000E+00  0.00000000000E+00  0.93800000000E+00  0.93800000000E+00 0.  1.
         11    1    1    2    0    0  0.17782109596E-01  0.28075500911E-01  0.40262047300E+00  0.40399002905E+00  0.51100000000E-03 0.  1.
    9000002    1    1    2    0    0 -0.17923679676E+00 -0.30237473291E+00  0.82873973643E-01  0.10051210892E+01  0.93800000000E+00 0.  1.
         22    1    1    2    0    0  0.16145468716E+00  0.27429923200E+00  0.35145055207E+01  0.35288888818E+01  0.00000000000E+00 0.  1.
</event>
<event>
 5    1  0.6645559E+001  0.1597678E+01  0.7818608E-02  0.3355888E+00
         11   -1    0    0    0    0  0.00000000000E+00  0.00000000000E+00  0.39999999674E+01  0.40000000000E+01  0.51100000000E-03 0.  1.
    9000002   -1    0    0    0    0 -0.00000000000E+00 -0.00000000000E+00  0.00000000000E+00  0.93800000000E+00  0.93800000000E+00 0.  1.
         11    1    1    2    0    0  0.12525859903E+00 -0.37298040675E-01  0.89342237706E+00  0.90293115210E+00  0.51100000000E-03 0.  1.
    9000002    1    1    2    0    0 -0.63354139958E+00  0.29923522533E+00  0.35315296705E+00  0.12228971515E+01  0.93800000000E+00 0.  1.
         22    1    1    2    0    0  0.50828280055E+00 -0.26193718465E+00  0.27534246232E+01  0.28121716964E+01  0.00000000000E+00 0.  1.
</event>
<event>
 5    1  0.6645559E+001  0.1599675E+01  0.7818608E-02  0.3353716E+00
         11   -1    0    0    0    0  0.00000000000E+00  0.00000000000E+00  0.39999999674E+01  0.40000000000E+01  0.51100000000E-03 0.  1.
    9000002   -1    0    0    0    0 -0.00000000000E+00 -0.00000000000E+00  0.00000000000E+00  0.93800000000E+00  0.93800000000E+00 0.  1.
         11    1    1    2    0    0  0.28992840523E-01 -0.38150834603E-01  0.47781201622E+00  0.48020897008E+00  0.51100000000E-03 0.  1.
    9000002    1    1    2    0    0 -0.23819588613E+00  0.31835907177E+00  0.10660345276E+00  0.10243525150E+01  0.93800000000E+00 0.  1.
         22    1    1    2    0    0  0.20920304561E+00 -0.28020823717E+00  0.34155844984E+01  0.34334385150E+01  0.00000000000E+00 0.  1.
</event>
<event>
 5    1  0.6645559E+001  0.1599677E+01  0.7818608E-02  0.3353714E+00
         11   -1    0    0    0    0  0.00000000000E+00  0.00000000000E+00  0.39999999674E+01  0.40000000000E+01  0.51100000000E-03 0.  1.
    9000002   -1    0    0    0    0 -0.00000000000E+00 -0.00000000000E+00  0.00000000000E+00  0.93800000000E+00  0.93800000000E+00 0. -1.
         11    1    1    2    0    0  0.18570525011E+00 -0.59581792426E-01  0.12383551001E+01  0.12536187797E+01  0.51100000000E-03 0.  1.
    9000002    1    1    2    0    0 -0.56266849616E+00  0.18282952458E+00  0.24377827358E+00  0.11354709676E+01  0.93800000000E+00 0. -1.
         22    1    1    2    0    0  0.37696324605E+00 -0.12324773215E+00  0.25178665937E+01  0.25489102527E+01  0.00000000000E+00 0. -1.
</event>
<event>
 5    1  0.6645559E+001  0.1586345E+01  0.7818608E-02  0.3368319E+00
         11   -1    0    0    0    0  0.00000000000E+00  0.00000000000E+00  0.39999999674E+01  0.40000000000E+01  0.51100000000E-03 0. -1.
    9000002   -1    0    0    0    0 -0.00000000000E+00 -0.00000000000E+00  0.00000000000E+00  0.93800000000E+00  0.93800000000E+00 0. -1.
         11    1    1    2    0    0 -0.39394237831E-01  0.94659818249E-01  0.52783133499E+00  0.53769746743E+00  0.51100000000E-03 0. -1.
    9000002    1    1    2    0    0 -0.33713968240E+00 -0.37597211640E+00  0.18688510304E+00  0.10815674919E+01  0.93800000000E+00 0. -1.
         22    1    1    2    0    0  0.37653392023E+00  0.28131229815E+00  0.32852835293E+01  0.33187350407E+01  0.00000000000E+00 0. -1.
</event>
<event>
 5    1  0.6645559E+001  0.1599676E+01  0.7818608E-02  0.3353716E+00
         11   -1    0    0    0    0  0.00000000000E+00  0.00000000000E+00  0.39999999674E+01  0.40000000000E+01  0.51100000000E-03 0.  1.
    9000002   -1    0    0    0    0 -0.00000000000E+00 -0.00000000000E+00  0.00000000000E+00  0.93800000000E+00  0.93800000000E+00 0. -1.
         11    1    1    2    0    0 -0.10901105415E+00 -0.25284077141E-01  0.10137949862E+01  0.10199525625E+01  0.51100000000E-03 0.  1.
    9000002    1    1    2    0    0  0.41654539277E+00  0.10133290043E+00  0.12444003050E+00  0.10388011081E+01  0.93800000000E+00 0. -1.
         22    1    1    2    0    0 -0.30753433862E+00 -0.76048823293E-01  0.28617649506E+01  0.28792463294E+01  0.00000000000E+00 0.  1.
</event>
<event>
 5    1  0.6645559E+001  0.1598687E+01  0.7818608E-02  0.3354789E+00
         11   -1    0    0    0    0  0.00000000000E+00  0.00000000000E+00  0.39999999674E+01  0.40000000000E+01  0.51100000000E-03 0.  1.
    9000002   -1    0    0    0    0 -0.00000000000E+00 -0.00000000000E+00  0.00000000000E+00  0.93800000000E+00  0.93800000000E+00 0.  1.
         11    1    1    2    0    0  0.31833014794E-01  0.82813010826E-01  0.22396926773E+00  0.24090211622E+00  0.51100000000E-03 0.  1.
    9000002    1    1    2    0    0 -0.40323382424E+00 -0.90243449476E+00  0.78272068740E+00  0.15714583064E+01  0.93800000000E+00 0.  1.
         22    1    1    2    0    0  0.37140080945E+00  0.81962148393E+00  0.29933100122E+01  0.31256395774E+01  0.00000000000E+00 0.  1.
</event>
<event>
 5    1  0.6645559E+001  0.1594535E+01  0.7818608E-02  0.3359317E+00
         11   -1    0    0    0    0  0.00000000000E+00  0.00000000000E+00  0.39999999674E+01  0.40000000000E+01  0.51100000000E-03 0. -1.
    9000002   -1    0    0    0    0 -0.00000000000E+00 -0.00000000000E+00  0.00000000000E+00  0.93800000000E+00  0.93800000000E+00 0. -1.
         11    1    1    2    0    0  0.10387950031E-01  0.12295585919E-01  0.10474155255E+00  0.10597237796E+00  0.51100000000E-03 0. -1.
    9000002    1    1    2    0    0  0.62699426718E+00 -0.54319202319E+00  0.51924313113E+00  0.13555946350E+01  0.93800000000E+00 0. -1.
         22    1    1    2    0    0 -0.63738221721E+00  0.53089643727E+00  0.33760152837E+01  0.34764329871E+01  0.00000000000E+00 0. -1.
</event>
<event>
 5    1  0.6645559E+001  0.1599676E+01  0.7818608E-02  0.3353715E+00
         11   -1    0    0    0    0  0.00000000000E+00  0.00000000000E+00  0.39999999674E+01  0.40000000000E+01  0.51100000000E-03 0. -1.
    9000002   -1    0    0    0    0 -0.00000000000E+00 -0.00000000000E+00  0.00000000000E+00  0.93800000000E+00  0.93800000000E+00 0.  1.
         11    1    1    2    0    0 -0.35507058665E-01 -0.26418541513E-01  0.39699336015E+00  0.39945297555E+00  0.51100000000E-03 0. -1.
    9000002    1    1    2    0    0  0.35052525267E+00  0.26157384610E+00  0.12968342036E+00  0.10430487137E+01  0.93800000000E+00 0.  1.
         22    1    1    2    0    0 -0.31501819401E+00 -0.23515530459E+00  0.34733231868E+01  0.34954983107E+01  0.00000000000E+00 0. -1.
</event>
<event>
 5    1  0.6645559E+001  0.1599664E+01  0.7818608E-02  0.3353728E+00
         11   -1    0    0    0    0  0.00000000000E+00  0.00000000000E+00  0.39999999674E+01  0.40000000000E+01  0.51100000000E-03 0. -1.
    9000002   -1    0    0    0    0 -0.00000000000E+00 -0.00000000000E+00  0.00000000000E+00  0.93800000000E+00  0.93800000000E+00 0. -1.
         11    1    1    2    0    0 -0.11959427615E+00  0.16874811239E+00  0.96366429387E+00  0.98561039398E+00  0.51100000000E-03 0. -1.
    9000002    1    1    2    0    0  0.45540402578E+00 -0.61804189799E+00  0.42960407467E+00  0.12859907758E+01  0.93800000000E+00 0. -1.
         22    1    1    2    0    0 -0.33580974963E+00  0.44929378560E+00  0.26067315988E+01  0.26663988303E+01  0.00000000000E+00 0. -1.
</event>
<event>
 5    1  0.6645559E+001  0.1594763E+01  0.7818608E-02  0.3359067E+00
         11   -1    0    0    0    0  0.00000000000E+00  0.00000000000E+00  0.39999999674E+01  0.40000000000E+01  0.51100000000E-03 0.  1.
    9000002   -1    0    0    0    0 -0.00000000000E+00 -0.00000000000E+00  0.00000000000E+00  0.93800000000E+00  0.93800000000E+00 0. -1.
         11    1    1    2    0    0 -0.22605861456E+00 -0.20594042036E+00  0.12601267610E+01  0.12967010715E+01  0.51100000000E-03 0.  1.
    9000002    1    1    2    0    0  0.54006349542E+00  0.39573855772E+00  0.32316200902E+00  0.11968940092E+01  0.93800000000E+00 0. -1.
         22    1    1    2    0    0 -0.31400488086E+00 -0.18979813735E+00  0.24167111974E+01  0.24444049193E+01  0.00000000000E+00 0.  1.
</event>
<event>
 5    1  0.6645559E+001  0.1599671E+01  0.7818608E-02  0.3353720E+00
         11   -1    0    0    0    0  0.00000000000E+00  0.00000000000E+00  0.39999999674E+01  0.40000000000E+01  0.51100000000E-03 0.  1.
    9000002   -1    0    0    0    0 -0.00000000000E+00 -0.00000000000E+00  0.00000000000E+00  0.93800000000E+00  0.93800000000E+00 0. -1.
         11    1    1    2    0    0 -0.58487101133E-01 -0.18561364182E-02  0.53275563849E+00  0.53595990307E+00  0.51100000000E-03 0.  1.
    9000002    1    1    2    0    0  0.41210331426E+00  0.14979673067E-01  0.11489509308E+00  0.10310666393E+01  0.93800000000E+00 0. -1.
         22    1    1    2    0    0 -0.35361621313E+00 -0.13123536649E-01  0.33523492358E+01  0.33709734576E+01  0.00000000000E+00 0.  1.
</event>
<event>
 5    1  0.6645559E+001  0.1597376E+01  0.7818608E-02  0.3356216E+00
         11   -1    0    0    0    0  0.00000000000E+00  0.00000000000E+00  0.39999999674E+01  0.40000000000E+01  0.51100000000E-03 0. -1.
    9000002   -1    0    0    0    0 -0.00000000000E+00 -0.00000000000E+00  0.00000000000E+00  0.93800000000E+00  0.93800000000E+00 0.  1.
         11    1    1    2    0    0 -0.17435006429E-01 -0.52408902678E-02  0.65720762585E+00  0.65745993869E+00  0.51100000000E-03 0. -1.
    9000002    1    1    2    0    0  0.17088503860E+00  0.28033493283E+00  0.73938505729E-01  0.99654416541E+00  0.93800000000E+00 0.  1.
         22    1    1    2    0    0 -0.15345003217E+00 -0.27509404256E+00  0.32688538358E+01  0.32839958959E+01  0.00000000000E+00 0. -1.
</event>
<event>
 5    1  0.6645559E+001  0.1592180E+01  0.7818608E-02  0.3361895E+00
         11   -1    0    0    0    0  0.00000000000E+00  0.00000000000E+00  0.39999999674E+01  0.40000000000E+01  0.51100000000E-03 0.  1.
    9000002   -1    0    0    0    0 -0.00000000000E+00 -0.00000000000E+00  0.00000000000E+00  0.93800000000E+00  0.93800000000E+00 0. -1.
         11    1    1    2    0    0  0.16025656006E+00 -0.56642609640E-01  0.11982497080E+01  0.12102450884E+01  0.51100000000E-03 0.  1.
    9000002    1    1    2    0    0 -0.48621071772E+00 -0.12663570524E+00  0.17967668868E+00  0.10791502103E+01  0.93800000000E+00 0. -1.
         22    1    1    2    0    0  0.32595415767E+00  0.18327831488E+00  0.26220735707E+01  0.26486047013E+01  0.00000000000E+00 0.  1.
</event>
<event>
 5    1  0.6645559E+001  0.1599672E+01  0.7818608E-02  0.3353720E+00
         11   -1    0    0    0    0  0.00000000000E+00  0.00000000000E+00  0.39999999674E+01  0.40000000000E+01  0.51100000000E-03 0. -1.
    9000002   -1    0    0    0    0 -0.00000000000E+00 -0.00000000000E+00  0.00000000000E+00  0.93800000000E+00  0.93800000000E+00 0.  1.
         11    1    1    2    0    0  0.42198889865E-01  0.50557323827E+00  0.11900053576E+01  0.12936375295E+01  0.51100000000E-03 0. -1.
    9000002    1    1    2    0    0 -0.98339420533E-01 -0.11624244626E+01  0.12478662550E+01  0.19488241232E+01  0.93800000000E+00 0.  1.
         22    1    1    2    0    0  0.56140530668E-01  0.65685122438E+00  0.15621283548E+01  0.16955383473E+01  0.00000000000E+00 0.  1.
</event>
<event>
 5    1  0.6645559E+001  0.1534982E+01  0.7818608E-02  0.3427103E+00
         11   -1    0    0    0    0  0.00000000000E+00  0.00000000000E+00  0.39999999674E+01  0.40000000000E+01  0.51100000000E-03 0. -1.
    9000002   -1    0    0    0    0 -0.00000000000E+00 -0.00000000000E+00  0.00000000000E+00  0.93800000000E+00  0.93800000000E+00 0. -1.
         11    1    1    2    0    0 -0.53427694135E-01  0.14474189923E+00  0.26770781015E+00  0.30898619489E+00  0.51100000000E-03 0. -1.
    9000002    1    1    2    0    0  0.24202508877E+00  0.14905930126E+00  0.10586808488E+00  0.98582294064E+00  0.93800000000E+00 0. -1.
         22    1    1    2    0    0 -0.18859739464E+00 -0.29380120049E+00  0.36264240723E+01  0.36431908645E+01  0.00000000000E+00 0. -1.
</event>
<event>
 5    1  0.6645559E+001  0.1591459E+01  0.7818608E-02  0.3362686E+00
         11   -1    0    0    0    0  0.00000000000E+00  0.00000000000E+00  0.39999999674E+01  0.40000000000E+01  0.51100000000E-03 0. -1.
    9000002   -1    0    0    0    0 -0.00000000000E+00 -0.00000000000E+00  0.00000000000E+00  0.93800000000E+00  0.93800000000E+00 0.  1.
         11    1    1    2    0    0 -0.79465382299E-01  0.12231305321E+00  0.75720661145E+00  0.77112731991E+00  0.51100000000E-03 0. -1.
    9000002    1    1    2    0    0  0.12538687331E-01 -0.41972467683E+00  0.12621770102E+00  0.10354230686E+01  0.93800000000E+00 0.  1.
         22    1    1    2    0    0  0.66926694968E-01  0.29741162362E+00  0.31165756549E+01  0.31314496114E+01  0.00000000000E+00 0. -1.
</event>
<event>
 5    1  0.6645559E+001  0.1599664E+01  0.7818608E-02  0.3353728E+00
         11   -1    0    0    0    0  0.00000000000E+00  0.00000000000E+00  0.39999999674E+01  0.40000000000E+01  0.51100000000E-03 0.  1.
    9000002   -1    0    0    0    0 -0.00000000000E+00 -0.00000000000E+00  0.00000000000E+00  0.93800000000E+00  0.93800000000E+00 0. -1.
         11    1    1    2    0    0  0.60895253474E-01  0.15796547573E+00  0.14825317652E+01  0.14921668873E+01  0.51100000000E-03 0.  1.
    9000002    1    1    2    0    0 -0.15529896462E+00 -0.40252055396E+00  0.12609742331E+00  0.10401370703E+01  0.93800000000E+00 0. -1.
         22    1    1    2    0    0  0.94403711149E-01  0.24455507824E+00  0.23913707788E+01  0.24056960425E+01  0.00000000000E+00 0.  1.
</event>
<event>
 5    1  0.6645559E+001  0.1516641E+01  0.7818608E-02  0.3449124E+00
         11   -1    0    0    0    0  0.00000000000E+00  0.00000000000E+00  0.39999999674E+01  0.40000000000E+01  0.51100000000E-03 0. -1.
    9000002   -1    0    0    0    0 -0.00000000000E+00 -0.00000000000E+00  0.00000000000E+00  0.93800000000E+00  0.93800000000E+00 0.  1.
         11    1    1    2    0    0 -0.31087245614E-01 -0.12181435534E+00  0.77206663946E-01  0.14753400993E+00  0.51100000000E-03 0. -1.
    9000002    1    1    2    0    0  0.37968651158E+00  0.22563333201E+00  0.20741464911E+00  0.10573254391E+01  0.93800000000E+00 0.  1.
         22    1    1    2    0    0 -0.34859926596E+00 -0.10381897666E+00  0.37153786543E+01  0.37331405509E+01  0.00000000000E+00 0. -1.
</event>
<event>
 5    1  0.6645559E+001  0.1599180E+01  0.7818608E-02  0.3354254E+00
         11   -1    0    0    0    0  0.00000000000E+00  0.00000000000E+00  0.39999999674E+01  0.40000000000E+01  0.51100000000E-03 0.  1.
    9000002   -1    0    0    0    0 -0.00000000000E+00 -0.00000000000E+00  0.00000000000E+00  0.93800000000E+00  0.93800000000E+00 0.  1.
         11    1    1    2    0    0  0.18821479854E+00  0.19356310276E+00  0.14417292928E+01  0.14667907486E+01  0.51100000000E-03 0.  1.
    9000002    1    1    2    0    0 -0.53909512386E+00 -0.48742419349E+00  0.38088762853E+00  0.12462444714E+01  0.93800000000E+00 0.  1.
         22    1    1    2    0    0  0.35088032532E+00  0.29386109073E+00  0.21773830460E+01  0.22249647800E+01  0.00000000000E+00 0.  1.
</event>
<event>
 5    1  0.6645559E+001  0.1511313E+01  0.7818608E-02  0.3455629E+00
         11   -1    0    0    0    0  0.00000000000E+00  0.00000000000E+00  0.39999999674E+01  0.40000000000E+01  0.51100000000E-03 0.  1.
    9000002   -1    0    0    0    0 -0.00000000000E+00 -0.00000000000E+00  0.00000000000E+00  0.93800000000E+00  0.93800000000E+00 0. -1.
         11    1    1    2    0    0 -0.17120487624E+00  0.55387934847E+00  0.94268576295E+00  0.11066843051E+01  0.51100000000E-03 0.  1.
    9000002    1    1    2    0    0  0.18980730694E+00 -0.82325872737E+00  0.67074363200E+00  0.14295183685E+01  0.93800000000E+00 0. -1.
         22    1    1    2    0    0 -0.18602430700E-01  0.26937937890E+00  0.23865705724E+01  0.24017973264E+01  0.00000000000E+00 0.  1.
</event>
<event>
 5    1  0.6645559E+001  0.1599677E+01  0.7818608E-02  0.3353714E+00
         11   -1    0    0    0    0  0.00000000000E+00  0.00000000000E+00  0.39999999674E+01  0.40000000000E+01  0.51100000000E-03 0.  1.
    9000002   -1    0    0    0    0 -0.00000000000E+00 -0.00000000000E+00  0.00000000000E+00  0.93800000000E+00  0.93800000000E+00 0.  1.
         11    1    1    2    0    0 -0.44963159729E-01 -0.13939540814E+00  0.14386112315E+01  0.14460481672E+01  0.51100000000E-03 0. -1.
    9000002    1    1    2    0    0  0.12104376798E+00  0.37873322882E+00  0.10660274009E+00  0.10243527696E+01  0.93800000000E+00 0.  1.
         22    1    1    2    0    0 -0.76080608248E-01 -0.23933782068E+00  0.24547859958E+01  0.24675990632E+01  0.00000000000E+00 0.  1.
</event>
<event>
 5    1  0.6645559E+001  0.1599638E+01  0.7818608E-02  0.3353757E+00
         11   -1    0    0    0    0  0.00000000000E+00  0.00000000000E+00  0.39999999674E+01  0.40000000000E+01  0.51100000000E-03 0.  1.
    9000002   -1    0    0    0    0 -0.00000000000E+00 -0.00000000000E+00  0.00000000000E+00  0.93800000000E+00  0.93800000000E+00 0.  1.
         11    1    1    2    0    0  0.33110042445E-01  0.18377140412E-01  0.36247181727E+00  0.36444488422E+00  0.51100000000E-03 0.  1.
    9000002    1    1    2    0    0 -0.38192668199E+00 -0.15884207832E+00  0.11564875521E+00  0.10316576132E+01  0.93800000000E+00 0.  1.
         22    1    1    2    0    0  0.34881663954E+00  0.14046493791E+00  0.35218793949E+01  0.35418975026E+01  0.00000000000E+00 0.  1.
</event>
<event>
 5    1  0.6645559E+001  0.1599676E+01  0.7818608E-02  0.3353715E+00
         11   -1    0    0    0    0  0.00000000000E+00  0.00000000000E+00  0.39999999674E+01  0.40000000000E+01  0.51100000000E-03 0. -1.
    9000002   -1    0    0    0    0 -0.00000000000E+00 -0.00000000000E+00  0.00000000000E+00  0.93800000000E+00  0.93800000000E+00 0.  1.
         11    1    1    2    0    0 -0.19740363797E+00  0.79151535589E-04  0.13810788883E+01  0.13951155362E+01  0.51100000000E-03 0. -1.
    9000002    1    1    2    0    0  0.54513453969E+00  0.14476437934E-02  0.20507077341E+00  0.11041158382E+01  0.93800000000E+00 0.  1.
         22    1    1    2    0    0 -0.34773090172E+00 -0.15267953290E-02  0.24138503056E+01  0.24387686256E+01  0.00000000000E+00 0.  1.
</event>
<event>
 5    1  0.6645559E+001  0.1599677E+01  0.7818608E-02  0.3353714E+00
         11   -1    0    0    0    0  0.00000000000E+00  0.00000000000E+00  0.39999999674E+01  0.40000000000E+01  0.51100000000E-03 0. -1.
    9000002   -1    0    0    0    0 -0.00000000000E+00 -0.00000000000E+00  0.00000000000E+00  0.93800000000E+00  0.93800000000E+00 0. -1.
         11    1    1    2    0    0  0.63623063822E-01  0.34434934806E-01  0.75106404842E+00  0.75454034016E+00  0.51100000000E-03 0.  1.
    9000002    1    1    2    0    0 -0.32850217306E+00 -0.18023219502E+00  0.94405157069E-01  0.10144721068E+01  0.93800000000E+00 0. -1.
         22    1    1    2    0    0  0.26487910924E+00  0.14579726021E+00  0.31545307619E+01  0.31689875530E+01  0.00000000000E+00 0. -1.
</event>
<event>
 5    1  0.6645559E+001  0.1599617E+01  0.7818608E-02  0.3353780E+00
         11   -1    0    0    0    0  0.00000000000E+00  0.00000000000E+00  0.39999999674E+01  0.40000000000E+01  0.51100000000E-03 0.  1.
    9000002   -1    0    0    0    0 -0.00000000000E+00 -0.00000000000E+00  0.00000000000E+00  0.93800000000E+00  0.93800000000E+00 0.  1.
         11    1    1    2    0    0  0.78620382601E-01  0.49260303020E-01  0.92276320732E+00  0.92741573198E+00  0.51100000000E-03 0.  1.
    9000002    1    1    2    0    0 -0.30892371049E+00 -0.23236341504E+00  0.10067069985E+00  0.10195122389E+01  0.93800000000E+00 0.  1.
         22    1    1    2    0    0  0.23030332789E+00  0.18310311202E+00  0.29765660602E+01  0.29910720291E+01  0.00000000000E+00 0.  1.
</event>
<event>
 5    1  0.6645559E+001  0.1599665E+01  0.7818608E-02  0.3353727E+00
         11   -1    0    0    0    0  0.00000000000E+00  0.00000000000E+00  0.39999999674E+01  0.40000000000E+01  0.51100000000E-03 0.  1.
    9000002   -1    0    0    0    0 -0.00000000000E+00 -0.00000000000E+00  0.00000000000E+00  0.93800000000E+00  0.93800000000E+00 0. -1.
         11    1    1    2    0    0  0.53219497207E-01 -0.71915844150E-03  0.55130674316E+00  0.55387021787E+00  0.51100000000E-03 0.  1.
    9000002    1    1    2    0    0 -0.36011938269E+00 -0.54157172981E-02  0.87084305515E-01  0.10085350644E+01  0.93800000000E+00 0. -1.
         22    1    1    2    0    0  0.30689988549E+00  0.61348757396E-02  0.33616089187E+01  0.33755947178E+01  0.00000000000E+00 0. -1.
</event>
<event>
 5    1  0.6645559E+001  0.1599316E+01  0.7818608E-02  0.3354106E+00
         11   -1    0    0    0    0  0.00000000000E+00  0.00000000000E+00  0.39999999674E+01  0.40000000000E+01  0.51100000000E-03 0.  1.
    9000002   -1    0    0    0    0 -0.00000000000E+00 -0.00000000000E+00  0.00000000000E+00  0.93800000000E+00  0.93800000000E+00 0. -1.
         11    1    1    2    0    0  0.72900035019E-01  0.13112636923E-01  0.60552673748E+00  0.61004036528E+00  0.51100000000E-03 0.  1.
    9000002    1    1    2    0    0 -0.42473756369E+00  0.13750329916E-01  0.12252328488E+00  0.10370376198E+01  0.93800000000E+00 0. -1.
         22    1    1    2    0    0  0.35183752867E+00 -0.26862966839E-01  0.32719499450E+01  0.32909220149E+01  0.00000000000E+00 0.  1.
</event>
<event>
 5    1  0.6645559E+001  0.1598687E+01  0.7818608E-02  0.3354790E+00
         11   -1    0    0    0    0  0.00000000000E+00  0.00000000000E+00  0.39999999674E+01  0.40000000000E+01  0.51100000000E-03 0.  1.
    9000002   -1    0    0    0    0 -0.00000000000E+00 -0.00000000000E+00  0.00000000000E+00  0.93800000000E+00  0.93800000000E+00 0.  1.
         11    1    1    2    0    0  0.43885560066E-01 -0.30751752899E-01  0.51966492995E+00  0.52242082006E+00  0.51100000000E-03 0.  1.
    9000002    1    1    2    0    0 -0.51020222129E+00  0.20556942210E+00  0.20991960263E+00  0.11074634682E+01  0.93800000000E+00 0.  1.
         22    1    1    2    0    0  0.46631666122E+00 -0.17481766920E+00  0.32704154348E+01  0.33081157117E+01  0.00000000000E+00 0.  1.
</event>
<event>
 5    1  0.6645559E+001  0.1599563E+01  0.7818608E-02  0.3353838E+00
         11   -1    0    0    0    0  0.00000000000E+00  0.00000000000E+00  0.39999999674E+01  0.40000000000E+01  0.51100000000E-03 0.  1.
    9000002   -1    0    0    0    0 -0.00000000000E+00 -0.00000000000E+00  0.00000000000E+00  0.93800000000E+00  0.93800000000E+00 0.  1.
         11    1    1    2    0    0  0.22995313175E-02  0.59777338871E-03  0.90905222470E-02  0.94097764600E-02  0.51100000000E-03 0.  1.
    9000002    1    1    2    0    0 -0.58286622880E+00  0.68606444212E-01  0.23976472852E+00  0.11321532625E+01  0.93800000000E+00 0.  1.
         22    1    1    2    0    0  0.58056669748E+00 -0.69204217600E-01  0.37511447166E+01  0.37964369610E+01  0.00000000000E+00 0.  1.
</event>
<event>
 5    1  0.6645559E+001  0.1599238E+01  0.7818608E-02  0.3354190E+00
         11   -1    0    0    0    0  0.00000000000E+00  0.00000000000E+00  0.39999999674E+01  0.40000000000E+01  0.51100000000E-03 0. -1.
    9000002   -1    0    0    0    0 -0.00000000000E+00 -0.00000000000E+00  0.00000000000E+00  0.93800000000E+00  0.93800000000E+00 0.  1.
         11    1    1    2    0    0  0.18123743191E+00 -0.55983882104E-01  0.14698507808E+01  0.14820400739E+01  0.51100000000E-03 0. -1.
    9000002    1    1    2    0    0 -0.53119221271E+00  0.14626337686E+00  0.21012058158E+00  0.11079498188E+01  0.93800000000E+00 0.  1.
         22    1    1    2    0    0  0.34995478080E+00 -0.90279494756E-01  0.23200286050E+01  0.23480101072E+01  0.00000000000E+00 0. -1.
</event>
<event>
 5    1  0.6645559E+001  0.1599675E+01  0.7818608E-02  0.3353717E+00
         11   -1    0    0    0    0  0.00000000000E+00  0.00000000000E+00  0.39999999674E+01  0.40000000000E+01  0.51100000000E-03 0.  1.
    9000002   -1    0    0    0    0 -0.00000000000E+00 -0.00000000000E+00  0.00000000000E+00  0.93800000000E+00  0.93800000000E+00 0.  1.
         11    1    1    2    0    0  0.12353109186E+00 -0.82398513208E-01  0.14427913788E+01  0.14504125860E+01  0.51100000000E-03 0.  1.
    9000002    1    1    2    0    0 -0.32940772548E+00  0.22528608658E+00  0.10741558373E+00  0.10250099405E+01  0.93800000000E+00 0.  1.
         22    1    1    2    0    0  0.20587663362E+00 -0.14288757337E+00  0.24497930048E+01  0.24625774736E+01  0.00000000000E+00 0.  1.
</event>
<event>
 5    1  0.6645559E+001  0.1483840E+01  0.7818608E-02  0.3489969E+00
         11   -1    0    0    0    0  0.00000000000E+00  0.00000000000E+00  0.39999999674E+01  0.40000000000E+01  0.51100000000E-03 0.  1.
    9000002   -1    0    0    0    0 -0.00000000000E+00 -0.00000000000E+00  0.00000000000E+00  0.93800000000E+00  0.93800000000E+00 0. -1.
         11    1    1    2    0    0  0.83866220211E-01 -0.18453843415E+00  0.13095670473E+00  0.24132529126E+00  0.51100000000E-03 0.  1.
    9000002    1    1    2    0    0  0.20714466091E+00  0.60918036252E+00  0.42486001609E+00  0.12142321269E+01  0.93800000000E+00 0. -1.
         22    1    1    2    0    0 -0.29101088112E+00 -0.42464192838E+00  0.34441832465E+01  0.34824425819E+01  0.00000000000E+00 0.  1.
</event>
<event>
 5    1  0.6645559E+001  0.1594550E+01  0.7818608E-02  0.3359300E+00
         11   -1    0    0    0    0  0.00000000000E+00  0.00000000000E+00  0.39999999674E+01  0.40000000000E+01  0.51100000000E-03 0. -1.
    9000002   -1    0    0    0    0 -0.00000000000E+00 -0.00000000000E+00  0.00000000000E+00  0.93800000000E+00  0.93800000000E+00 0. -1.
         11    1    1    2    0    0 -0.22493431882E+00 -0.14618704642E+00  0.11854547135E+01  0.12154296521E+01  0.51100000000E-03 0. -1.
    9000002    1    1    2    0    0  0.51890662686E+00  0.29147441114E+00  0.25197338561E+00  0.11391031590E+01  0.93800000000E+00 0. -1.
         22    1    1    2    0    0 -0.29397230805E+00 -0.14528736472E+00  0.25625718683E+01  0.25834671889E+01  0.00000000000E+00 0.  1.
</event>
<event>
 5    1  0.6645559E+001  0.1599309E+01  0.7818608E-02  0.3354113E+00
         11   -1    0    0    0    0  0.00000000000E+00  0.00000000000E+00  0.39999999674E+01  0.40000000000E+01  0.51100000000E-03 0. -1.
    9000002   -1    0    0    0    0 -0.00000000000E+00 -0.00000000000E+00  0.00000000000E+00  0.93800000000E+00  0.93800000000E+00 0. -1.
         11    1    1    2    0    0 -0.36883953721E-01  0.12230864583E+00  0.12995992259E+01  0.13058630250E+01  0.51100000000E-03 0. -1.
    9000002    1    1    2    0    0  0.13676581648E+00 -0.42313705882E+00  0.13452044516E+00  0.10467519330E+01  0.93800000000E+00 0. -1.
         22    1    1    2    0    0 -0.99881862756E-01  0.30082841299E+00  0.25658802963E+01  0.25853850420E+01  0.00000000000E+00 0. -1.
</event>
<event>
 5    1  0.6645559E+001  0.1598047E+01  0.7818608E-02  0.3355486E+00
         11   -1    0    0    0    0  0.00000000000E+00  0.00000000000E+00  0.39999999674E+01  0.40000000000E+01  0.51100000000E-03 0. -1.
    9000002   -1    0    0    0    0 -0.00000000000E+00 -0.00000000000E+00  0.00000000000E+00  0.93800000000E+00  0.93800000000E+00 0.  1.
         11    1    1    2    0    0  0.73179947740E-01 -0.35457085176E-01  0.93641236535E+00  0.93993664081E+00  0.51100000000E-03 0. -1.
    9000002    1    1    2    0    0 -0.40570738669E+00  0.78503094609E-02  0.11251248008E+00  0.10281844043E+01  0.93800000000E+00 0.  1.
         22    1    1    2    0    0  0.33252743895E+00  0.27606775715E-01  0.29510751219E+01  0.29698789549E+01  0.00000000000E+00 0. -1.
</event>
<event>
 5    1  0.6645559E+001  0.1599444E+01  0.7818608E-02  0.3353967E+00
         11   -1    0    0    0    0  0.00000000000E+00  0.00000000000E+00  0.39999999674E+01  0.40000000000E+01  0.51100000000E-03 0.  1.
    9000002   -1    0    0    0    0 -0.00000000000E+00 -0.00000000000E+00  0.00000000000E+00  0.93800000000E+00  0.93800000000E+00 0.  1.
         11    1    1    2    0    0 -0.56501758318E-02 -0.19537716364E-03  0.21655244068E-01  0.22386901881E-01  0.51100000000E-03 0.  1.
    9000002    1    1    2    0    0  0.51391482649E+00  0.11262802108E+00  0.19055579481E+00  0.10922220612E+01  0.93800000000E+00 0.  1.
         22    1    1    2    0    0 -0.50826465066E+00 -0.11243264391E+00  0.37877889285E+01  0.38233910369E+01  0.00000000000E+00 0.  1.
</event>
<event>
 5    1  0.6645559E+001  0.1599676E+01  0.7818608E-02  0.3353715E+00
         11   -1    0    0    0    0  0.00000000000E+00  0.00000000000E+00  0.39999999674E+01  0.40000000000E+01  0.51100000000E-03 0. -1.
    9000002   -1    0    0    0    0 -0.00000000000E+00 -0.00000000000E+00  0.00000000000E+00  0.93800000000E+00  0.93800000000E+00 0. -1.
         11    1    1    2    0    0  0.43131668667E-01 -0.37986443772E-01  0.51911053263E+00  0.52228279405E+00  0.51100000000E-03 0. -1.
    9000002    1    1    2    0    0 -0.31985081259E+00  0.28761358726E+00  0.12530972840E+00  0.10395059624E+01  0.93800000000E+00 0. -1.
         22    1    1    2    0    0  0.27671914392E+00 -0.24962714349E+00  0.33555797063E+01  0.33762112435E+01  0.00000000000E+00 0. -1.
</event>
<event>
 5    1  0.6645559E+001  0.1599420E+01  0.7818608E-02  0.3353993E+00
         11   -1    0    0    0    0  0.00000000000E+00  0.00000000000E+00  0.39999999674E+01  0.40000000000E+01  0.51100000000E-03 0. -1.
    9000002   -1    0    0    0    0 -0.00000000000E+00 -0.00000000000E+00  0.00000000000E+00  0.93800000000E+00  0.93800000000E+00 0. -1.
         11    1    1    2    0    0  0.27834324834E-01 -0.14077435277E+00  0.10623864773E+01  0.10720342608E+01  0.51100000000E-03 0. -1.
    9000002    1    1    2    0    0 -0.98718661164E-01  0.44807681731E+00  0.14339236293E+00  0.10540035949E+01  0.93800000000E+00 0. -1.
         22    1    1    2    0    0  0.70884336330E-01 -0.30730246454E+00  0.27942211271E+01  0.28119621443E+01  0.00000000000E+00 0. -1.
</event>
<event>
 5    1  0.6645559E+001  0.1599674E+01  0.7818608E-02  0.3353717E+00
         11   -1    0    0    0    0  0.00000000000E+00  0.00000000000E+00  0.39999999674E+01  0.40000000000E+01  0.51100000000E-03 0. -1.
    9000002   -1    0    0    0    0 -0.00000000000E+00 -0.00000000000E+00  0.00000000000E+00  0.93800000000E+00  0.93800000000E+00 0.  1.
         11    1    1    2    0    0  0.10469122776E+00  0.13589394254E+00  0.14627840002E+01  0.14728084428E+01  0.51100000000E-03 0. -1.
    9000002    1    1    2    0    0 -0.27804139695E+00 -0.36297038866E+00  0.14214159403E+00  0.10531394752E+01  0.93800000000E+00 0.  1.
         22    1    1    2    0    0  0.17335016918E+00  0.22707644613E+00  0.23950743731E+01  0.24120520820E+01  0.00000000000E+00 0. -1.
</event>
<event>
 5    1  0.6645559E+001  0.1599676E+01  0.7818608E-02  0.3353715E+00
         11   -1    0    0    0    0  0.00000000000E+00  0.00000000000E+00  0.39999999674E+01  0.40000000000E+01  0.51100000000E-03 0.  1.
    9000002   -1    0    0    0    0 -0.00000000000E+00 -0.00000000000E+00  0.00000000000E+00  0.93800000000E+00  0.93800000000E+00 0. -1.
         11    1    1    2    0    0 -0.27516237313E-01  0.10925576029E-01  0.29891688955E+00  0.30037989198E+00  0.51100000000E-03 0. -1.
    9000002    1    1    2    0    0  0.36492531764E+00 -0.14558590123E+00  0.10402979743E+00  0.10222680377E+01  0.93800000000E+00 0. -1.
         22    1    1    2    0    0 -0.33740908033E+00  0.13466032520E+00  0.35970532804E+01  0.36153520703E+01  0.00000000000E+00 0.  1.
</event>
<event>
 5    1  0.6645559E+001  0.1599571E+01  0.7818608E-02  0.3353829E+00
         11   -1    0    0    0    0  0.00000000000E+00  0.00000000000E+00  0.39999999674E+01  0.40000000000E+01  0.51100000000E-03 0.  1.
    9000002   -1    0    0    0    0 -0.00000000000E+00 -0.00000000000E+00  0.00000000000E+00  0.93800000000E+00  0.93800000000E+00 0.  1.
         11    1    1    2    0    0  0.99666885223E-01  0.42136241347E-01  0.11683737210E+01  0.11733739233E+01  0.51100000000E-03 0.  1.
    9000002    1    1    2    0    0 -0.36034719561E+00 -0.11460003983E+00  0.96269722100E-01  0.10159208286E+01  0.93800000000E+00 0.  1.
         22    1    1    2    0    0  0.26068031038E+00  0.72463798483E-01  0.27353565243E+01  0.27487052481E+01  0.00000000000E+00 0.  1.
</event>
<event>
 5    1  0.6645559E+001  0.1599538E+01  0.7818608E-02  0.3353865E+00
         11   -1    0    0    0    0  0.00000000000E+00  0.00000000000E+00  0.39999999674E+01  0.40000000000E+01  0.51100000000E-03 0. -1.
    9000002   -1    0    0    0    0 -0.00000000000E+00 -0.00000000000E+00  0.00000000000E+00  0.93800000000E+00  0.93800000000E+00 0. -1.
         11    1    1    2    0    0 -0.24895338968E-01  0.70475049883E-01  0.89217545017E+00  0.89530095810E+00  0.51100000000E-03 0. -1.
    9000002    1    1    2    0    0  0.14172614834E+00 -0.34925197473E+00  0.95664394500E-01  0.10154107146E+01  0.93800000000E+00 0. -1.
         22    1    1    2    0    0 -0.11683080937E+00  0.27877692485E+00  0.30121601227E+01  0.30272883273E+01  0.00000000000E+00 0. -1.
</event>
<event>
 5    1  0.6645559E+001  0.1552676E+01  0.7818608E-02  0.3406386E+00
         11   -1    0    0    0    0  0.00000000000E+00  0.00000000000E+00  0.39999999674E+01  0.40000000000E+01  0.51100000000E-03 0.  1.
    9000002   -1    0    0    0    0 -0.00000000000E+00 -0.00000000000E+00  0.00000000000E+00  0.93800000000E+00  0.93800000000E+00 0. -1.
         11    1    1    2    0    0 -0.12842365102E+00 -0.34486440125E-02  0.37581087647E+00  0.39716319477E+00  0.51100000000E-03 0.  1.
    9000002    1    1    2    0    0 -0.27336227684E+00  0.56193576710E-01  0.89195894417E-01  0.98269250534E+00  0.93800000000E+00 0. -1.
         22    1    1    2    0    0  0.40178592786E+00 -0.52744932697E-01  0.35349931965E+01  0.35581442999E+01  0.00000000000E+00 0.  1.
</event>
<event>
 5    1  0.6645559E+001  0.1599629E+01  0.7818608E-02  0.3353766E+00
         11   -1    0    0    0    0  0.00000000000E+00  0.00000000000E+00  0.39999999674E+01  0.40000000000E+01  0.51100000000E-03 0. -1.
    9000002   -1    0    0    0    0 -0.00000000000E+00 -0.00000000000E+00  0.00000000000E+00  0.93800000000E+00  0.93800000000E+00 0.  1.
         11    1    1    2    0    0  0.57095459230E-04 -0.19106987102E+00  0.12466508450E+01  0.12612082657E+01  0.51100000000E-03 0. -1.
    9000002    1    1    2    0    0 -0.23148807606E-01  0.57211312979E+00  0.22749196336E+00  0.11222503704E+01  0.93800000000E+00 0.  1.
         22    1    1    2    0    0  0.23091712147E-01 -0.38104325877E+00  0.25258571590E+01  0.25545413639E+01  0.00000000000E+00 0.  1.
</event>
<event>
 5    1  0.6645559E+001  0.1599580E+01  0.7818608E-02  0.3353820E+00
         11   -1    0    0    0    0  0.00000000000E+00  0.00000000000E+00  0.39999999674E+01  0.40000000000E+01  0.51100000000E-03 0. -1.
    9000002   -1    0    0    0    0 -0.00000000000E+00 -0.00000000000E+00  0.00000000000E+00  0.93800000000E+00  0.93800000000E+00 0. -1.
         11    1    1    2    0    0  0.39431473071E-01 -0.11899778961E+00  0.10055338225E+01  0.10133182345E+01  0.51100000000E-03 0. -1.
    9000002    1    1    2    0    0 -0.12211201637E+00  0.48161499708E+00  0.16899099886E+00  0.10748331534E+01  0.93800000000E+00 0. -1.
         22    1    1    2    0    0  0.82680543296E-01 -0.36261720746E+00  0.28254751460E+01  0.28498486121E+01  0.00000000000E+00 0. -1.
</event>
<event>
 5    1  0.6645559E+001  0.1599674E+01  0.7818608E-02  0.3353717E+00
         11   -1    0    0    0    0  0.00000000000E+00  0.00000000000E+00  0.39999999674E+01  0.40000000000E+01  0.51100000000E-03 0. -1.
    9000002   -1    0    0    0    0 -0.00000000000E+00 -0.00000000000E+00  0.00000000000E+00  0.93800000000E+00  0.93800000000E+00 0. -1.
         11    1    1    2    0    0  0.13907854675E-01  0.19558008425E-01  0.20871898376E+00  0.21009478675E+00  0.51100000000E-03 0.  1.
    9000002    1    1    2    0    0 -0.24361744671E+00 -0.36544726995E+00  0.13081238770E+00  0.10439621872E+01  0.93800000000E+00 0. -1.
         22    1    1    2    0    0  0.22970959203E+00  0.34588926152E+00  0.36604685959E+01  0.36839430261E+01  0.00000000000E+00 0. -1.
</event>
<event>
 5    1  0.6645559E+001  0.1597079E+01  0.7818608E-02  0.3356540E+00
         11   -1    0    0    0    0  0.00000000000E+00  0.00000000000E+00  0.39999999674E+01  0.40000000000E+01  0.51100000000E-03 0. -1.
    9000002   -1    0    0    0    0 -0.00000000000E+00 -0.00000000000E+00  0.00000000000E+00  0.93800000000E+00  0.93800000000E+00 0. -1.
         11    1    1    2    0    0  0.12081254277E+00 -0.85954902514E-01  0.91455228540E+00  0.92649342124E+00  0.51100000000E-03 0. -1.
    9000002    1    1    2    0    0 -0.31222133009E+00  0.46554710529E+00  0.21995217511E+00  0.11146475791E+01  0.93800000000E+00 0. -1.
         22    1    1    2    0    0  0.19140878732E+00 -0.37959220277E+00  0.28654955069E+01  0.28968589997E+01  0.00000000000E+00 0. -1.
</event>
<event>
 5    1  0.6645559E+001  0.1599677E+01  0.7818608E-02  0.3353714E+00
         11   -1    0    0    0    0  0.00000000000E+00  0.00000000000E+00  0.39999999674E+01  0.40000000000E+01  0.51100000000E-03 0. -1.
    9000002   -1    0    0    0    0 -0.00000000000E+00 -0.00000000000E+00  0.00000000000E+00  0.93800000000E+00  0.93800000000E+00 0. -1.
         11    1    1    2    0    0  0.90349290854E-01 -0.96618341382E-01  0.13793748186E+01  0.13857031607E+01  0.51100000000E-03 0. -1.
    9000002    1    1    2    0    0 -0.25757938266E+00  0.27441173981E+00  0.95265712932E-01  0.10151691964E+01  0.93800000000E+00 0. -1.
         22    1    1    2    0    0  0.16723009180E+00 -0.17779339843E+00  0.25253594358E+01  0.25371276429E+01  0.00000000000E+00 0. -1.
</event>
<event>
 5    1  0.6645559E+001  0.1590122E+01  0.7818608E-02  0.3364155E+00
         11   -1    0    0    0    0  0.00000000000E+00  0.00000000000E+00  0.39999999674E+01  0.40000000000E+01  0.51100000000E-03 0. -1.
    9000002   -1    0    0    0    0 -0.00000000000E+00 -0.00000000000E+00  0.00000000000E+00  0.93800000000E+00  0.93800000000E+00 0.  1.
         11    1    1    2    0    0 -0.66422591764E-02 -0.18085665460E-01  0.13796663682E+01  0.13798009855E+01  0.51100000000E-03 0. -1.
    9000002    1    1    2    0    0  0.10916218149E+00 -0.25633199538E+00  0.59119506097E-01  0.98028648349E+00  0.93800000000E+00 0.  1.
         22    1    1    2    0    0 -0.10251992231E+00  0.27441766084E+00  0.25612140930E+01  0.25779125310E+01  0.00000000000E+00 0. -1.
</event>
<event>
 5    1  0.6645559E+001  0.1529366E+01  0.7818608E-02  0.3433786E+00
         11   -1    0    0    0    0  0.00000000000E+00  0.00000000000E+00  0.39999999674E+01  0.40000000000E+01  0.51100000000E-03 0.  1.
    9000002   -1    0    0    0    0 -0.00000000000E+00 -0.00000000000E+00  0.00000000000E+00  0.93800000000E+00  0.93800000000E+00 0. -1.
         11    1    1    2    0    0  0.13211964623E+00 -0.18746870006E+00  0.62005863062E+00  0.66111502853E+00  0.51100000000E-03 0.  1.
    9000002    1    1    2    0    0 -0.27232948638E+00 -0.19613975715E+00  0.13383097207E+00  0.10051810198E+01  0.93800000000E+00 0. -1.
         22    1    1    2    0    0  0.14020984015E+00  0.38360845721E+00  0.32461103647E+01  0.32717039517E+01  0.00000000000E+00 0.  1.
</event>
<event>
 5    1  0.6645559E+001  0.1598861E+01  0.7818608E-02  0.3354601E+00
         11   -1    0    0    0    0  0.00000000000E+00  0.00000000000E+00  0.39999999674E+01  0.40000000000E+01  0.51100000000E-03 0. -1.
    9000002   -1    0    0    0    0 -0.00000000000E+00 -0.00000000000E+00  0.00000000000E+00  0.93800000000E+00  0.93800000000E+00 0.  1.
         11    1    1    2    0    0  0.19929039084E-02  0.44822792909E-01  0.41218382377E+00  0.41461888540E+00  0.51100000000E-03 0. -1.
    9000002    1    1    2    0    0  0.15464294287E+00 -0.32528366655E+00  0.87742005754E-01  0.10085963331E+01  0.93800000000E+00 0.  1.
         22    1    1    2    0    0 -0.15663584678E+00  0.28046087365E+00  0.35000741378E+01  0.35147847815E+01  0.00000000000E+00 0. -1.
</event>
<event>
 5    1  0.6645559E+001  0.1597093E+01  0.7818608E-02  0.3356524E+00
         11   -1    0    0    0    0  0.00000000000E+00  0.00000000000E+00  0.39999999674E+01  0.40000000000E+01  0.51100000000E-03 0. -1.
    9000002   -1    0    0    0    0 -0.00000000000E+00 -0.00000000000E+00  0.00000000000E+00  0.93800000000E+00  0.93800000000E+00 0.  1.
         11    1    1    2    0    0  0.43726114385E-01  0.77890739663E-01  0.41237482730E+00  0.42193862079E+00  0.51100000000E-03 0. -1.
    9000002    1    1    2    0    0 -0.43601273335E+00 -0.36284730630E+00  0.22547286102E+00  0.11191279115E+01  0.93800000000E+00 0.  1.
         22    1    1    2    0    0  0.39228661896E+00  0.28495656664E+00  0.33621522790E+01  0.33969334677E+01  0.00000000000E+00 0. -1.
</event>
<event>
 5    1  0.6645559E+001  0.1537036E+01  0.7818608E-02  0.3424672E+00
         11   -1    0    0    0    0  0.00000000000E+00  0.00000000000E+00  0.39999999674E+01  0.40000000000E+01  0.51100000000E-03 0. -1.
    9000002   -1    0    0    0    0 -0.00000000000E+00 -0.00000000000E+00  0.00000000000E+00  0.93800000000E+00  0.93800000000E+00 0.  1.
         11    1    1    2    0    0 -0.70147785346E-01  0.16431408801E+00  0.39330786359E+00  0.43198514788E+00  0.51100000000E-03 0. -1.
    9000002    1    1    2    0    0 -0.26214884721E+00 -0.72377248141E-01  0.99240752979E-01  0.98165839842E+00  0.93800000000E+00 0.  1.
         22    1    1    2    0    0  0.33229663256E+00 -0.91936839869E-01  0.35074513508E+01  0.35243564537E+01  0.00000000000E+00 0. -1.
</event>
<event>
 5    1  0.6645559E+001  0.1469977E+01  0.7818608E-02  0.3507823E+00
         11   -1    0    0    0    0  0.00000000000E+00  0.00000000000E+00  0.39999999674E+01  0.40000000000E+01  0.51100000000E-03 0. -1.
    9000002   -1    0    0    0    0 -0.00000000000E+00 -0.00000000000E+00  0.00000000000E+00  0.93800000000E+00  0.93800000000E+00 0. -1.
         11    1    1    2    0    0 -0.28119151111E+00 -0.40626154710E+00  0.13978673280E+01  0.14826160792E+01  0.51100000000E-03 0. -1.
    9000002    1    1    2    0    0  0.34510201352E+00  0.42672480661E-01  0.19387201311E+00  0.10189929822E+01  0.93800000000E+00 0. -1.
         22    1    1    2    0    0 -0.63910502405E-01  0.36358906644E+00  0.24082606262E+01  0.24363909386E+01  0.00000000000E+00 0. -1.
</event>
<event>
 5    1  0.6645559E+001  0.1542726E+01  0.7818608E-02  0.3417974E+00
         11   -1    0    0    0    0  0.00000000000E+00  0.00000000000E+00  0.39999999674E+01  0.40000000000E+01  0.51100000000E-03 0.  1.
    9000002   -1    0    0    0    0 -0.00000000000E+00 -0.00000000000E+00  0.00000000000E+00  0.93800000000E+00  0.93800000000E+00 0.  1.
         11    1    1    2    0    0 -0.31972092688E+00  0.20666140379E-01  0.12684819763E+01  0.13083177541E+01  0.51100000000E-03 0.  1.
    9000002    1    1    2    0    0  0.17080618110E+00 -0.23592445702E+00  0.10232976888E+00  0.98749707975E+00  0.93800000000E+00 0.  1.
         22    1    1    2    0    0  0.14891474578E+00  0.21525831664E+00  0.26291882222E+01  0.26421851661E+01  0.00000000000E+00 0.  1.
</event>
<event>
 5    1  0.6645559E+001  0.1599675E+01  0.7818608E-02  0.3353716E+00
         11   -1    0    0    0    0  0.00000000000E+00  0.00000000000E+00  0.39999999674E+01  0.40000000000E+01  0.51100000000E-03 0. -1.
    9000002   -1    0    0    0    0 -0.00000000000E+00 -0.00000000000E+00  0.00000000000E+00  0.93800000000E+00  0.93800000000E+00 0.  1.
         11    1    1    2    0    0 -0.11213866803E-01  0.10346006813E+00  0.95840403758E+00  0.96403749765E+00  0.51100000000E-03 0. -1.
    9000002    1    1    2    0    0  0.40329572166E-01 -0.42138620405E+00  0.12124529723E+00  0.10362129267E+01  0.93800000000E+00 0.  1.
         22    1    1    2    0    0 -0.29115705363E-01  0.31792613592E+00  0.29203506326E+01  0.29377495757E+01  0.00000000000E+00 0. -1.
</event>
<event>
 5    1  0.6645559E+001  0.1594853E+01  0.7818608E-02  0.3358968E+00
         11   -1    0    0    0    0  0.00000000000E+00  0.00000000000E+00  0.39999999674E+01  0.40000000000E+01  0.51100000000E-03 0. -1.
    9000002   -1    0    0    0    0 -0.00000000000E+00 -0.00000000000E+00  0.00000000000E+00  0.93800000000E+00  0.93800000000E+00 0.  1.
         11    1    1    2    0    0 -0.10665954533E+00 -0.18993790160E+00  0.11092815444E+01  0.11304682530E+01  0.51100000000E-03 0. -1.
    9000002    1    1    2    0    0  0.13978551123E+00  0.51662381465E+00  0.20180062777E+00  0.10986389982E+01  0.93800000000E+00 0.  1.
         22    1    1    2    0    0 -0.33125965897E-01 -0.32668591304E+00  0.26889177952E+01  0.27088927488E+01  0.00000000000E+00 0. -1.
</event>
<event>
 5    1  0.6645559E+001  0.1599109E+01  0.7818608E-02  0.3354331E+00
         11   -1    0    0    0    0  0.00000000000E+00  0.00000000000E+00  0.39999999674E+01  0.40000000000E+01  0.51100000000E-03 0.  1.
    9000002   -1    0    0    0    0 -0.00000000000E+00 -0.00000000000E+00  0.00000000000E+00  0.93800000000E+00  0.93800000000E+00 0. -1.
         11    1    1    2    0    0  0.69006885566E-02 -0.31013356565E-02  0.17739124526E+00  0.17755323934E+00  0.51100000000E-03 0.  1.
    9000002    1    1    2    0    0 -0.35526462385E+00 -0.98937257046E-01  0.91848200743E-01  0.10120679946E+01  0.93800000000E+00 0. -1.
         22    1    1    2    0    0  0.34836393530E+00  0.10203859270E+00  0.37307605214E+01  0.37483787660E+01  0.00000000000E+00 0.  1.
</event>
<event>
 5    1  0.6645559E+001  0.1589285E+01  0.7818608E-02  0.3365075E+00
         11   -1    0    0    0    0  0.00000000000E+00  0.00000000000E+00  0.39999999674E+01  0.40000000000E+01  0.51100000000E-03 0. -1.
    9000002   -1    0    0    0    0 -0.00000000000E+00 -0.00000000000E+00  0.00000000000E+00  0.93800000000E+00  0.93800000000E+00 0.  1.
         11    1    1    2    0    0  0.30109969465E-02  0.12004416466E+00  0.21690346381E+00  0.24792547530E+00  0.51100000000E-03 0. -1.
    9000002    1    1    2    0    0  0.42503314166E-01 -0.87706575455E+00  0.60032787162E+00  0.14181990068E+01  0.93800000000E+00 0.  1.
         22    1    1    2    0    0 -0.45514311113E-01  0.75702158989E+00  0.31827686319E+01  0.32718755179E+01  0.00000000000E+00 0. -1.
</event>
<event>
 5    1  0.6645559E+001  0.1559522E+01  0.7818608E-02  0.3398503E+00
         11   -1    0    0    0    0  0.00000000000E+00  0.00000000000E+00  0.39999999674E+01  0.40000000000E+01  0.51100000000E-03 0.  1.
    9000002   -1    0    0    0    0 -0.00000000000E+00 -0.00000000000E+00  0.00000000000E+00  0.93800000000E+00  0.93800000000E+00 0. -1.
         11    1    1    2    0    0  0.82818680373E-01  0.14803012911E+00  0.92498047503E+00  0.94040469653E+00  0.51100000000E-03 0.  1.
    9000002    1    1    2    0    0 -0.13488973848E+00  0.21328682085E+00  0.73689149515E-01  0.97414608774E+00  0.93800000000E+00 0. -1.
         22    1    1    2    0    0  0.52071058109E-01 -0.36131694997E+00  0.30013303428E+01  0.30234492157E+01  0.00000000000E+00 0.  1.
</event>
<event>
 5    1  0.6645559E+001  0.1598903E+01  0.7818608E-02  0.3354555E+00
         11   -1    0    0    0    0  0.00000000000E+00  0.00000000000E+00  0.39999999674E+01  0.40000000000E+01  0.51100000000E-03 0. -1.
    9000002   -1    0    0    0    0 -0.00000000000E+00 -0.00000000000E+00  0.00000000000E+00  0.93800000000E+00  0.93800000000E+00 0.  1.
         11    1    1    2    0    0  0.84883639563E-01 -0.49950449680E-01  0.63558520820E+00  0.64317112629E+00  0.51100000000E-03 0. -1.
    9000002    1    1    2    0    0 -0.38632834704E+00  0.22402894685E+00  0.13605490647E+00  0.10477564117E+01  0.93800000000E+00 0.  1.
         22    1    1    2    0    0  0.30144470748E+00 -0.17407849717E+00  0.32283598527E+01  0.32470724620E+01  0.00000000000E+00 0. -1.
</event>
<event>
 5    1  0.6645559E+001  0.1598235E+01  0.7818608E-02  0.3355282E+00
         11   -1    0    0    0    0  0.00000000000E+00  0.00000000000E+00  0.39999999674E+01  0.40000000000E+01  0.51100000000E-03 0.  1.
    9000002   -1    0    0    0    0 -0.00000000000E+00 -0.00000000000E+00  0.00000000000E+00  0.93800000000E+00  0.93800000000E+00 0.  1.
         11    1    1    2    0    0 -0.49824162360E-01 -0.10981314156E+00  0.11414255101E+01  0.11477777788E+01  0.51100000000E-03 0.  1.
    9000002    1    1    2    0    0  0.72069451976E-01  0.47312680337E+00  0.15752127356E+00  0.10647534595E+01  0.93800000000E+00 0.  1.
         22    1    1    2    0    0 -0.22245289616E-01 -0.36331366181E+00  0.27010531837E+01  0.27254687617E+01  0.00000000000E+00 0.  1.
</event>
<event>
 5    1  0.6645559E+001  0.1599675E+01  0.7818608E-02  0.3353716E+00
         11   -1    0    0    0    0  0.00000000000E+00  0.00000000000E+00  0.39999999674E+01  0.40000000000E+01  0.51100000000E-03 0.  1.
    9000002   -1    0    0    0    0 -0.00000000000E+00 -0.00000000000E+00  0.00000000000E+00  0.93800000000E+00  0.93800000000E+00 0. -1.
         11    1    1    2    0    0 -0.22346101568E-01  0.31917333454E-01  0.40775740352E+00  0.40961497247E+00  0.51100000000E-03 0.  1.
    9000002    1    1    2    0    0  0.20862646213E+00 -0.31355418482E+00  0.95399389671E-01  0.10152764506E+01  0.93800000000E+00 0. -1.
         22    1    1    2    0    0 -0.18628036057E+00  0.28163685136E+00  0.34968431742E+01  0.35131085770E+01  0.00000000000E+00 0.  1.
</event>
<event>
 5    1  0.6645559E+001  0.1599397E+01  0.7818608E-02  0.3354018E+00
         11   -1    0    0    0    0  0.00000000000E+00  0.00000000000E+00  0.39999999674E+01  0.40000000000E+01  0.51100000000E-03 0. -1.
    9000002   -1    0    0    0    0 -0.00000000000E+00 -0.00000000000E+00  0.00000000000E+00  0.93800000000E+00  0.93800000000E+00 0. -1.
         11    1    1    2    0    0  0.19955145640E+00  0.34700759473E-01  0.12085967289E+01  0.12254514437E+01  0.51100000000E-03 0. -1.
    9000002    1    1    2    0    0 -0.64312934257E+00 -0.57552242521E-01  0.29419522447E+00  0.11761472875E+01  0.93800000000E+00 0. -1.
         22    1    1    2    0    0  0.44357788617E+00  0.22851483049E-01  0.24972080139E+01  0.25364012688E+01  0.00000000000E+00 0. -1.
</event>
<event>
 5    1  0.6645559E+001  0.1599676E+01  0.7818608E-02  0.3353715E+00
         11   -1    0    0    0    0  0.00000000000E+00  0.00000000000E+00  0.39999999674E+01  0.40000000000E+01  0.51100000000E-03 0. -1.
    9000002   -1    0    0    0    0 -0.00000000000E+00 -0.00000000000E+00  0.00000000000E+00  0.93800000000E+00  0.93800000000E+00 0. -1.
         11    1    1    2    0    0 -0.22493254640E+00  0.73277777936E-01  0.13825785923E+01  0.14026717749E+01  0.51100000000E-03 0. -1.
    9000002    1    1    2    0    0  0.60649505053E+00 -0.19731757326E+00  0.28620939435E+00  0.11698419929E+01  0.93800000000E+00 0. -1.
         22    1    1    2    0    0 -0.38156250413E+00  0.12403979532E+00  0.23312119807E+01  0.23654862321E+01  0.00000000000E+00 0. -1.
</event>
<event>
 5    1  0.6645559E+001  0.1599661E+01  0.7818608E-02  0.3353731E+00
         11   -1    0    0    0    0  0.00000000000E+00  0.00000000000E+00  0.39999999674E+01  0.40000000000E+01  0.51100000000E-03 0. -1.
    9000002   -1    0    0    0    0 -0.00000000000E+00 -0.00000000000E+00  0.00000000000E+00  0.93800000000E+00  0.93800000000E+00 0.  1.
         11    1    1    2    0    0 -0.99315376173E-02 -0.19279820290E-01  0.13488272595E+00  0.13661609638E+00  0.51100000000E-03 0. -1.
    9000002    1    1    2    0    0  0.22907158667E+00  0.54340260990E+00  0.24212095334E+00  0.11341193695E+01  0.93800000000E+00 0.  1.
         22    1    1    2    0    0 -0.21914004906E+00 -0.52412278961E+00  0.36229962881E+01  0.36672645341E+01  0.00000000000E+00 0. -1.
</event>
<event>
 5    1  0.6645559E+001  0.1570376E+01  0.7818608E-02  0.3386158E+00
         11   -1    0    0    0    0  0.00000000000E+00  0.00000000000E+00  0.39999999674E+01  0.40000000000E+01  0.51100000000E-03 0.  1.
    9000002   -1    0    0    0    0 -0.00000000000E+00 -0.00000000000E+00  0.00000000000E+00  0.93800000000E+00  0.93800000000E+00 0. -1.
         11    1    1    2    0    0  0.15469450884E+00  0.33543716526E+00  0.13293926176E+01  0.13797584846E+01  0.51100000000E-03 0.  1.
    9000002    1    1    2    0    0 -0.55284190833E+00 -0.38866019694E+00  0.35689805581E+00  0.12099219589E+01  0.93800000000E+00 0. -1.
         22    1    1    2    0    0  0.39814739949E+00  0.53223031675E-01  0.23137092939E+01  0.23483195566E+01  0.00000000000E+00 0.  1.
</event>
<event>
 5    1  0.6645559E+001  0.1599519E+01  0.7818608E-02  0.3353885E+00
         11   -1    0    0    0    0  0.00000000000E+00  0.00000000000E+00  0.39999999674E+01  0.40000000000E+01  0.51100000000E-03 0. -1.
    9000002   -1    0    0    0    0 -0.00000000000E+00 -0.00000000000E+00  0.00000000000E+00  0.93800000000E+00  0.93800000000E+00 0.  1.
         11    1    1    2    0    0  0.15968326008E+00 -0.54614044970E-01  0.84055586720E+00  0.85733066227E+00  0.51100000000E-03 0. -1.
    9000002    1    1    2    0    0 -0.66315491577E+00  0.19203373582E+00  0.33995596928E+00  0.12132870473E+01  0.93800000000E+00 0.  1.
         22    1    1    2    0    0  0.50347165569E+00 -0.13741969085E+00  0.28194881309E+01  0.28673822905E+01  0.00000000000E+00 0.  1.
</event>
<event>
 5    1  0.6645559E+001  0.1599440E+01  0.7818608E-02  0.3353971E+00
         11   -1    0    0    0    0  0.00000000000E+00  0.00000000000E+00  0.39999999674E+01  0.40000000000E+01  0.51100000000E-03 0. -1.
    9000002   -1    0    0    0    0 -0.00000000000E+00 -0.00000000000E+00  0.00000000000E+00  0.93800000000E+00  0.93800000000E+00 0. -1.
         11    1    1    2    0    0 -0.13031766699E-01  0.19132823783E-01  0.21165016731E+00  0.21291300179E+00  0.51100000000E-03 0. -1.
    9000002    1    1    2    0    0  0.34112332410E+00 -0.23578306964E+00  0.11641196088E+00  0.10321601246E+01  0.93800000000E+00 0. -1.
         22    1    1    2    0    0 -0.32809155741E+00  0.21665024586E+00  0.36719378392E+01  0.36929268736E+01  0.00000000000E+00 0. -1.
</event>
<event>
 5    1  0.6645559E+001  0.1599677E+01  0.7818608E-02  0.3353714E+00
         11   -1    0    0    0    0  0.00000000000E+00  0.00000000000E+00  0.39999999674E+01  0.40000000000E+01  0.51100000000E-03 0.  1.
    9000002   -1    0    0    0    0 -0.00000000000E+00 -0.00000000000E+00  0.00000000000E+00  0.93800000000E+00  0.93800000000E+00 0.  1.
         11    1    1    2    0    0  0.66874141384E-01 -0.62444321026E-02  0.62326629700E+00  0.62687501292E+00  0.51100000000E-03 0.  1.
    9000002    1    1    2    0    0 -0.41576469272E+00  0.40777297011E-01  0.11799515900E+00  0.10335811169E+01  0.93800000000E+00 0.  1.
         22    1    1    2    0    0  0.34889055134E+00 -0.34532864908E-01  0.32587385114E+01  0.32775438702E+01  0.00000000000E+00 0.  1.
</event>
<event>
 5    1  0.6645559E+001  0.1502849E+01  0.7818608E-02  0.3466064E+00
         11   -1    0    0    0    0  0.00000000000E+00  0.00000000000E+00  0.39999999674E+01  0.40000000000E+01  0.51100000000E-03 0. -1.
    9000002   -1    0    0    0    0 -0.00000000000E+00 -0.00000000000E+00  0.00000000000E+00  0.93800000000E+00  0.93800000000E+00 0. -1.
         11    1    1    2    0    0  0.25811931952E+00 -0.29208345569E+00  0.13465146585E+01  0.14017989567E+01  0.51100000000E-03 0. -1.
    9000002    1    1    2    0    0 -0.56072668500E+00 -0.17795039648E+00  0.34311233423E+00  0.11591595372E+01  0.93800000000E+00 0. -1.
         22    1    1    2    0    0  0.30260736548E+00  0.47003385218E+00  0.23103729746E+01  0.23770415061E+01  0.00000000000E+00 0. -1.
</event>
<event>
 5    1  0.6645559E+001  0.1552503E+01  0.7818608E-02  0.3406585E+00
         11   -1    0    0    0    0  0.00000000000E+00  0.00000000000E+00  0.39999999674E+01  0.40000000000E+01  0.51100000000E-03 0. -1.
    9000002   -1    0    0    0    0 -0.00000000000E+00 -0.00000000000E+00  0.00000000000E+00  0.93800000000E+00  0.93800000000E+00 0.  1.
         11    1    1    2    0    0  0.40077435857E+00  0.23874742032E+00  0.11215950094E+01  0.12147411425E+01  0.51100000000E-03 0. -1.
    9000002    1    1    2    0    0 -0.69107305975E+00 -0.22017965125E+00  0.43559437752E+00  0.12631894215E+01  0.93800000000E+00 0.  1.
         22    1    1    2    0    0  0.29029870119E+00 -0.18567769073E-01  0.24428105805E+01  0.24600694360E+01  0.00000000000E+00 0. -1.
</event>
<event>
 5    1  0.6645559E+001  0.1501334E+01  0.7818608E-02  0.3467945E+00
         11   -1    0    0    0    0  0.00000000000E+00  0.00000000000E+00  0.39999999674E+01  0.40000000000E+01  0.51100000000E-03 0.  1.
    9000002   -1    0    0    0    0 -0.00000000000E+00 -0.00000000000E+00  0.00000000000E+00  0.93800000000E+00  0.93800000000E+00 0.  1.
         11    1    1    2    0    0 -0.91934888965E-01  0.12254756215E+00  0.18959359573E+00  0.24375381322E+00  0.51100000000E-03 0.  1.
    9000002    1    1    2    0    0 -0.13220337382E+00  0.35353799252E+00  0.18133789833E+00  0.10272264977E+01  0.93800000000E+00 0.  1.
         22    1    1    2    0    0  0.22413826279E+00 -0.47608555467E+00  0.36290684733E+01  0.36670196891E+01  0.00000000000E+00 0.  1.
</event>
<event>
 5    1  0.6645559E+001  0.1599425E+01  0.7818608E-02  0.3353988E+00
         11   -1    0    0    0    0  0.00000000000E+00  0.00000000000E+00  0.39999999674E+01  0.40000000000E+01  0.51100000000E-03 0. -1.
    9000002   -1    0    0    0    0 -0.00000000000E+00 -0.00000000000E+00  0.00000000000E+00  0.93800000000E+00  0.93800000000E+00 0.  1.
         11    1    1    2    0    0  0.91991709392E-01 -0.29236241734E-01  0.84887939940E+00  0.85434988633E+00  0.51100000000E-03 0. -1.
    9000002    1    1    2    0    0 -0.35482424185E+00  0.16081679970E+00  0.10243992581E+00  0.10208331029E+01  0.93800000000E+00 0.  1.
         22    1    1    2    0    0  0.26283253245E+00 -0.13158055797E+00  0.30486806421E+01  0.30628170107E+01  0.00000000000E+00 0. -1.
</event>
<event>
 5    1  0.6645559E+001  0.1599676E+01  0.7818608E-02  0.3353715E+00
         11   -1    0    0    0    0  0.00000000000E+00  0.00000000000E+00  0.39999999674E+01  0.40000000000E+01  0.51100000000E-03 0.  1.
    9000002   -1    0    0    0    0 -0.00000000000E+00 -0.00000000000E+00  0.00000000000E+00  0.93800000000E+00  0.93800000000E+00 0.  1.
         11    1    1    2    0    0  0.40213723359E-01 -0.77968904902E-01  0.88149203717E+00  0.88584692040E+00  0.51100000000E-03 0.  1.
    9000002    1    1    2    0    0 -0.18204158633E+00  0.34485513383E+00  0.10244089381E+00  0.10209810670E+01  0.93800000000E+00 0.  1.
         22    1    1    2    0    0  0.14182786297E+00 -0.26688622892E+00  0.30160670364E+01  0.30311720126E+01  0.00000000000E+00 0.  1.
</event>
<event>
 5    1  0.6645559E+001  0.1507650E+01  0.7818608E-02  0.3460130E+00
         11   -1    0    0    0    0  0.00000000000E+00  0.00000000000E+00  0.39999999674E+01  0.40000000000E+01  0.51100000000E-03 0.  1.
    9000002   -1    0    0    0    0 -0.00000000000E+00 -0.00000000000E+00  0.00000000000E+00  0.93800000000E+00  0.93800000000E+00 0.  1.
         11    1    1    2    0    0 -0.21992694415E+00 -0.24912023257E+00  0.10783712296E+01  0.11284119465E+01  0.51100000000E-03 0.  1.
    9000002    1    1    2    0    0 -0.29495616753E-01  0.52080109145E-01  0.72409030839E-01  0.94269263120E+00  0.93800000000E+00 0.  1.
         22    1    1    2    0    0  0.24942256091E+00  0.19704012342E+00  0.28492197069E+01  0.28668954223E+01  0.00000000000E+00 0.  1.
</event>
<event>
 5    1  0.6645559E+001  0.1512785E+01  0.7818608E-02  0.3453827E+00
         11   -1    0    0    0    0  0.00000000000E+00  0.00000000000E+00  0.39999999674E+01  0.40000000000E+01  0.51100000000E-03 0.  1.
    9000002   -1    0    0    0    0 -0.00000000000E+00 -0.00000000000E+00  0.00000000000E+00  0.93800000000E+00  0.93800000000E+00 0.  1.
         11    1    1    2    0    0 -0.10600708766E+00  0.65296047090E-03  0.80347045406E-01  0.13301818604E+00  0.51100000000E-03 0.  1.
    9000002    1    1    2    0    0 -0.36797053206E+00  0.14430903464E+00  0.18127785341E+00  0.10338921946E+01  0.93800000000E+00 0.  1.
         22    1    1    2    0    0  0.47397761972E+00 -0.14496199511E+00  0.37383750685E+01  0.37710896193E+01  0.00000000000E+00 0.  1.
</event>
<event>
 5    1  0.6645559E+001  0.1595909E+01  0.7818608E-02  0.3357815E+00
         11   -1    0    0    0    0  0.00000000000E+00  0.00000000000E+00  0.39999999674E+01  0.40000000000E+01  0.51100000000E-03 0. -1.
    9000002   -1    0    0    0    0 -0.00000000000E+00 -0.00000000000E+00  0.00000000000E+00  0.93800000000E+00  0.93800000000E+00 0. -1.
         11    1    1    2    0    0  0.12902679873E+00  0.68365255297E-01  0.63233052089E+00  0.64897139512E+00  0.51100000000E-03 0. -1.
    9000002    1    1    2    0    0 -0.49993922569E+00 -0.21644566113E+00  0.20833648757E+00  0.11045524187E+01  0.93800000000E+00 0. -1.
         22    1    1    2    0    0  0.37091242696E+00  0.14808040584E+00  0.31593329589E+01  0.31844761862E+01  0.00000000000E+00 0. -1.
</event>
<event>
 5    1  0.6645559E+001  0.1599638E+01  0.7818608E-02  0.3353757E+00
         11   -1    0    0    0    0  0.00000000000E+00  0.00000000000E+00  0.39999999674E+01  0.40000000000E+01  0.51100000000E-03 0. -1.
    9000002   -1    0    0    0    0 -0.00000000000E+00 -0.00000000000E+00  0.00000000000E+00  0.93800000000E+00  0.93800000000E+00 0. -1.
         11    1    1    2    0    0  0.72464133379E-01  0.38096372582E-01  0.91697742524E+00  0.92062492023E+00  0.51100000000E-03 0. -1.
    9000002    1    1    2    0    0 -0.33511267361E+00 -0.15476715575E+00  0.91590268256E-01  0.10121690342E+01  0.93800000000E+00 0. -1.
         22    1    1    2    0    0  0.26264854023E+00  0.11667078317E+00  0.29914322739E+01  0.30052060456E+01  0.00000000000E+00 0. -1.
</event>
<event>
 5    1  0.6645559E+001  0.1599672E+01  0.7818608E-02  0.3353720E+00
         11   -1    0    0    0    0  0.00000000000E+00  0.00000000000E+00  0.39999999674E+01  0.40000000000E+01  0.51100000000E-03 0. -1.
    9000002   -1    0    0    0    0 -0.00000000000E+00 -0.00000000000E+00  0.00000000000E+00  0.93800000000E+00  0.93800000000E+00 0. -1.
         11    1    1    2    0    0 -0.94230706679E-01  0.66747156052E-01  0.73409244108E+00  0.74311949382E+00  0.51100000000E-03 0. -1.
    9000002    1    1    2    0    0  0.48396573496E+00 -0.35207720434E+00  0.24982710661E+00  0.11403678238E+01  0.93800000000E+00 0. -1.
         22    1    1    2    0    0 -0.38973502828E+00  0.28533004829E+00  0.30160804197E+01  0.30545126824E+01  0.00000000000E+00 0. -1.
</event>
<event>
 5    1  0.6645559E+001  0.1599676E+01  0.7818608E-02  0.3353715E+00
         11   -1    0    0    0    0  0.00000000000E+00  0.00000000000E+00  0.39999999674E+01  0.40000000000E+01  0.51100000000E-03 0. -1.
    9000002   -1    0    0    0    0 -0.00000000000E+00 -0.00000000000E+00  0.00000000000E+00  0.93800000000E+00  0.93800000000E+00 0.  1.
         11    1    1    2    0    0 -0.66126115899E-01  0.11570546289E+00  0.11606568567E+01  0.11682829355E+01  0.51100000000E-03 0. -1.
    9000002    1    1    2    0    0  0.21751236816E+00 -0.38734700238E+00  0.13392436076E+00  0.10464841446E+01  0.93800000000E+00 0.  1.
         22    1    1    2    0    0 -0.15138625226E+00  0.27164153949E+00  0.27054187499E+01  0.27232329198E+01  0.00000000000E+00 0.  1.
</event>
<event>
 5    1  0.6645559E+001  0.1573647E+01  0.7818608E-02  0.3382472E+00
         11   -1    0    0    0    0  0.00000000000E+00  0.00000000000E+00  0.39999999674E+01  0.40000000000E+01  0.51100000000E-03 0. -1.
    9000002   -1    0    0    0    0 -0.00000000000E+00 -0.00000000000E+00  0.00000000000E+00  0.93800000000E+00  0.93800000000E+00 0. -1.
         11    1    1    2    0    0 -0.98526250384E-01  0.32344223093E-01  0.63327336417E+00  0.64170786630E+00  0.51100000000E-03 0. -1.
    9000002    1    1    2    0    0 -0.25823658277E+00 -0.37266010393E+00  0.16258500531E+00  0.10544380350E+01  0.93800000000E+00 0. -1.
         22    1    1    2    0    0  0.35676283316E+00  0.34031588084E+00  0.32041415979E+01  0.32418540987E+01  0.00000000000E+00 0. -1.
</event>
<event>
 5    1  0.6645559E+001  0.1544763E+01  0.7818608E-02  0.3415588E+00
         11   -1    0    0    0    0  0.00000000000E+00  0.00000000000E+00  0.39999999674E+01  0.40000000000E+01  0.51100000000E-03 0. -1.
    9000002   -1    0    0    0    0 -0.00000000000E+00 -0.00000000000E+00  0.00000000000E+00  0.93800000000E+00  0.93800000000E+00 0. -1.
         11    1    1    2    0    0  0.18236340510E+00  0.22248410742E+00  0.82610959140E+00  0.87476448699E+00  0.51100000000E-03 0. -1.
    9000002    1    1    2    0    0 -0.40765938678E+00 -0.37427711567E-01  0.16070927687E+00  0.10359818922E+01  0.93800000000E+00 0. -1.
         22    1    1    2    0    0  0.22529598168E+00 -0.18505639585E+00  0.30131810991E+01  0.30272536208E+01  0.00000000000E+00 0. -1.
</event>
<event>
 5    1  0.6645559E+001  0.1599672E+01  0.7818608E-02  0.3353719E+00
         11   -1    0    0    0    0  0.00000000000E+00  0.00000000000E+00  0.39999999674E+01  0.40000000000E+01  0.51100000000E-03 0.  1.
    9000002   -1    0    0    0    0 -0.00000000000E+00 -0.00000000000E+00  0.00000000000E+00  0.93800000000E+00  0.93800000000E+00 0. -1.
         11    1    1    2    0    0 -0.82231160942E-01 -0.14624567420E+00  0.13108042992E+01  0.13214983666E+01  0.51100000000E-03 0.  1.
    9000002    1    1    2    0    0  0.23349302575E+00  0.43004790048E+00  0.16363937034E+00  0.10705522095E+01  0.93800000000E+00 0. -1.
         22    1    1    2    0    0 -0.15126186481E+00 -0.28380222629E+00  0.25255562978E+01  0.25459494238E+01  0.00000000000E+00 0.  1.
</event>
<event>
 5    1  0.6645559E+001  0.1598310E+01  0.7818608E-02  0.3355200E+00
         11   -1    0    0    0    0  0.00000000000E+00  0.00000000000E+00  0.39999999674E+01  0.40000000000E+01  0.51100000000E-03 0.  1.
    9000002   -1    0    0    0    0 -0.00000000000E+00 -0.00000000000E+00  0.00000000000E+00  0.93800000000E+00  0.93800000000E+00 0.  1.
         11    1    1    2    0    0  0.10604833216E+00 -0.71581262159E-01  0.84796623199E+00  0.85756464337E+00  0.51100000000E-03 0.  1.
    9000002    1    1    2    0    0 -0.45743147218E+00  0.15804573894E+00  0.16113112249E+00  0.10677215208E+01  0.93800000000E+00 0.  1.
         22    1    1    2    0    0  0.35138314002E+00 -0.86464476782E-01  0.29909026129E+01  0.30127138358E+01  0.00000000000E+00 0.  1.
</event>
<event>
 5    1  0.6645559E+001  0.1599671E+01  0.7818608E-02  0.3353720E+00
         11   -1    0    0    0    0  0.00000000000E+00  0.00000000000E+00  0.39999999674E+01  0.40000000000E+01  0.51100000000E-03 0. -1.
    9000002   -1    0    0    0    0 -0.00000000000E+00 -0.00000000000E+00  0.00000000000E+00  0.93800000000E+00  0.93800000000E+00 0. -1.
         11    1    1    2    0    0  0.87751539336E-02 -0.78360560881E-02  0.85250420486E-01  0.86059876921E-01  0.51100000000E-03 0.  1.
    9000002    1    1    2    0    0 -0.40948784026E+00  0.37380843741E+00  0.21251646217E+00  0.11101442636E+01  0.93800000000E+00 0. -1.
         22    1    1    2    0    0  0.40071268633E+00 -0.36597238132E+00  0.37022330847E+01  0.37417958595E+01  0.00000000000E+00 0. -1.
</event>
<event>
 5    1  0.6645559E+001  0.1599676E+01  0.7818608E-02  0.3353715E+00
         11   -1    0    0    0    0  0.00000000000E+00  0.00000000000E+00  0.39999999674E+01  0.40000000000E+01  0.51100000000E-03 0.  1.
    9000002   -1    0    0    0    0 -0.00000000000E+00 -0.00000000000E+00  0.00000000000E+00  0.93800000000E+00  0.93800000000E+00 0. -1.
         11    1    1    2    0    0 -0.21016930486E-01 -0.44956712839E-01  0.45514273055E+00  0.45784056580E+00  0.51100000000E-03 0.  1.
    9000002    1    1    2    0    0  0.17537176778E+00  0.38624276417E+00  0.12176377773E+00  0.10366335647E+01  0.93800000000E+00 0. -1.
         22    1    1    2    0    0 -0.15435483729E+00 -0.34128605133E+00  0.34230934591E+01  0.34435258695E+01  0.00000000000E+00 0.  1.
</event>
<event>
 5    1  0.6645559E+001  0.1599574E+01  0.7818608E-02  0.3353826E+00
         11   -1    0    0    0    0  0.00000000000E+00  0.00000000000E+00  0.39999999674E+01  0.40000000000E+01  0.51100000000E-03 0.  1.
    9000002   -1    0    0    0    0 -0.00000000000E+00 -0.00000000000E+00  0.00000000000E+00  0.93800000000E+00  0.93800000000E+00 0.  1.
         11    1    1    2    0    0  0.92191547989E-01 -0.11908969458E+00  0.14310923447E+01  0.14389952039E+01  0.51100000000E-03 0.  1.
    9000002    1    1    2    0    0 -0.24107879417E+00  0.35335887921E+00  0.12397062322E+00  0.10383613041E+01  0.93800000000E+00 0.  1.
         22    1    1    2    0    0  0.14888724618E+00 -0.23426918462E+00  0.24449369995E+01  0.24606434919E+01  0.00000000000E+00 0. -1.
</event>
<event>
 5    1  0.6645559E+001  0.1599366E+01  0.7818608E-02  0.3354052E+00
         11   -1    0    0    0    0  0.00000000000E+00  0.00000000000E+00  0.39999999674E+01  0.40000000000E+01  0.51100000000E-03 0. -1.
    9000002   -1    0    0    0    0 -0.00000000000E+00 -0.00000000000E+00  0.00000000000E+00  0.93800000000E+00  0.93800000000E+00 0. -1.
         11    1    1    2    0    0 -0.34622884384E-01 -0.21066223219E-01  0.29400245040E+00  0.29678313942E+00  0.51100000000E-03 0. -1.
    9000002    1    1    2    0    0  0.31390728837E+00  0.24209935320E+00  0.10621038093E+00  0.10238527861E+01  0.93800000000E+00 0. -1.
         22    1    1    2    0    0 -0.27928440399E+00 -0.22103312998E+00  0.35997871360E+01  0.36173640745E+01  0.00000000000E+00 0. -1.
</event>
<event>
 5    1  0.6645559E+001  0.1517129E+01  0.7818608E-02  0.3448531E+00
         11   -1    0    0    0    0  0.00000000000E+00  0.00000000000E+00  0.39999999674E+01  0.40000000000E+01  0.51100000000E-03 0.  1.
    9000002   -1    0    0    0    0 -0.00000000000E+00 -0.00000000000E+00  0.00000000000E+00  0.93800000000E+00  0.93800000000E+00 0. -1.
         11    1    1    2    0    0  0.53252409037E+00  0.94302985258E-01  0.10315127814E+01  0.11646861548E+01  0.51100000000E-03 0.  1.
    9000002    1    1    2    0    0 -0.15840060939E+00  0.21233224130E+00  0.24204672103E+00  0.10042939554E+01  0.93800000000E+00 0. -1.
         22    1    1    2    0    0 -0.37412348098E+00 -0.30663522656E+00  0.27264404649E+01  0.27690198898E+01  0.00000000000E+00 0.  1.
</event>
<event>
 5    1  0.6645559E+001  0.1599604E+01  0.7818608E-02  0.3353794E+00
         11   -1    0    0    0    0  0.00000000000E+00  0.00000000000E+00  0.39999999674E+01  0.40000000000E+01  0.51100000000E-03 0. -1.
    9000002   -1    0    0    0    0 -0.00000000000E+00 -0.00000000000E+00  0.00000000000E+00  0.93800000000E+00  0.93800000000E+00 0.  1.
         11    1    1    2    0    0  0.57194589481E-02  0.13550118140E+00  0.13546992141E+01  0.13614710809E+01  0.51100000000E-03 0. -1.
    9000002    1    1    2    0    0 -0.44570120435E-01 -0.38716823352E+00  0.10237756353E+00  0.10208873112E+01  0.93800000000E+00 0.  1.
         22    1    1    2    0    0  0.38850661487E-01  0.25166705212E+00  0.25429231897E+01  0.25556416078E+01  0.00000000000E+00 0. -1.
</event>
<event>
 5    1  0.6645559E+001  0.1599500E+01  0.7818608E-02  0.3353906E+00
         11   -1    0    0    0    0  0.00000000000E+00  0.00000000000E+00  0.39999999674E+01  0.40000000000E+01  0.51100000000E-03 0. -1.
    9000002   -1    0    0    0    0 -0.00000000000E+00 -0.00000000000E+00  0.00000000000E+00  0.93800000000E+00  0.93800000000E+00 0. -1.
         11    1    1    2    0    0 -0.49654491666E-01 -0.14953794227E+00  0.13419679779E+01  0.13511866931E+01  0.51100000000E-03 0. -1.
    9000002    1    1    2    0    0  0.17835976526E+00  0.40476871319E+00  0.13288529996E+00  0.10455392962E+01  0.93800000000E+00 0. -1.
         22    1    1    2    0    0 -0.12870527359E+00 -0.25523077092E+00  0.25251466895E+01  0.25412740107E+01  0.00000000000E+00 0. -1.
</event>
<event>
 5    1  0.6645559E+001  0.1599677E+01  0.7818608E-02  0.3353714E+00
         11   -1    0    0    0    0  0.00000000000E+00  0.00000000000E+00  0.39999999674E+01  0.40000000000E+01  0.51100000000E-03 0. -1.
    9000002   -1    0    0    0    0 -0.00000000000E+00 -0.00000000000E+00  0.00000000000E+00  0.93800000000E+00  0.93800000000E+00 0. -1.
         11    1    1    2    0    0 -0.15565182294E+00 -0.96749369954E-01  0.14431640469E+01  0.14547545009E+01  0.51100000000E-03 0. -1.
    9000002    1    1    2    0    0  0.41453290653E+00  0.25753722917E+00  0.16271326499E+00  0.10698049175E+01  0.93800000000E+00 0. -1.
         22    1    1    2    0    0 -0.25888108359E+00 -0.16078785922E+00  0.23941226555E+01  0.24134405816E+01  0.00000000000E+00 0.  1.
</event>
<event>
 5    1  0.6645559E+001  0.1592677E+01  0.7818608E-02  0.3361350E+00
         11   -1    0    0    0    0  0.00000000000E+00  0.00000000000E+00  0.39999999674E+01  0.40000000000E+01  0.51100000000E-03 0.  1.
    9000002   -1    0    0    0    0 -0.00000000000E+00 -0.00000000000E+00  0.00000000000E+00  0.93800000000E+00  0.93800000000E+00 0. -1.
         11    1    1    2    0    0  0.24953882377E+00 -0.42798334880E-01  0.14583674503E+01  0.14801814765E+01  0.51100000000E-03 0.  1.
    9000002    1    1    2    0    0 -0.47995713169E+00 -0.76040107061E-01  0.16753151028E+00  0.10696035495E+01  0.93800000000E+00 0. -1.
         22    1    1    2    0    0  0.23041830792E+00  0.11883844194E+00  0.23741010067E+01  0.23882149740E+01  0.00000000000E+00 0.  1.
</event>
<event>
 5    1  0.6645559E+001  0.1599550E+01  0.7818608E-02  0.3353852E+00
         11   -1    0    0    0    0  0.00000000000E+00  0.00000000000E+00  0.39999999674E+01  0.40000000000E+01  0.51100000000E-03 0.  1.
    9000002   -1    0    0    0    0 -0.00000000000E+00 -0.00000000000E+00  0.00000000000E+00  0.93800000000E+00  0.93800000000E+00 0.  1.
         11    1    1    2    0    0  0.96478247455E-01  0.32312367914E-01  0.12130089545E+01  0.12172687157E+01  0.51100000000E-03 0.  1.
    9000002    1    1    2    0    0 -0.33803516418E+00 -0.73572705154E-01  0.80313456768E-01  0.10029830340E+01  0.93800000000E+00 0.  1.
         22    1    1    2    0    0  0.24155691672E+00  0.41260337240E-01  0.27066775561E+01  0.27177482503E+01  0.00000000000E+00 0.  1.
</event>
<event>
 5    1  0.6645559E+001  0.1599676E+01  0.7818608E-02  0.3353715E+00
         11   -1    0    0    0    0  0.00000000000E+00  0.00000000000E+00  0.39999999674E+01  0.40000000000E+01  0.51100000000E-03 0.  1.
    9000002   -1    0    0    0    0 -0.00000000000E+00 -0.00000000000E+00  0.00000000000E+00  0.93800000000E+00  0.93800000000E+00 0.  1.
         11    1    1    2    0    0 -0.85941731333E-01  0.14327408528E-03  0.83393790832E+00  0.83835475651E+00  0.51100000000E-03 0. -1.
    9000002    1    1    2    0    0  0.39911009656E+00 -0.35314919121E-02  0.10744045471E+00  0.10250311175E+01  0.93800000000E+00 0.  1.
         22    1    1    2    0    0 -0.31316836523E+00  0.33882178268E-02  0.30586216043E+01  0.30746141260E+01  0.00000000000E+00 0.  1.
</event>
<event>
 5    1  0.6645559E+001  0.1597253E+01  0.7818608E-02  0.3356350E+00
         11   -1    0    0    0    0  0.00000000000E+00  0.00000000000E+00  0.39999999674E+01  0.40000000000E+01  0.51100000000E-03 0. -1.
    9000002   -1    0    0    0    0 -0.00000000000E+00 -0.00000000000E+00  0.00000000000E+00  0.93800000000E+00  0.93800000000E+00 0. -1.
         11    1    1    2    0    0  0.20734114319E+00  0.87820050743E-01  0.13337934358E+01  0.13526669588E+01  0.51100000000E-03 0. -1.
    9000002    1    1    2    0    0 -0.52600961528E+00 -0.10196775486E+00  0.20002379429E+00  0.10986068708E+01  0.93800000000E+00 0. -1.
         22    1    1    2    0    0  0.31866847208E+00  0.14147704119E-01  0.24661827373E+01  0.24867261703E+01  0.00000000000E+00 0. -1.
</event>
<event>
 5    1  0.6645559E+001  0.1599664E+01  0.7818608E-02  0.3353728E+00
         11   -1    0    0    0    0  0.00000000000E+00  0.00000000000E+00  0.39999999674E+01  0.40000000000E+01  0.51100000000E-03 0.  1.
    9000002   -1    0    0    0    0 -0.00000000000E+00 -0.00000000000E+00  0.00000000000E+00  0.93800000000E+00  0.93800000000E+00 0. -1.
         11    1    1    2    0    0  0.96444595791E-02  0.13107196196E+00  0.10484500100E+01  0.10566553645E+01  0.51100000000E-03 0.  1.
    9000002    1    1    2    0    0 -0.41747975675E-01 -0.49185477651E+00  0.16663625390E+00  0.10729751422E+01  0.93800000000E+00 0. -1.
         22    1    1    2    0    0  0.32103516096E-01  0.36078281456E+00  0.27849137035E+01  0.28083694933E+01  0.00000000000E+00 0.  1.
</event>
<event>
 5    1  0.6645559E+001  0.1599670E+01  0.7818608E-02  0.3353722E+00
         11   -1    0    0    0    0  0.00000000000E+00  0.00000000000E+00  0.39999999674E+01  0.40000000000E+01  0.51100000000E-03 0. -1.
    9000002   -1    0    0    0    0 -0.00000000000E+00 -0.00000000000E+00  0.00000000000E+00  0.93800000000E+00  0.93800000000E+00 0. -1.
         11    1    1    2    0    0 -0.44111677856E-01 -0.84789158608E-02  0.44245633753E+00  0.44473093425E+00  0.51100000000E-03 0. -1.
    9000002    1    1    2    0    0  0.40355810275E+00  0.66276292944E-01  0.11295239561E+00  0.10294920752E+01  0.93800000000E+00 0. -1.
         22    1    1    2    0    0 -0.35944642489E+00 -0.57797377083E-01  0.34445912342E+01  0.34637769905E+01  0.00000000000E+00 0. -1.
</event>
<event>
 5    1  0.6645559E+001  0.1599654E+01  0.7818608E-02  0.3353739E+00
         11   -1    0    0    0    0  0.00000000000E+00  0.00000000000E+00  0.39999999674E+01  0.40000000000E+01  0.51100000000E-03 0.  1.
    9000002   -1    0    0    0    0 -0.00000000000E+00 -0.00000000000E+00  0.00000000000E+00  0.93800000000E+00  0.93800000000E+00 0. -1.
         11    1    1    2    0    0  0.71617489408E-01 -0.11384272124E+00  0.13353974103E+01  0.13421533945E+01  0.51100000000E-03 0.  1.
    9000002    1    1    2    0    0 -0.20307139222E+00  0.31818356180E+00  0.95854675673E-01  0.10156332449E+01  0.93800000000E+00 0. -1.
         22    1    1    2    0    0  0.13145390281E+00 -0.20434084056E+00  0.25687478814E+01  0.25802133606E+01  0.00000000000E+00 0.  1.
</event>
<event>
 5    1  0.6645559E+001  0.1592220E+01  0.7818608E-02  0.3361851E+00
         11   -1    0    0    0    0  0.00000000000E+00  0.00000000000E+00  0.39999999674E+01  0.40000000000E+01  0.51100000000E-03 0. -1.
    9000002   -1    0    0    0    0 -0.00000000000E+00 -0.00000000000E+00  0.00000000000E+00  0.93800000000E+00  0.93800000000E+00 0.  1.
         11    1    1    2    0    0 -0.22528670245E-02  0.21656317814E-01  0.12190698539E+01  0.12192643853E+01  0.51100000000E-03 0. -1.
    9000002    1    1    2    0    0  0.31050966527E+00 -0.13282433306E+00  0.82360356552E-01  0.10003428332E+01  0.93800000000E+00 0.  1.
         22    1    1    2    0    0 -0.30825679825E+00  0.11116801524E+00  0.26985697570E+01  0.27183927815E+01  0.00000000000E+00 0. -1.
</event>
<event>
 5    1  0.6645559E+001  0.1599674E+01  0.7818608E-02  0.3353718E+00
         11   -1    0    0    0    0  0.00000000000E+00  0.00000000000E+00  0.39999999674E+01  0.40000000000E+01  0.51100000000E-03 0. -1.
    9000002   -1    0    0    0    0 -0.00000000000E+00 -0.00000000000E+00  0.00000000000E+00  0.93800000000E+00  0.93800000000E+00 0.  1.
         11    1    1    2    0    0  0.10675530830E+00  0.95280186418E-03  0.11304298721E+01  0.11354600656E+01  0.51100000000E-03 0. -1.
    9000002    1    1    2    0    0 -0.36632983442E+00  0.30197160248E-02  0.90156342667E-01  0.10110286012E+01  0.93800000000E+00 0.  1.
         22    1    1    2    0    0  0.25957452612E+00 -0.39725178890E-02  0.27794137526E+01  0.27915113333E+01  0.00000000000E+00 0. -1.
</event>
<event>
 5    1  0.6645559E+001  0.1599661E+01  0.7818608E-02  0.3353731E+00
         11   -1    0    0    0    0  0.00000000000E+00  0.00000000000E+00  0.39999999674E+01  0.40000000000E+01  0.51100000000E-03 0.  1.
    9000002   -1    0    0    0    0 -0.00000000000E+00 -0.00000000000E+00  0.00000000000E+00  0.93800000000E+00  0.93800000000E+00 0. -1.
         11    1    1    2    0    0 -0.16330197369E+00 -0.11104665542E+00  0.12215122255E+01  0.12373727298E+01  0.51100000000E-03 0.  1.
    9000002    1    1    2    0    0  0.51177014151E+00  0.34506381058E+00  0.26682453175E+00  0.11541304267E+01  0.93800000000E+00 0. -1.
         22    1    1    2    0    0 -0.34846816782E+00 -0.23401715516E+00  0.25116632101E+01  0.25464968435E+01  0.00000000000E+00 0.  1.
</event>
<event>
 5    1  0.6645559E+001  0.1599677E+01  0.7818608E-02  0.3353714E+00
         11   -1    0    0    0    0  0.00000000000E+00  0.00000000000E+00  0.39999999674E+01  0.40000000000E+01  0.51100000000E-03 0. -1.
    9000002   -1    0    0    0    0 -0.00000000000E+00 -0.00000000000E+00  0.00000000000E+00  0.93800000000E+00  0.93800000000E+00 0. -1.
         11    1    1    2    0    0 -0.13939405038E+00 -0.65788859293E-02  0.89786598842E+00  0.90864601320E+00  0.51100000000E-03 0.  1.
    9000002    1    1    2    0    0  0.58507829784E+00  0.27047688652E-01  0.23862629163E+00  0.11312977942E+01  0.93800000000E+00 0. -1.
         22    1    1    2    0    0 -0.44568424746E+00 -0.20468802723E-01  0.28635076873E+01  0.28980561926E+01  0.00000000000E+00 0. -1.
</event>
<event>
 5    1  0.6645559E+001  0.1599674E+01  0.7818608E-02  0.3353718E+00
         11   -1    0    0    0    0  0.00000000000E+00  0.00000000000E+00  0.39999999674E+01  0.40000000000E+01  0.51100000000E-03 0. -1.
    9000002   -1    0    0    0    0 -0.00000000000E+00 -0.00000000000E+00  0.00000000000E+00  0.93800000000E+00  0.93800000000E+00 0. -1.
         11    1    1    2    0    0 -0.43594118136E-01 -0.47572262947E-01  0.69150091073E+00  0.69450510293E+00  0.51100000000E-03 0. -1.
    9000002    1    1    2    0    0  0.24952240175E+00  0.26027855781E+00  0.87276676100E-01  0.10086959774E+01  0.93800000000E+00 0. -1.
         22    1    1    2    0    0 -0.20592828361E+00 -0.21270629486E+00  0.32212223805E+01  0.32347989197E+01  0.00000000000E+00 0. -1.
</event>
<event>
 5    1  0.6645559E+001  0.1599668E+01  0.7818608E-02  0.3353723E+00
         11   -1    0    0    0    0  0.00000000000E+00  0.00000000000E+00  0.39999999674E+01  0.40000000000E+01  0.51100000000E-03 0. -1.
    9000002   -1    0    0    0    0 -0.00000000000E+00 -0.00000000000E+00  0.00000000000E+00  0.93800000000E+00  0.93800000000E+00 0.  1.
         11    1    1    2    0    0 -0.22264959888E+00  0.23932607371E-01  0.73466918007E+00  0.76803950344E+00  0.51100000000E-03 0. -1.
    9000002    1    1    2    0    0  0.98672795262E+00 -0.10549591109E+00  0.78881470356E+00  0.15769699034E+01  0.93800000000E+00 0.  1.
         22    1    1    2    0    0 -0.76407835374E+00  0.81563303722E-01  0.24765160837E+01  0.25929905931E+01  0.00000000000E+00 0. -1.
</event>
<event>
 5    1  0.6645559E+001  0.1577298E+01  0.7818608E-02  0.3378378E+00
         11   -1    0    0    0    0  0.00000000000E+00  0.00000000000E+00  0.39999999674E+01  0.40000000000E+01  0.51100000000E-03 0.  1.
    9000002   -1    0    0    0    0 -0.00000000000E+00 -0.00000000000E+00  0.00000000000E+00  0.93800000000E+00  0.93800000000E+00 0. -1.
         11    1    1    2    0    0  0.11342998402E+00 -0.31525367331E-01  0.57504313914E+00  0.58697110922E+00  0.51100000000E-03 0.  1.
    9000002    1    1    2    0    0  0.46422951565E-01  0.51516354328E+00  0.20446547718E+00  0.10905038735E+01  0.93800000000E+00 0. -1.
         22    1    1    2    0    0 -0.15985293558E+00 -0.48363817595E+00  0.32204913510E+01  0.32605250173E+01  0.00000000000E+00 0.  1.
</event>
<event>
 5    1  0.6645559E+001  0.1578315E+01  0.7818608E-02  0.3377241E+00
         11   -1    0    0    0    0  0.00000000000E+00  0.00000000000E+00  0.39999999674E+01  0.40000000000E+01  0.51100000000E-03 0.  1.
    9000002   -1    0    0    0    0 -0.00000000000E+00 -0.00000000000E+00  0.00000000000E+00  0.93800000000E+00  0.93800000000E+00 0.  1.
         11    1    1    2    0    0  0.21479805141E-01 -0.96709140395E-01  0.79515482194E+00  0.80130237229E+00  0.51100000000E-03 0.  1.
    9000002    1    1    2    0    0  0.47976608081E+00  0.10276601995E+00  0.18388195895E+00  0.10744267876E+01  0.93800000000E+00 0.  1.
         22    1    1    2    0    0 -0.50124588595E+00 -0.60568795596E-02  0.30209631865E+01  0.30622708401E+01  0.00000000000E+00 0.  1.
</event>
<event>
 5    1  0.6645559E+001  0.1553565E+01  0.7818608E-02  0.3405358E+00
         11   -1    0    0    0    0  0.00000000000E+00  0.00000000000E+00  0.39999999674E+01  0.40000000000E+01  0.51100000000E-03 0. -1.
    9000002   -1    0    0    0    0 -0.00000000000E+00 -0.00000000000E+00  0.00000000000E+00  0.93800000000E+00  0.93800000000E+00 0. -1.
         11    1    1    2    0    0  0.15731809937E+00  0.42872367483E-01  0.57683114064E+00  0.59943427514E+00  0.51100000000E-03 0. -1.
    9000002    1    1    2    0    0  0.74403129195E-01  0.20896163432E+00  0.68298884348E-01  0.96628646263E+00  0.93800000000E+00 0. -1.
         22    1    1    2    0    0 -0.23172122857E+00 -0.25183400180E+00  0.33548699424E+01  0.33722792622E+01  0.00000000000E+00 0. -1.
</event>
<event>
 5    1  0.6645559E+001  0.1599508E+01  0.7818608E-02  0.3353897E+00
         11   -1    0    0    0    0  0.00000000000E+00  0.00000000000E+00  0.39999999674E+01  0.40000000000E+01  0.51100000000E-03 0.  1.
    9000002   -1    0    0    0    0 -0.00000000000E+00 -0.00000000000E+00  0.00000000000E+00  0.93800000000E+00  0.93800000000E+00 0. -1.
         11    1    1    2    0    0 -0.14022004007E+00  0.38411108271E-01  0.13351030364E+01  0.13429957005E+01  0.51100000000E-03 0.  1.
    9000002    1    1    2    0    0  0.37761144012E+00 -0.82599660231E-01  0.10075079044E+00  0.10195135239E+01  0.93800000000E+00 0. -1.
         22    1    1    2    0    0 -0.23739140005E+00  0.44188551960E-01  0.25641461406E+01  0.25754907756E+01  0.00000000000E+00 0.  1.
</event>
<event>
 5    1  0.6645559E+001  0.1599646E+01  0.7818608E-02  0.3353748E+00
         11   -1    0    0    0    0  0.00000000000E+00  0.00000000000E+00  0.39999999674E+01  0.40000000000E+01  0.51100000000E-03 0. -1.
    9000002   -1    0    0    0    0 -0.00000000000E+00 -0.00000000000E+00  0.00000000000E+00  0.93800000000E+00  0.93800000000E+00 0. -1.
         11    1    1    2    0    0  0.20873473517E+00  0.11531750377E+00  0.12218636716E+01  0.12449174308E+01  0.51100000000E-03 0. -1.
    9000002    1    1    2    0    0 -0.61653039153E+00 -0.32704948422E+00  0.34793637137E+00  0.12198257283E+01  0.93800000000E+00 0. -1.
         22    1    1    2    0    0  0.40779565635E+00  0.21173198045E+00  0.24301999244E+01  0.24732568409E+01  0.00000000000E+00 0. -1.
</event>
<event>
 5    1  0.6645559E+001  0.1598867E+01  0.7818608E-02  0.3354595E+00
         11   -1    0    0    0    0  0.00000000000E+00  0.00000000000E+00  0.39999999674E+01  0.40000000000E+01  0.51100000000E-03 0.  1.
    9000002   -1    0    0    0    0 -0.00000000000E+00 -0.00000000000E+00  0.00000000000E+00  0.93800000000E+00  0.93800000000E+00 0.  1.
         11    1    1    2    0    0 -0.10900336476E-01 -0.56793388761E-01  0.47331971910E+00  0.47683972565E+00  0.51100000000E-03 0.  1.
    9000002    1    1    2    0    0  0.19401710947E+00  0.31604626789E+00  0.93094705987E-01  0.10129355885E+01  0.93800000000E+00 0.  1.
         22    1    1    2    0    0 -0.18311677299E+00 -0.25925287913E+00  0.34335855423E+01  0.34482246858E+01  0.00000000000E+00 0.  1.
</event>
<event>
 5    1  0.7282308E+001  0.1569824E+01  0.7818608E-02  0.3386782E+00
         11   -1    0    0    0    0  0.00000000000E+00  0.00000000000E+00  0.39999999674E+01  0.40000000000E+01  0.51100000000E-03 0.  1.
    9000002   -1    0    0    0    0 -0.00000000000E+00 -0.00000000000E+00  0.00000000000E+00  0.93800000000E+00  0.93800000000E+00 0.  1.
         11    1    1    2    0    0  0.13472995530E+00 -0.69705807427E-01  0.10455667874E+01  0.10565137143E+01  0.51100000000E-03 0.  1.
    9000002    1    1    2    0    0  0.74011274701E-01 -0.11095042596E+00  0.34010058395E-01  0.94804448729E+00  0.93800000000E+00 0.  1.
         22    1    1    2    0    0 -0.20874123001E+00  0.18065623339E+00  0.29204231216E+01  0.29334417984E+01  0.00000000000E+00 0.  1.
</event>
<event>
 5    1  0.6645559E+001  0.1598786E+01  0.7818608E-02  0.3354682E+00
         11   -1    0    0    0    0  0.00000000000E+00  0.00000000000E+00  0.39999999674E+01  0.40000000000E+01  0.51100000000E-03 0.  1.
    9000002   -1    0    0    0    0 -0.00000000000E+00 -0.00000000000E+00  0.00000000000E+00  0.93800000000E+00  0.93800000000E+00 0.  1.
         11    1    1    2    0    0  0.53922866864E-01  0.20223329579E-01  0.82001025541E+00  0.82203025415E+00  0.51100000000E-03 0.  1.
    9000002    1    1    2    0    0 -0.37463824117E+00 -0.21500427226E-01  0.95422063103E-01  0.10147735956E+01  0.93800000000E+00 0.  1.
         22    1    1    2    0    0  0.32071537431E+00  0.12770976472E-02  0.30845676488E+01  0.31011961503E+01  0.00000000000E+00 0.  1.
</event>
<event>
 5    1  0.6645559E+001  0.1599215E+01  0.7818608E-02  0.3354215E+00
         11   -1    0    0    0    0  0.00000000000E+00  0.00000000000E+00  0.39999999674E+01  0.40000000000E+01  0.51100000000E-03 0. -1.
    9000002   -1    0    0    0    0 -0.00000000000E+00 -0.00000000000E+00  0.00000000000E+00  0.93800000000E+00  0.93800000000E+00 0.  1.
         11    1    1    2    0    0 -0.11895505276E+00  0.19475379988E-01  0.14253580124E+01  0.14304458464E+01  0.51100000000E-03 0. -1.
    9000002    1    1    2    0    0  0.34633227338E+00 -0.11874928895E+00  0.90419771623E-01  0.10109733786E+01  0.93800000000E+00 0.  1.
         22    1    1    2    0    0 -0.22737722062E+00  0.99273908965E-01  0.24842221834E+01  0.24965807749E+01  0.00000000000E+00 0. -1.
</event>
<event>
 5    1  0.6645559E+001  0.1599659E+01  0.7818608E-02  0.3353733E+00
         11   -1    0    0    0    0  0.00000000000E+00  0.00000000000E+00  0.39999999674E+01  0.40000000000E+01  0.51100000000E-03 0.  1.
    9000002   -1    0    0    0    0 -0.00000000000E+00 -0.00000000000E+00  0.00000000000E+00  0.93800000000E+00  0.93800000000E+00 0. -1.
         11    1    1    2    0    0 -0.85536908705E-01 -0.35275293964E-02  0.52470402901E+00  0.53164234725E+00  0.51100000000E-03 0.  1.
    9000002    1    1    2    0    0  0.59140573103E+00  0.39466609596E-01  0.24475402471E+00  0.11362512418E+01  0.93800000000E+00 0. -1.
         22    1    1    2    0    0 -0.50586882232E+00 -0.35939080199E-01  0.32305419136E+01  0.32701064109E+01  0.00000000000E+00 0.  1.
</event>
<event>
 5    1  0.6645559E+001  0.1599471E+01  0.7818608E-02  0.3353938E+00
         11   -1    0    0    0    0  0.00000000000E+00  0.00000000000E+00  0.39999999674E+01  0.40000000000E+01  0.51100000000E-03 0.  1.
    9000002   -1    0    0    0    0 -0.00000000000E+00 -0.00000000000E+00  0.00000000000E+00  0.93800000000E+00  0.93800000000E+00 0.  1.
         11    1    1    2    0    0  0.72290945824E-01  0.20422260798E+00  0.14579246255E+01  0.14739326067E+01  0.51100000000E-03 0.  1.
    9000002    1    1    2    0    0 -0.17935825121E+00 -0.49071719597E+00  0.18778138191E+00  0.10899901816E+01  0.93800000000E+00 0.  1.
         22    1    1    2    0    0  0.10706730538E+00  0.28649458799E+00  0.23542939600E+01  0.23740772116E+01  0.00000000000E+00 0.  1.
</event>
<event>
 5    1  0.6645559E+001  0.1599527E+01  0.7818608E-02  0.3353877E+00
         11   -1    0    0    0    0  0.00000000000E+00  0.00000000000E+00  0.39999999674E+01  0.40000000000E+01  0.51100000000E-03 0. -1.
    9000002   -1    0    0    0    0 -0.00000000000E+00 -0.00000000000E+00  0.00000000000E+00  0.93800000000E+00  0.93800000000E+00 0. -1.
         11    1    1    2    0    0 -0.32637857654E-01 -0.49815848947E-01  0.63217004643E+00  0.63496935145E+00  0.51100000000E-03 0. -1.
    9000002    1    1    2    0    0  0.21439206254E+00  0.37091002210E+00  0.12439877520E+00  0.10386805362E+01  0.93800000000E+00 0. -1.
         22    1    1    2    0    0 -0.18175420488E+00 -0.32109417316E+00  0.32434311457E+01  0.32643501124E+01  0.00000000000E+00 0. -1.
</event>
<event>
 5    1  0.6645559E+001  0.1599675E+01  0.7818608E-02  0.3353716E+00
         11   -1    0    0    0    0  0.00000000000E+00  0.00000000000E+00  0.39999999674E+01  0.40000000000E+01  0.51100000000E-03 0.  1.
    9000002   -1    0    0    0    0 -0.00000000000E+00 -0.00000000000E+00  0.00000000000E+00  0.93800000000E+00  0.93800000000E+00 0.  1.
         11    1    1    2    0    0  0.14655701261E+00 -0.29967347213E-01  0.12924058999E+01  0.13010343082E+01  0.51100000000E-03 0.  1.
    9000002    1    1    2    0    0 -0.43894409981E+00  0.93981422117E-01  0.13683782755E+00  0.10488436592E+01  0.93800000000E+00 0.  1.
         22    1    1    2    0    0  0.29238708720E+00 -0.64014074905E-01  0.25707562399E+01  0.25881220326E+01  0.00000000000E+00 0.  1.
</event>
<event>
 5    1  0.6645559E+001  0.1599649E+01  0.7818608E-02  0.3353744E+00
         11   -1    0    0    0    0  0.00000000000E+00  0.00000000000E+00  0.39999999674E+01  0.40000000000E+01  0.51100000000E-03 0. -1.
    9000002   -1    0    0    0    0 -0.00000000000E+00 -0.00000000000E+00  0.00000000000E+00  0.93800000000E+00  0.93800000000E+00 0. -1.
         11    1    1    2    0    0 -0.18308043073E-01  0.24991693128E-02  0.23423813369E+00  0.23496636926E+00  0.51100000000E-03 0. -1.
    9000002    1    1    2    0    0  0.34389478977E+00 -0.74670920674E-01  0.83075691987E-01  0.10052785402E+01  0.93800000000E+00 0. -1.
         22    1    1    2    0    0 -0.32558674670E+00  0.72171751361E-01  0.36826861417E+01  0.36977550905E+01  0.00000000000E+00 0. -1.
</event>
<event>
 5    1  0.6645559E+001  0.1599675E+01  0.7818608E-02  0.3353716E+00
         11   -1    0    0    0    0  0.00000000000E+00  0.00000000000E+00  0.39999999674E+01  0.40000000000E+01  0.51100000000E-03 0. -1.
    9000002   -1    0    0    0    0 -0.00000000000E+00 -0.00000000000E+00  0.00000000000E+00  0.93800000000E+00  0.93800000000E+00 0.  1.
         11    1    1    2    0    0 -0.12939199561E+00  0.25032886260E-01  0.12696992378E+01  0.12765207987E+01  0.51100000000E-03 0. -1.
    9000002    1    1    2    0    0  0.39423890733E+00 -0.72739534405E-01  0.10841966303E+00  0.10258236589E+01  0.93800000000E+00 0.  1.
         22    1    1    2    0    0 -0.26484691172E+00  0.47706648145E-01  0.26218810665E+01  0.26356555423E+01  0.00000000000E+00 0. -1.
</event>
<event>
 5    1  0.6645559E+001  0.1599669E+01  0.7818608E-02  0.3353722E+00
         11   -1    0    0    0    0  0.00000000000E+00  0.00000000000E+00  0.39999999674E+01  0.40000000000E+01  0.51100000000E-03 0.  1.
    9000002   -1    0    0    0    0 -0.00000000000E+00 -0.00000000000E+00  0.00000000000E+00  0.93800000000E+00  0.93800000000E+00 0.  1.
         11    1    1    2    0    0  0.74358313602E-01 -0.53195600433E-01  0.98160821149E+00  0.98585692304E+00  0.51100000000E-03 0.  1.
    9000002    1    1    2    0    0 -0.30715715531E+00  0.21379603899E+00  0.94175276916E-01  0.10142816409E+01  0.93800000000E+00 0.  1.
         22    1    1    2    0    0  0.23279884171E+00 -0.16060043856E+00  0.29242164790E+01  0.29378614360E+01  0.00000000000E+00 0.  1.
</event>
<event>
 5    1  0.6645559E+001  0.1599511E+01  0.7818608E-02  0.3353894E+00
         11   -1    0    0    0    0  0.00000000000E+00  0.00000000000E+00  0.39999999674E+01  0.40000000000E+01  0.51100000000E-03 0.  1.
    9000002   -1    0    0    0    0 -0.00000000000E+00 -0.00000000000E+00  0.00000000000E+00  0.93800000000E+00  0.93800000000E+00 0.  1.
         11    1    1    2    0    0 -0.93085814874E-01  0.30420683182E-01  0.92868438293E+00  0.93383367422E+00  0.51100000000E-03 0.  1.
    9000002    1    1    2    0    0  0.38456936078E+00 -0.18213593034E+00  0.12268979801E+00  0.10372867862E+01  0.93800000000E+00 0.  1.
         22    1    1    2    0    0 -0.29148354591E+00  0.15171524716E+00  0.29486257864E+01  0.29668795395E+01  0.00000000000E+00 0.  1.
</event>
<event>
 5    1  0.6645559E+001  0.1599651E+01  0.7818608E-02  0.3353742E+00
         11   -1    0    0    0    0  0.00000000000E+00  0.00000000000E+00  0.39999999674E+01  0.40000000000E+01  0.51100000000E-03 0. -1.
    9000002   -1    0    0    0    0 -0.00000000000E+00 -0.00000000000E+00  0.00000000000E+00  0.93800000000E+00  0.93800000000E+00 0. -1.
         11    1    1    2    0    0 -0.15896514716E+00 -0.19636504141E-02  0.11852171664E+01  0.11958318304E+01  0.51100000000E-03 0. -1.
    9000002    1    1    2    0    0  0.50610717161E+00 -0.10570524069E-01  0.17562971405E+00  0.10802527489E+01  0.93800000000E+00 0. -1.
         22    1    1    2    0    0 -0.34714202444E+00  0.12534174483E-01  0.26391530869E+01  0.26619154206E+01  0.00000000000E+00 0. -1.
</event>
<event>
 5    1  0.6645559E+001  0.1599090E+01  0.7818608E-02  0.3354352E+00
         11   -1    0    0    0    0  0.00000000000E+00  0.00000000000E+00  0.39999999674E+01  0.40000000000E+01  0.51100000000E-03 0. -1.
    9000002   -1    0    0    0    0 -0.00000000000E+00 -0.00000000000E+00  0.00000000000E+00  0.93800000000E+00  0.93800000000E+00 0. -1.
         11    1    1    2    0    0  0.71981517254E-01 -0.73934781234E-01  0.12960286557E+01  0.13001300813E+01  0.51100000000E-03 0. -1.
    9000002    1    1    2    0    0 -0.19665663928E+00  0.30352017694E+00  0.88292854347E-01  0.10091768724E+01  0.93800000000E+00 0. -1.
         22    1    1    2    0    0  0.12467512203E+00 -0.22958539571E+00  0.26156784573E+01  0.26286930463E+01  0.00000000000E+00 0. -1.
</event>
<event>
 5    1  0.6645559E+001  0.1598973E+01  0.7818608E-02  0.3354479E+00
         11   -1    0    0    0    0  0.00000000000E+00  0.00000000000E+00  0.39999999674E+01  0.40000000000E+01  0.51100000000E-03 0. -1.
    9000002   -1    0    0    0    0 -0.00000000000E+00 -0.00000000000E+00  0.00000000000E+00  0.93800000000E+00  0.93800000000E+00 0. -1.
         11    1    1    2    0    0 -0.10610450759E+00 -0.28170677902E-01  0.14881308079E+01  0.14921746936E+01  0.51100000000E-03 0. -1.
    9000002    1    1    2    0    0  0.32078500907E+00  0.14457740536E+00  0.83598004311E-01  0.10053050654E+01  0.93800000000E+00 0. -1.
         22    1    1    2    0    0 -0.21468050148E+00 -0.11640672746E+00  0.24282711551E+01  0.24405202410E+01  0.00000000000E+00 0. -1.
</event>
<event>
 5    1  0.6645559E+001  0.1599677E+01  0.7818608E-02  0.3353714E+00
         11   -1    0    0    0    0  0.00000000000E+00  0.00000000000E+00  0.39999999674E+01  0.40000000000E+01  0.51100000000E-03 0. -1.
    9000002   -1    0    0    0    0 -0.00000000000E+00 -0.00000000000E+00  0.00000000000E+00  0.93800000000E+00  0.93800000000E+00 0.  1.
         11    1    1    2    0    0 -0.55284255905E-01  0.58141001504E-01  0.79032190550E+00  0.79438384956E+00  0.51100000000E-03 0.  1.
    9000002    1    1    2    0    0  0.27333002836E+00 -0.28630847233E+00  0.10562894999E+00  0.10235640287E+01  0.93800000000E+00 0.  1.
         22    1    1    2    0    0 -0.21804577245E+00  0.22816747082E+00  0.31040491119E+01  0.31200521218E+01  0.00000000000E+00 0. -1.
</event>
<event>
 5    1  0.6645559E+001  0.1598675E+01  0.7818608E-02  0.3354802E+00
         11   -1    0    0    0    0  0.00000000000E+00  0.00000000000E+00  0.39999999674E+01  0.40000000000E+01  0.51100000000E-03 0.  1.
    9000002   -1    0    0    0    0 -0.00000000000E+00 -0.00000000000E+00  0.00000000000E+00  0.93800000000E+00  0.93800000000E+00 0.  1.
         11    1    1    2    0    0 -0.36851994129E-01  0.10444602937E+00  0.10737859214E+01  0.10794829821E+01  0.51100000000E-03 0.  1.
    9000002    1    1    2    0    0  0.22862118677E+00 -0.30012283519E+00  0.96562730058E-01  0.10156326718E+01  0.93800000000E+00 0.  1.
         22    1    1    2    0    0 -0.19176919264E+00  0.19567680582E+00  0.28296513159E+01  0.28428843461E+01  0.00000000000E+00 0.  1.
</event>
<event>
 5    1  0.6645559E+001  0.1587749E+01  0.7818608E-02  0.3366769E+00
         11   -1    0    0    0    0  0.00000000000E+00  0.00000000000E+00  0.39999999674E+01  0.40000000000E+01  0.51100000000E-03 0.  1.
    9000002   -1    0    0    0    0 -0.00000000000E+00 -0.00000000000E+00  0.00000000000E+00  0.93800000000E+00  0.93800000000E+00 0. -1.
         11    1    1    2    0    0  0.92377940741E-01 -0.22114227957E+00  0.97935237770E+00  0.10082504315E+01  0.51100000000E-03 0.  1.
    9000002    1    1    2    0    0 -0.47695596914E+00  0.41471082858E+00  0.29309689211E+00  0.11684270863E+01  0.93800000000E+00 0. -1.
         22    1    1    2    0    0  0.38457802840E+00 -0.19356854901E+00  0.27275506976E+01  0.27613224822E+01  0.00000000000E+00 0.  1.
</event>
<event>
 5    1  0.6645559E+001  0.1583915E+01  0.7818608E-02  0.3371009E+00
         11   -1    0    0    0    0  0.00000000000E+00  0.00000000000E+00  0.39999999674E+01  0.40000000000E+01  0.51100000000E-03 0.  1.
    9000002   -1    0    0    0    0 -0.00000000000E+00 -0.00000000000E+00  0.00000000000E+00  0.93800000000E+00  0.93800000000E+00 0.  1.
         11    1    1    2    0    0  0.24078584619E+00  0.11052816900E+00  0.83785864334E+00  0.87875005958E+00  0.51100000000E-03 0.  1.
    9000002    1    1    2    0    0 -0.50080650269E+00 -0.39392730800E+00  0.30214484700E+00  0.11735081532E+01  0.93800000000E+00 0.  1.
         22    1    1    2    0    0  0.26002065650E+00  0.28339913900E+00  0.28599964770E+01  0.28857417872E+01  0.00000000000E+00 0.  1.
</event>
<event>
 5    1  0.8120116E+001  0.1486059E+01  0.7818608E-02  0.3487144E+00
         11   -1    0    0    0    0  0.00000000000E+00  0.00000000000E+00  0.39999999674E+01  0.40000000000E+01  0.51100000000E-03 0.  1.
    9000002   -1    0    0    0    0 -0.00000000000E+00 -0.00000000000E+00  0.00000000000E+00  0.93800000000E+00  0.93800000000E+00 0.  1.
         11    1    1    2    0    0 -0.69559322240E-01  0.34477897949E+00  0.88042056471E+00  0.94807788493E+00  0.51100000000E-03 0.  1.
    9000002    1    1    2    0    0  0.60808163998E-01 -0.31266444238E-01  0.90704832455E-01  0.94485268163E+00  0.93800000000E+00 0.  1.
         22    1    1    2    0    0  0.87511582416E-02 -0.31351253525E+00  0.30288745702E+01  0.30450694334E+01  0.00000000000E+00 0.  1.
</event>
<event>
 5    1  0.6645559E+001  0.1599676E+01  0.7818608E-02  0.3353715E+00
         11   -1    0    0    0    0  0.00000000000E+00  0.00000000000E+00  0.39999999674E+01  0.40000000000E+01  0.51100000000E-03 0.  1.
    9000002   -1    0    0    0    0 -0.00000000000E+00 -0.00000000000E+00  0.00000000000E+00  0.93800000000E+00  0.93800000000E+00 0.  1.
         11    1    1    2    0    0 -0.84427910197E-01  0.25935831625E-02  0.73099845812E+00  0.73586262684E+00  0.51100000000E-03 0. -1.
    9000002    1    1    2    0    0  0.44982159688E+00 -0.17847718555E-01  0.13764686291E+00  0.10494992468E+01  0.93800000000E+00 0.  1.
         22    1    1    2    0    0 -0.36539368668E+00  0.15254135392E-01  0.31313546463E+01  0.31526381264E+01  0.00000000000E+00 0.  1.
</event>
<event>
 5    1  0.6645559E+001  0.1452371E+01  0.7818608E-02  0.3531033E+00
         11   -1    0    0    0    0  0.00000000000E+00  0.00000000000E+00  0.39999999674E+01  0.40000000000E+01  0.51100000000E-03 0.  1.
    9000002   -1    0    0    0    0 -0.00000000000E+00 -0.00000000000E+00  0.00000000000E+00  0.93800000000E+00  0.93800000000E+00 0. -1.
         11    1    1    2    0    0  0.30461529596E+00  0.15266829742E+00  0.58173095043E+00  0.67417300997E+00  0.51100000000E-03 0.  1.
    9000002    1    1    2    0    0 -0.24778976335E-01  0.15789986700E+00  0.14325923197E+00  0.96224402997E+00  0.93800000000E+00 0. -1.
         22    1    1    2    0    0 -0.27983631962E+00 -0.31056816442E+00  0.32750097850E+01  0.33015829601E+01  0.00000000000E+00 0.  1.
</event>
<event>
 5    1  0.6645559E+001  0.1599501E+01  0.7818608E-02  0.3353905E+00
         11   -1    0    0    0    0  0.00000000000E+00  0.00000000000E+00  0.39999999674E+01  0.40000000000E+01  0.51100000000E-03 0. -1.
    9000002   -1    0    0    0    0 -0.00000000000E+00 -0.00000000000E+00  0.00000000000E+00  0.93800000000E+00  0.93800000000E+00 0. -1.
         11    1    1    2    0    0 -0.36624400782E-01  0.13308642060E+00  0.11218240403E+01  0.11302843804E+01  0.51100000000E-03 0. -1.
    9000002    1    1    2    0    0  0.11704385762E+00 -0.41050927318E+00  0.12349938602E+00  0.10379370050E+01  0.93800000000E+00 0. -1.
         22    1    1    2    0    0 -0.80419456835E-01  0.27742285258E+00  0.27546765410E+01  0.27697786146E+01  0.00000000000E+00 0. -1.
</event>
<event>
 5    1  0.6645559E+001  0.1599665E+01  0.7818608E-02  0.3353727E+00
         11   -1    0    0    0    0  0.00000000000E+00  0.00000000000E+00  0.39999999674E+01  0.40000000000E+01  0.51100000000E-03 0. -1.
    9000002   -1    0    0    0    0 -0.00000000000E+00 -0.00000000000E+00  0.00000000000E+00  0.93800000000E+00  0.93800000000E+00 0. -1.
         11    1    1    2    0    0  0.16155877383E-01 -0.27526893047E-01  0.34180920018E+00  0.34329656664E+00  0.51100000000E-03 0. -1.
    9000002    1    1    2    0    0 -0.15843874941E+00  0.31932964434E+00  0.85276077356E-01  0.10070701408E+01  0.93800000000E+00 0. -1.
         22    1    1    2    0    0  0.14228287203E+00 -0.29180275130E+00  0.35729146898E+01  0.35876332926E+01  0.00000000000E+00 0. -1.
</event>
<event>
 5    1  0.6645559E+001  0.1599402E+01  0.7818608E-02  0.3354013E+00
         11   -1    0    0    0    0  0.00000000000E+00  0.00000000000E+00  0.39999999674E+01  0.40000000000E+01  0.51100000000E-03 0.  1.
    9000002   -1    0    0    0    0 -0.00000000000E+00 -0.00000000000E+00  0.00000000000E+00  0.93800000000E+00  0.93800000000E+00 0.  1.
         11    1    1    2    0    0 -0.72495226006E-01  0.59674861712E-01  0.99149586509E+00  0.99593220579E+00  0.51100000000E-03 0.  1.
    9000002    1    1    2    0    0  0.33472499701E+00 -0.18758296384E+00  0.99332200430E-01  0.10183020564E+01  0.93800000000E+00 0.  1.
         22    1    1    2    0    0 -0.26222977100E+00  0.12790810213E+00  0.29091719018E+01  0.29237657378E+01  0.00000000000E+00 0.  1.
</event>
<event>
 5    1  0.6645559E+001  0.1517429E+01  0.7818608E-02  0.3448167E+00
         11   -1    0    0    0    0  0.00000000000E+00  0.00000000000E+00  0.39999999674E+01  0.40000000000E+01  0.51100000000E-03 0.  1.
    9000002   -1    0    0    0    0 -0.00000000000E+00 -0.00000000000E+00  0.00000000000E+00  0.93800000000E+00  0.93800000000E+00 0. -1.
         11    1    1    2    0    0  0.21982313778E+00 -0.66060705156E-01  0.53479464796E+00  0.58197234064E+00  0.51100000000E-03 0.  1.
    9000002    1    1    2    0    0  0.10698686234E+00  0.10794490692E+00  0.78649952877E-01  0.95348209565E+00  0.93800000000E+00 0. -1.
         22    1    1    2    0    0 -0.32681000012E+00 -0.41884201764E-01  0.33865553665E+01  0.34025455637E+01  0.00000000000E+00 0.  1.
</event>
<event>
 5    1  0.6645559E+001  0.1596009E+01  0.7818608E-02  0.3357707E+00
         11   -1    0    0    0    0  0.00000000000E+00  0.00000000000E+00  0.39999999674E+01  0.40000000000E+01  0.51100000000E-03 0.  1.
    9000002   -1    0    0    0    0 -0.00000000000E+00 -0.00000000000E+00  0.00000000000E+00  0.93800000000E+00  0.93800000000E+00 0. -1.
         11    1    1    2    0    0  0.15113682594E+00  0.13532212829E+00  0.11160579370E+01  0.11343456257E+01  0.51100000000E-03 0.  1.
    9000002    1    1    2    0    0 -0.34995978524E+00 -0.31232156199E+00  0.15308762647E+00  0.10598567973E+01  0.93800000000E+00 0. -1.
         22    1    1    2    0    0  0.19882295930E+00  0.17699943370E+00  0.27308544039E+01  0.27437975770E+01  0.00000000000E+00 0.  1.
</event>
<event>
 5    1  0.6645559E+001  0.1599504E+01  0.7818608E-02  0.3353902E+00
         11   -1    0    0    0    0  0.00000000000E+00  0.00000000000E+00  0.39999999674E+01  0.40000000000E+01  0.51100000000E-03 0.  1.
    9000002   -1    0    0    0    0 -0.00000000000E+00 -0.00000000000E+00  0.00000000000E+00  0.93800000000E+00  0.93800000000E+00 0. -1.
         11    1    1    2    0    0  0.26959104574E-01  0.15524976660E-01  0.36232281018E+00  0.36365629118E+00  0.51100000000E-03 0.  1.
    9000002    1    1    2    0    0 -0.27333603723E+00 -0.26467004156E+00  0.97549935016E-01  0.10169182907E+01  0.93800000000E+00 0. -1.
         22    1    1    2    0    0  0.24637693266E+00  0.24914506490E+00  0.35401272222E+01  0.35574254181E+01  0.00000000000E+00 0.  1.
</event>
<event>
 5    1  0.6645559E+001  0.1599445E+01  0.7818608E-02  0.3353965E+00
         11   -1    0    0    0    0  0.00000000000E+00  0.00000000000E+00  0.39999999674E+01  0.40000000000E+01  0.51100000000E-03 0. -1.
    9000002   -1    0    0    0    0 -0.00000000000E+00 -0.00000000000E+00  0.00000000000E+00  0.93800000000E+00  0.93800000000E+00 0.  1.
         11    1    1    2    0    0  0.60792615507E-03  0.13729431721E-01  0.15430689851E+00  0.15491851703E+00  0.51100000000E-03 0. -1.
    9000002    1    1    2    0    0 -0.15856820250E+00 -0.44961618514E+00  0.15521456380E+00  0.10635949180E+01  0.93800000000E+00 0.  1.
         22    1    1    2    0    0  0.15796027634E+00  0.43588675342E+00  0.36904785051E+01  0.37194865650E+01  0.00000000000E+00 0. -1.
</event>
<event>
 5    1  0.6645559E+001  0.1599318E+01  0.7818608E-02  0.3354104E+00
         11   -1    0    0    0    0  0.00000000000E+00  0.00000000000E+00  0.39999999674E+01  0.40000000000E+01  0.51100000000E-03 0.  1.
    9000002   -1    0    0    0    0 -0.00000000000E+00 -0.00000000000E+00  0.00000000000E+00  0.93800000000E+00  0.93800000000E+00 0. -1.
         11    1    1    2    0    0 -0.10184502836E+00  0.75153373954E-01  0.13813695017E+01  0.13871562279E+01  0.51100000000E-03 0.  1.
    9000002    1    1    2    0    0  0.33191146372E+00 -0.16919733917E+00  0.93595670717E-01  0.10136059929E+01  0.93800000000E+00 0. -1.
         22    1    1    2    0    0 -0.23006643536E+00  0.94043965218E-01  0.25250347950E+01  0.25372377791E+01  0.00000000000E+00 0.  1.
</event>
<event>
 5    1  0.6645559E+001  0.1592920E+01  0.7818608E-02  0.3361084E+00
         11   -1    0    0    0    0  0.00000000000E+00  0.00000000000E+00  0.39999999674E+01  0.40000000000E+01  0.51100000000E-03 0.  1.
    9000002   -1    0    0    0    0 -0.00000000000E+00 -0.00000000000E+00  0.00000000000E+00  0.93800000000E+00  0.93800000000E+00 0.  1.
         11    1    1    2    0    0  0.65177021903E-01 -0.17865649173E+00  0.88981647794E+00  0.90991198022E+00  0.51100000000E-03 0.  1.
    9000002    1    1    2    0    0 -0.11335789945E+00  0.44916077194E+00  0.15196186983E+00  0.10571337769E+01  0.93800000000E+00 0.  1.
         22    1    1    2    0    0  0.48180877545E-01 -0.27050428021E+00  0.29582216196E+01  0.29709542429E+01  0.00000000000E+00 0.  1.
</event>
<event>
 5    1  0.6645559E+001  0.1599676E+01  0.7818608E-02  0.3353715E+00
         11   -1    0    0    0    0  0.00000000000E+00  0.00000000000E+00  0.39999999674E+01  0.40000000000E+01  0.51100000000E-03 0. -1.
    9000002   -1    0    0    0    0 -0.00000000000E+00 -0.00000000000E+00  0.00000000000E+00  0.93800000000E+00  0.93800000000E+00 0.  1.
         11    1    1    2    0    0 -0.10113971028E+00  0.10223714753E+00  0.87452028349E+00  0.88626613536E+00  0.51100000000E-03 0. -1.
    9000002    1    1    2    0    0  0.43395214036E+00 -0.44029932754E+00  0.26770814588E+00  0.11548548001E+01  0.93800000000E+00 0.  1.
         22    1    1    2    0    0 -0.33281243008E+00  0.33806218002E+00  0.28577715380E+01  0.28968790645E+01  0.00000000000E+00 0. -1.
</event>
<event>
 5    1  0.6759991E+001  0.1599653E+01  0.7818608E-02  0.3353740E+00
         11   -1    0    0    0    0  0.00000000000E+00  0.00000000000E+00  0.39999999674E+01  0.40000000000E+01  0.51100000000E-03 0.  1.
    9000002   -1    0    0    0    0 -0.00000000000E+00 -0.00000000000E+00  0.00000000000E+00  0.93800000000E+00  0.93800000000E+00 0.  1.
         11    1    1    2    0    0  0.13700843074E+00  0.62135131325E-01  0.14790999488E+01  0.14867309791E+01  0.51100000000E-03 0.  1.
    9000002    1    1    2    0    0 -0.34644626893E+00 -0.16254843172E+00  0.98586914309E-01  0.10178459557E+01  0.93800000000E+00 0.  1.
         22    1    1    2    0    0  0.20943783820E+00  0.10041330039E+00  0.24223131043E+01  0.24334230652E+01  0.00000000000E+00 0.  1.
</event>
<event>
 5    1  0.6645559E+001  0.1566502E+01  0.7818608E-02  0.3390544E+00
         11   -1    0    0    0    0  0.00000000000E+00  0.00000000000E+00  0.39999999674E+01  0.40000000000E+01  0.51100000000E-03 0. -1.
    9000002   -1    0    0    0    0 -0.00000000000E+00 -0.00000000000E+00  0.00000000000E+00  0.93800000000E+00  0.93800000000E+00 0. -1.
         11    1    1    2    0    0  0.36499952739E+00 -0.77542472225E-01  0.94684646990E+00  0.10177209778E+01  0.51100000000E-03 0. -1.
    9000002    1    1    2    0    0 -0.68534737701E+00  0.35344110259E-01  0.37286245626E+00  0.12205820925E+01  0.93800000000E+00 0. -1.
         22    1    1    2    0    0  0.32034784962E+00  0.42198361966E-01  0.26802910412E+01  0.26996969297E+01  0.00000000000E+00 0. -1.
</event>
<event>
 5    1  0.6645559E+001  0.1599638E+01  0.7818608E-02  0.3353756E+00
         11   -1    0    0    0    0  0.00000000000E+00  0.00000000000E+00  0.39999999674E+01  0.40000000000E+01  0.51100000000E-03 0. -1.
    9000002   -1    0    0    0    0 -0.00000000000E+00 -0.00000000000E+00  0.00000000000E+00  0.93800000000E+00  0.93800000000E+00 0.  1.
         11    1    1    2    0    0 -0.60897776785E-02 -0.12456160310E+00  0.12631153452E+01  0.12692569932E+01  0.51100000000E-03 0. -1.
    9000002    1    1    2    0    0  0.15702815890E-01  0.36406970909E+00  0.89215779249E-01  0.10102459041E+01  0.93800000000E+00 0.  1.
         22    1    1    2    0    0 -0.96130382118E-02 -0.23950810600E+00  0.26476688429E+01  0.26584971027E+01  0.00000000000E+00 0. -1.
</event>
<event>
 5    1  0.6645559E+001  0.1592565E+01  0.7818608E-02  0.3361473E+00
         11   -1    0    0    0    0  0.00000000000E+00  0.00000000000E+00  0.39999999674E+01  0.40000000000E+01  0.51100000000E-03 0. -1.
    9000002   -1    0    0    0    0 -0.00000000000E+00 -0.00000000000E+00  0.00000000000E+00  0.93800000000E+00  0.93800000000E+00 0. -1.
         11    1    1    2    0    0 -0.16702040891E+00 -0.81699834360E-01  0.14277083827E+01  0.14397646221E+01  0.51100000000E-03 0. -1.
    9000002    1    1    2    0    0  0.21329541666E+00  0.33514700479E+00  0.11234443953E+00  0.10248335097E+01  0.93800000000E+00 0. -1.
         22    1    1    2    0    0 -0.46275007748E-01 -0.25344717043E+00  0.24599471451E+01  0.24734018681E+01  0.00000000000E+00 0.  1.
</event>
<event>
 5    1  0.6645559E+001  0.1229734E+01  0.7818608E-02  0.3925876E+00
         11   -1    0    0    0    0  0.00000000000E+00  0.00000000000E+00  0.39999999674E+01  0.40000000000E+01  0.51100000000E-03 0. -1.
    9000002   -1    0    0    0    0 -0.00000000000E+00 -0.00000000000E+00  0.00000000000E+00  0.93800000000E+00  0.93800000000E+00 0. -1.
         11    1    1    2    0    0 -0.52939233817E+00 -0.39966174767E+00  0.13163694307E+01  0.14740469801E+01  0.51100000000E-03 0. -1.
    9000002    1    1    2    0    0 -0.31161877366E+00  0.27732578138E+00  0.54419265783E+00  0.11618973698E+01  0.93800000000E+00 0. -1.
         22    1    1    2    0    0  0.84101111184E+00  0.12233596629E+00  0.21394378788E+01  0.23020556501E+01  0.00000000000E+00 0. -1.
</event>
<event>
 5    1  0.6645559E+001  0.1599676E+01  0.7818608E-02  0.3353715E+00
         11   -1    0    0    0    0  0.00000000000E+00  0.00000000000E+00  0.39999999674E+01  0.40000000000E+01  0.51100000000E-03 0. -1.
    9000002   -1    0    0    0    0 -0.00000000000E+00 -0.00000000000E+00  0.00000000000E+00  0.93800000000E+00  0.93800000000E+00 0. -1.
         11    1    1    2    0    0  0.19868770127E-01 -0.73382362728E-01  0.41177440517E+00  0.41873399797E+00  0.51100000000E-03 0.  1.
    9000002    1    1    2    0    0 -0.18149312787E+00  0.65359731619E+00  0.32697838944E+00  0.12028666071E+01  0.93800000000E+00 0. -1.
         22    1    1    2    0    0  0.16162435774E+00 -0.58021495346E+00  0.32612471727E+01  0.33163993950E+01  0.00000000000E+00 0. -1.
</event>
<event>
 5    1  0.6645559E+001  0.1598057E+01  0.7818608E-02  0.3355475E+00
         11   -1    0    0    0    0  0.00000000000E+00  0.00000000000E+00  0.39999999674E+01  0.40000000000E+01  0.51100000000E-03 0.  1.
    9000002   -1    0    0    0    0 -0.00000000000E+00 -0.00000000000E+00  0.00000000000E+00  0.93800000000E+00  0.93800000000E+00 0.  1.
         11    1    1    2    0    0  0.16586550612E-01  0.28322211675E-02  0.10527733242E+00  0.10661478782E+00  0.51100000000E-03 0.  1.
    9000002    1    1    2    0    0 -0.12088695767E+00 -0.41499183961E+00  0.12795023900E+00  0.10406955112E+01  0.93800000000E+00 0.  1.
         22    1    1    2    0    0  0.10430040705E+00  0.41215961844E+00  0.37667723959E+01  0.37906897009E+01  0.00000000000E+00 0.  1.
</event>
<event>
 5    1  0.6645559E+001  0.1599670E+01  0.7818608E-02  0.3353721E+00
         11   -1    0    0    0    0  0.00000000000E+00  0.00000000000E+00  0.39999999674E+01  0.40000000000E+01  0.51100000000E-03 0. -1.
    9000002   -1    0    0    0    0 -0.00000000000E+00 -0.00000000000E+00  0.00000000000E+00  0.93800000000E+00  0.93800000000E+00 0. -1.
         11    1    1    2    0    0 -0.18758991744E-01  0.12765382487E+00  0.12726605718E+01  0.12791843459E+01  0.51100000000E-03 0. -1.
    9000002    1    1    2    0    0  0.65349569023E-01 -0.39429848742E+00  0.10775011108E+00  0.10252784743E+01  0.93800000000E+00 0. -1.
         22    1    1    2    0    0 -0.46590577280E-01  0.26664466255E+00  0.26195892845E+01  0.26335371798E+01  0.00000000000E+00 0. -1.
</event>
<event>
 5    1  0.6645559E+001  0.1599663E+01  0.7818608E-02  0.3353729E+00
         11   -1    0    0    0    0  0.00000000000E+00  0.00000000000E+00  0.39999999674E+01  0.40000000000E+01  0.51100000000E-03 0. -1.
    9000002   -1    0    0    0    0 -0.00000000000E+00 -0.00000000000E+00  0.00000000000E+00  0.93800000000E+00  0.93800000000E+00 0. -1.
         11    1    1    2    0    0 -0.38494000980E-01 -0.55170858879E-01  0.48694837159E+00  0.49157358503E+00  0.51100000000E-03 0. -1.
    9000002    1    1    2    0    0  0.28262701586E+00  0.42031669510E+00  0.17582493705E+00  0.10804177723E+01  0.93800000000E+00 0. -1.
         22    1    1    2    0    0 -0.24413301488E+00 -0.36514583622E+00  0.33372266587E+01  0.33660086426E+01  0.00000000000E+00 0. -1.
</event>
<event>
 5    1  0.6645559E+001  0.1592550E+01  0.7818608E-02  0.3361489E+00
         11   -1    0    0    0    0  0.00000000000E+00  0.00000000000E+00  0.39999999674E+01  0.40000000000E+01  0.51100000000E-03 0.  1.
    9000002   -1    0    0    0    0 -0.00000000000E+00 -0.00000000000E+00  0.00000000000E+00  0.93800000000E+00  0.93800000000E+00 0. -1.
         11    1    1    2    0    0 -0.43139891227E-01  0.68430302745E-01  0.73385160429E+00  0.73829682025E+00  0.51100000000E-03 0.  1.
    9000002    1    1    2    0    0  0.36362076995E+00  0.36331088512E-01  0.95513012784E-01  0.10111907574E+01  0.93800000000E+00 0. -1.
         22    1    1    2    0    0 -0.32048087872E+00 -0.10476139126E+00  0.31706353503E+01  0.31885124223E+01  0.00000000000E+00 0.  1.
</event>
<event>
 5    1  0.6645559E+001  0.1599637E+01  0.7818608E-02  0.3353758E+00
         11   -1    0    0    0    0  0.00000000000E+00  0.00000000000E+00  0.39999999674E+01  0.40000000000E+01  0.51100000000E-03 0.  1.
    9000002   -1    0    0    0    0 -0.00000000000E+00 -0.00000000000E+00  0.00000000000E+00  0.93800000000E+00  0.93800000000E+00 0. -1.
         11    1    1    2    0    0  0.33988677982E+00  0.57455909358E-01  0.12769695859E+01  0.13226775076E+01  0.51100000000E-03 0.  1.
    9000002    1    1    2    0    0 -0.88205315590E+00 -0.14858949561E+00  0.61101873533E+00  0.14329286455E+01  0.93800000000E+00 0. -1.
         22    1    1    2    0    0  0.54216637608E+00  0.91133586257E-01  0.21120116461E+01  0.21823938470E+01  0.00000000000E+00 0.  1.
</event>
<event>
 5    1  0.6645559E+001  0.1599647E+01  0.7818608E-02  0.3353747E+00
         11   -1    0    0    0    0  0.00000000000E+00  0.00000000000E+00  0.39999999674E+01  0.40000000000E+01  0.51100000000E-03 0.  1.
    9000002   -1    0    0    0    0 -0.00000000000E+00 -0.00000000000E+00  0.00000000000E+00  0.93800000000E+00  0.93800000000E+00 0.  1.
         11    1    1    2    0    0  0.60367901804E-01  0.78821351003E-02  0.70795670859E+00  0.71056975307E+00  0.51100000000E-03 0.  1.
    9000002    1    1    2    0    0 -0.35421946594E+00 -0.62667553216E-01  0.86881931192E-01  0.10083606112E+01  0.93800000000E+00 0.  1.
         22    1    1    2    0    0  0.29385156414E+00  0.54785418116E-01  0.32051613276E+01  0.32190696357E+01  0.00000000000E+00 0.  1.
</event>
<event>
 5    1  0.6645559E+001  0.1599583E+01  0.7818608E-02  0.3353817E+00
         11   -1    0    0    0    0  0.00000000000E+00  0.00000000000E+00  0.39999999674E+01  0.40000000000E+01  0.51100000000E-03 0. -1.
    9000002   -1    0    0    0    0 -0.00000000000E+00 -0.00000000000E+00  0.00000000000E+00  0.93800000000E+00  0.93800000000E+00 0.  1.
         11    1    1    2    0    0  0.15171175244E+00  0.53082724743E-01  0.13604757254E+01  0.13699374774E+01  0.51100000000E-03 0. -1.
    9000002    1    1    2    0    0 -0.40791870212E+00 -0.17248565611E+00  0.13316399367E+00  0.10458133764E+01  0.93800000000E+00 0.  1.
         22    1    1    2    0    0  0.25620694969E+00  0.11940293137E+00  0.25063602483E+01  0.25222491462E+01  0.00000000000E+00 0. -1.
</event>
<event>
 5    1  0.6645559E+001  0.1599674E+01  0.7818608E-02  0.3353718E+00
         11   -1    0    0    0    0  0.00000000000E+00  0.00000000000E+00  0.39999999674E+01  0.40000000000E+01  0.51100000000E-03 0.  1.
    9000002   -1    0    0    0    0 -0.00000000000E+00 -0.00000000000E+00  0.00000000000E+00  0.93800000000E+00  0.93800000000E+00 0. -1.
         11    1    1    2    0    0 -0.48971636315E-01  0.80867308788E-01  0.91521157705E+00  0.92008164566E+00  0.51100000000E-03 0.  1.
    9000002    1    1    2    0    0  0.20606682390E+00 -0.35135041431E+00  0.11201931501E+00  0.10287385365E+01  0.93800000000E+00 0. -1.
         22    1    1    2    0    0 -0.15709518758E+00  0.27048310552E+00  0.29727690753E+01  0.29891798178E+01  0.00000000000E+00 0.  1.
</event>
<event>
 5    1  0.6736097E+001  0.1599677E+01  0.7818608E-02  0.3353714E+00
         11   -1    0    0    0    0  0.00000000000E+00  0.00000000000E+00  0.39999999674E+01  0.40000000000E+01  0.51100000000E-03 0. -1.
    9000002   -1    0    0    0    0 -0.00000000000E+00 -0.00000000000E+00  0.00000000000E+00  0.93800000000E+00  0.93800000000E+00 0. -1.
         11    1    1    2    0    0 -0.52021988881E-01  0.10991922789E+00  0.13460558174E+01  0.13515380308E+01  0.51100000000E-03 0. -1.
    9000002    1    1    2    0    0  0.14992853119E+00 -0.32042575507E+00  0.83950460465E-01  0.10060034338E+01  0.93800000000E+00 0. -1.
         22    1    1    2    0    0 -0.97906542314E-01  0.21050652718E+00  0.25699936894E+01  0.25804585354E+01  0.00000000000E+00 0. -1.
</event>
<event>
 5    1  0.6645559E+001  0.1598201E+01  0.7818608E-02  0.3355318E+00
         11   -1    0    0    0    0  0.00000000000E+00  0.00000000000E+00  0.39999999674E+01  0.40000000000E+01  0.51100000000E-03 0. -1.
    9000002   -1    0    0    0    0 -0.00000000000E+00 -0.00000000000E+00  0.00000000000E+00  0.93800000000E+00  0.93800000000E+00 0.  1.
         11    1    1    2    0    0 -0.31050315392E-01 -0.86342167647E-01  0.71403593606E+00  0.71990740454E+00  0.51100000000E-03 0. -1.
    9000002    1    1    2    0    0 -0.17070740660E-01  0.41108479216E+00  0.11559368448E+00  0.10307705935E+01  0.93800000000E+00 0.  1.
         22    1    1    2    0    0  0.48121056051E-01 -0.32474262452E+00  0.31703703468E+01  0.31873220020E+01  0.00000000000E+00 0. -1.
</event>
<event>
 5    1  0.6645559E+001  0.1599676E+01  0.7818608E-02  0.3353715E+00
         11   -1    0    0    0    0  0.00000000000E+00  0.00000000000E+00  0.39999999674E+01  0.40000000000E+01  0.51100000000E-03 0.  1.
    9000002   -1    0    0    0    0 -0.00000000000E+00 -0.00000000000E+00  0.00000000000E+00  0.93800000000E+00  0.93800000000E+00 0. -1.
         11    1    1    2    0    0 -0.23229220820E-02 -0.84349382092E-01  0.61537978298E+00  0.62113827176E+00  0.51100000000E-03 0. -1.
    9000002    1    1    2    0    0  0.13022907691E-01  0.51891558869E+00  0.18505564086E+00  0.10879028332E+01  0.93800000000E+00 0. -1.
         22    1    1    2    0    0 -0.10699985609E-01 -0.43456620659E+00  0.31995645435E+01  0.32289588950E+01  0.00000000000E+00 0.  1.
</event>
<event>
 5    1  0.6645559E+001  0.1499450E+01  0.7818608E-02  0.3470291E+00
         11   -1    0    0    0    0  0.00000000000E+00  0.00000000000E+00  0.39999999674E+01  0.40000000000E+01  0.51100000000E-03 0.  1.
    9000002   -1    0    0    0    0 -0.00000000000E+00 -0.00000000000E+00  0.00000000000E+00  0.93800000000E+00  0.93800000000E+00 0.  1.
         11    1    1    2    0    0  0.14837444434E+00  0.12118542757E+00  0.31174593822E+00  0.36590528106E+00  0.51100000000E-03 0.  1.
    9000002    1    1    2    0    0  0.18396356390E+00  0.18824584436E+00  0.12753914658E+00  0.98254227628E+00  0.93800000000E+00 0.  1.
         22    1    1    2    0    0 -0.33233800823E+00 -0.30943127193E+00  0.35607148826E+01  0.35895524427E+01  0.00000000000E+00 0.  1.
</event>
<event>
 5    1  0.6645559E+001  0.1516365E+01  0.7818608E-02  0.3449460E+00
         11   -1    0    0    0    0  0.00000000000E+00  0.00000000000E+00  0.39999999674E+01  0.40000000000E+01  0.51100000000E-03 0. -1.
    9000002   -1    0    0    0    0 -0.00000000000E+00 -0.00000000000E+00  0.00000000000E+00  0.93800000000E+00  0.93800000000E+00 0.  1.
         11    1    1    2    0    0  0.15366023934E+00 -0.19277604559E+00  0.12809640864E+00  0.27781832901E+00  0.51100000000E-03 0. -1.
    9000002    1    1    2    0    0  0.10502615874E+00 -0.32158474577E-01  0.19122562310E+00  0.96357454327E+00  0.93800000000E+00 0.  1.
         22    1    1    2    0    0 -0.25868639808E+00  0.22493452017E+00  0.36806779356E+01  0.36966071277E+01  0.00000000000E+00 0. -1.
</event>
<event>
 5    1  0.6645559E+001  0.1599676E+01  0.7818608E-02  0.3353715E+00
         11   -1    0    0    0    0  0.00000000000E+00  0.00000000000E+00  0.39999999674E+01  0.40000000000E+01  0.51100000000E-03 0.  1.
    9000002   -1    0    0    0    0 -0.00000000000E+00 -0.00000000000E+00  0.00000000000E+00  0.93800000000E+00  0.93800000000E+00 0. -1.
         11    1    1    2    0    0 -0.54509654973E-01  0.36526364107E-01  0.63954703428E+00  0.64290446253E+00  0.51100000000E-03 0.  1.
    9000002    1    1    2    0    0  0.33173265702E+00 -0.21868714675E+00  0.10645104677E+00  0.10242296858E+01  0.93800000000E+00 0. -1.
         22    1    1    2    0    0 -0.27722300205E+00  0.18216078264E+00  0.32540018863E+01  0.32708658517E+01  0.00000000000E+00 0.  1.
</event>
<event>
 5    1  0.7824063E+001  0.1576848E+01  0.7818608E-02  0.3378881E+00
         11   -1    0    0    0    0  0.00000000000E+00  0.00000000000E+00  0.39999999674E+01  0.40000000000E+01  0.51100000000E-03 0. -1.
    9000002   -1    0    0    0    0 -0.00000000000E+00 -0.00000000000E+00  0.00000000000E+00  0.93800000000E+00  0.93800000000E+00 0.  1.
         11    1    1    2    0    0  0.10713623265E+00 -0.57802129806E-01  0.10514378820E+01  0.10584616854E+01  0.51100000000E-03 0. -1.
    9000002    1    1    2    0    0  0.56378355314E-01 -0.17502942020E+00  0.39577531253E-01  0.95667350641E+00  0.93800000000E+00 0.  1.
         22    1    1    2    0    0 -0.16351458796E+00  0.23283155000E+00  0.29089845541E+01  0.29228648082E+01  0.00000000000E+00 0. -1.
</event>
<event>
 5    1  0.6645559E+001  0.1592360E+01  0.7818608E-02  0.3361697E+00
         11   -1    0    0    0    0  0.00000000000E+00  0.00000000000E+00  0.39999999674E+01  0.40000000000E+01  0.51100000000E-03 0.  1.
    9000002   -1    0    0    0    0 -0.00000000000E+00 -0.00000000000E+00  0.00000000000E+00  0.93800000000E+00  0.93800000000E+00 0.  1.
         11    1    1    2    0    0  0.46592615963E-01  0.11257141498E+00  0.38377287787E+00  0.40264758567E+00  0.51100000000E-03 0.  1.
    9000002    1    1    2    0    0 -0.25896631370E-01 -0.63770549517E+00  0.29427193833E+00  0.11720831488E+01  0.93800000000E+00 0.  1.
         22    1    1    2    0    0 -0.20695984593E-01  0.52513408020E+00  0.33219551512E+01  0.33632692655E+01  0.00000000000E+00 0.  1.
</event>
<event>
 5    1  0.6645559E+001  0.1598756E+01  0.7818608E-02  0.3354715E+00
         11   -1    0    0    0    0  0.00000000000E+00  0.00000000000E+00  0.39999999674E+01  0.40000000000E+01  0.51100000000E-03 0.  1.
    9000002   -1    0    0    0    0 -0.00000000000E+00 -0.00000000000E+00  0.00000000000E+00  0.93800000000E+00  0.93800000000E+00 0. -1.
         11    1    1    2    0    0 -0.31060577999E-01  0.57943545658E-01  0.51501974013E+00  0.51919919860E+00  0.51100000000E-03 0.  1.
    9000002    1    1    2    0    0  0.47937416690E-01 -0.41931467421E+00  0.12127761274E+00  0.10357002710E+01  0.93800000000E+00 0. -1.
         22    1    1    2    0    0 -0.16876838691E-01  0.36137112856E+00  0.33637026145E+01  0.33831005304E+01  0.00000000000E+00 0.  1.
</event>
<event>
 5    1  0.6645559E+001  0.1599640E+01  0.7818608E-02  0.3353754E+00
         11   -1    0    0    0    0  0.00000000000E+00  0.00000000000E+00  0.39999999674E+01  0.40000000000E+01  0.51100000000E-03 0. -1.
    9000002   -1    0    0    0    0 -0.00000000000E+00 -0.00000000000E+00  0.00000000000E+00  0.93800000000E+00  0.93800000000E+00 0.  1.
         11    1    1    2    0    0 -0.48987300352E-01 -0.67611401514E-01  0.59959529435E+00  0.60538073585E+00  0.51100000000E-03 0. -1.
    9000002    1    1    2    0    0  0.29596655141E+00  0.40231221224E+00  0.17078056527E+00  0.10763184088E+01  0.93800000000E+00 0.  1.
         22    1    1    2    0    0 -0.24697925106E+00 -0.33470081073E+00  0.32296241077E+01  0.32563008553E+01  0.00000000000E+00 0. -1.
</event>
<event>
 5    1  0.7253557E+001  0.1599677E+01  0.7818608E-02  0.3353714E+00
         11   -1    0    0    0    0  0.00000000000E+00  0.00000000000E+00  0.39999999674E+01  0.40000000000E+01  0.51100000000E-03 0. -1.
    9000002   -1    0    0    0    0 -0.00000000000E+00 -0.00000000000E+00  0.00000000000E+00  0.93800000000E+00  0.93800000000E+00 0.  1.
         11    1    1    2    0    0 -0.79879003885E-01 -0.11775467682E+00  0.14697943486E+01  0.14766660108E+01  0.51100000000E-03 0. -1.
    9000002    1    1    2    0    0  0.21411392837E+00  0.31296062755E+00  0.96738038666E-01  0.10163618336E+01  0.93800000000E+00 0.  1.
         22    1    1    2    0    0 -0.13423492449E+00 -0.19520595073E+00  0.24334675801E+01  0.24449721556E+01  0.00000000000E+00 0. -1.
</event>
<event>
 5    1  0.8290548E+001  0.1584182E+01  0.7818608E-02  0.3370713E+00
         11   -1    0    0    0    0  0.00000000000E+00  0.00000000000E+00  0.39999999674E+01  0.40000000000E+01  0.51100000000E-03 0.  1.
    9000002   -1    0    0    0    0 -0.00000000000E+00 -0.00000000000E+00  0.00000000000E+00  0.93800000000E+00  0.93800000000E+00 0. -1.
         11    1    1    2    0    0  0.70867338813E-01 -0.49375625395E-01  0.12247226353E+01  0.12277646055E+01  0.51100000000E-03 0.  1.
    9000002    1    1    2    0    0  0.50264650272E-01 -0.19022800819E+00  0.37314051408E-01  0.95914001512E+00  0.93800000000E+00 0. -1.
         22    1    1    2    0    0 -0.12113198908E+00  0.23960363359E+00  0.27379632806E+01  0.27510953793E+01  0.00000000000E+00 0.  1.
</event>
<event>
 5    1  0.6645559E+001  0.1599636E+01  0.7818608E-02  0.3353759E+00
         11   -1    0    0    0    0  0.00000000000E+00  0.00000000000E+00  0.39999999674E+01  0.40000000000E+01  0.51100000000E-03 0.  1.
    9000002   -1    0    0    0    0 -0.00000000000E+00 -0.00000000000E+00  0.00000000000E+00  0.93800000000E+00  0.93800000000E+00 0. -1.
         11    1    1    2    0    0  0.82709642287E-01  0.26204068506E-01  0.51844211256E+00  0.52565199831E+00  0.51100000000E-03 0.  1.
    9000002    1    1    2    0    0 -0.56036285105E+00 -0.18846561851E+00  0.24345109602E+00  0.11351820340E+01  0.93800000000E+00 0. -1.
         22    1    1    2    0    0  0.47765320876E+00  0.16226155000E+00  0.32381067588E+01  0.32771659677E+01  0.00000000000E+00 0.  1.
</event>
<event>
 5    1  0.6645559E+001  0.1598770E+01  0.7818608E-02  0.3354699E+00
         11   -1    0    0    0    0  0.00000000000E+00  0.00000000000E+00  0.39999999674E+01  0.40000000000E+01  0.51100000000E-03 0. -1.
    9000002   -1    0    0    0    0 -0.00000000000E+00 -0.00000000000E+00  0.00000000000E+00  0.93800000000E+00  0.93800000000E+00 0. -1.
         11    1    1    2    0    0 -0.83561431470E-02 -0.13713310547E-01  0.12546184934E+00  0.12648642921E+00  0.51100000000E-03 0. -1.
    9000002    1    1    2    0    0  0.42359310120E+00  0.63854146059E-01  0.12502115889E+00  0.10387409482E+01  0.93800000000E+00 0. -1.
         22    1    1    2    0    0 -0.41523695805E+00 -0.50140835512E-01  0.37495169591E+01  0.37727726226E+01  0.00000000000E+00 0. -1.
</event>
<event>
 5    1  0.6645559E+001  0.1599606E+01  0.7818608E-02  0.3353791E+00
         11   -1    0    0    0    0  0.00000000000E+00  0.00000000000E+00  0.39999999674E+01  0.40000000000E+01  0.51100000000E-03 0. -1.
    9000002   -1    0    0    0    0 -0.00000000000E+00 -0.00000000000E+00  0.00000000000E+00  0.93800000000E+00  0.93800000000E+00 0.  1.
         11    1    1    2    0    0 -0.55437313434E-01  0.17095892668E-01  0.45103527837E+00  0.45475119431E+00  0.51100000000E-03 0. -1.
    9000002    1    1    2    0    0  0.42463430518E+00 -0.17197822464E+00  0.14278923252E+00  0.10536240163E+01  0.93800000000E+00 0.  1.
         22    1    1    2    0    0 -0.36919699175E+00  0.15488233197E+00  0.34061754565E+01  0.34296247894E+01  0.00000000000E+00 0. -1.
</event>
<event>
 5    1  0.6645559E+001  0.1599144E+01  0.7818608E-02  0.3354293E+00
         11   -1    0    0    0    0  0.00000000000E+00  0.00000000000E+00  0.39999999674E+01  0.40000000000E+01  0.51100000000E-03 0. -1.
    9000002   -1    0    0    0    0 -0.00000000000E+00 -0.00000000000E+00  0.00000000000E+00  0.93800000000E+00  0.93800000000E+00 0. -1.
         11    1    1    2    0    0 -0.38155836013E-01 -0.15019680895E-01  0.52950612722E+00  0.53109176092E+00  0.51100000000E-03 0. -1.
    9000002    1    1    2    0    0  0.38774029610E+00  0.19824570038E+00  0.12898853226E+00  0.10421736594E+01  0.93800000000E+00 0. -1.
         22    1    1    2    0    0 -0.34958446008E+00 -0.18322601949E+00  0.33415053079E+01  0.33647345797E+01  0.00000000000E+00 0. -1.
</event>
<event>
 5    1  0.6645559E+001  0.1597799E+01  0.7818608E-02  0.3355756E+00
         11   -1    0    0    0    0  0.00000000000E+00  0.00000000000E+00  0.39999999674E+01  0.40000000000E+01  0.51100000000E-03 0. -1.
    9000002   -1    0    0    0    0 -0.00000000000E+00 -0.00000000000E+00  0.00000000000E+00  0.93800000000E+00  0.93800000000E+00 0.  1.
         11    1    1    2    0    0  0.30611357355E-01 -0.26462054646E-01  0.98974323703E+00  0.99057015497E+00  0.51100000000E-03 0. -1.
    9000002    1    1    2    0    0 -0.30083417677E+00  0.12108519795E+00  0.71812213462E-01  0.99506975689E+00  0.93800000000E+00 0.  1.
         22    1    1    2    0    0  0.27022281941E+00 -0.94623143307E-01  0.29384445169E+01  0.29523600881E+01  0.00000000000E+00 0. -1.
</event>
<event>
 5    1  0.6645559E+001  0.1599603E+01  0.7818608E-02  0.3353795E+00
         11   -1    0    0    0    0  0.00000000000E+00  0.00000000000E+00  0.39999999674E+01  0.40000000000E+01  0.51100000000E-03 0.  1.
    9000002   -1    0    0    0    0 -0.00000000000E+00 -0.00000000000E+00  0.00000000000E+00  0.93800000000E+00  0.93800000000E+00 0.  1.
         11    1    1    2    0    0  0.14608280802E+00 -0.16137216751E+00  0.14043503496E+01  0.14211197447E+01  0.51100000000E-03 0.  1.
    9000002    1    1    2    0    0 -0.39673098012E+00  0.40707272357E+00  0.22403905400E+00  0.11194378815E+01  0.93800000000E+00 0.  1.
         22    1    1    2    0    0  0.25064817210E+00 -0.24570055606E+00  0.23716105637E+01  0.23974423738E+01  0.00000000000E+00 0.  1.
</event>
<event>
 5    1  0.6645559E+001  0.1519154E+01  0.7818608E-02  0.3446073E+00
         11   -1    0    0    0    0  0.00000000000E+00  0.00000000000E+00  0.39999999674E+01  0.40000000000E+01  0.51100000000E-03 0.  1.
    9000002   -1    0    0    0    0 -0.00000000000E+00 -0.00000000000E+00  0.00000000000E+00  0.93800000000E+00  0.93800000000E+00 0. -1.
         11    1    1    2    0    0  0.86947406082E-01 -0.24434426792E+00  0.90203698742E+00  0.93858135529E+00  0.51100000000E-03 0.  1.
    9000002    1    1    2    0    0  0.33765011885E-01 -0.12082113961E+00  0.71972282475E-01  0.94908473449E+00  0.93800000000E+00 0. -1.
         22    1    1    2    0    0 -0.12071241797E+00  0.36516540753E+00  0.30259906975E+01  0.30503339102E+01  0.00000000000E+00 0.  1.
</event>
<event>
 5    1  0.6645559E+001  0.1588067E+01  0.7818608E-02  0.3366418E+00
         11   -1    0    0    0    0  0.00000000000E+00  0.00000000000E+00  0.39999999674E+01  0.40000000000E+01  0.51100000000E-03 0. -1.
    9000002   -1    0    0    0    0 -0.00000000000E+00 -0.00000000000E+00  0.00000000000E+00  0.93800000000E+00  0.93800000000E+00 0. -1.
         11    1    1    2    0    0  0.66479524894E-01  0.69016622110E-01  0.13156577829E+01  0.13191430871E+01  0.51100000000E-03 0. -1.
    9000002    1    1    2    0    0  0.13201252886E+00 -0.35883048595E+00  0.10799428426E+00  0.10186723668E+01  0.93800000000E+00 0. -1.
         22    1    1    2    0    0 -0.19849205375E+00  0.28981386384E+00  0.25763479002E+01  0.26001845461E+01  0.00000000000E+00 0. -1.
</event>
<event>
 5    1  0.6645559E+001  0.1599569E+01  0.7818608E-02  0.3353831E+00
         11   -1    0    0    0    0  0.00000000000E+00  0.00000000000E+00  0.39999999674E+01  0.40000000000E+01  0.51100000000E-03 0.  1.
    9000002   -1    0    0    0    0 -0.00000000000E+00 -0.00000000000E+00  0.00000000000E+00  0.93800000000E+00  0.93800000000E+00 0. -1.
         11    1    1    2    0    0 -0.51755345283E-01  0.30801849577E-01  0.51029234107E+00  0.51383451049E+00  0.51100000000E-03 0.  1.
    9000002    1    1    2    0    0  0.43454966511E+00 -0.18622169440E+00  0.15242705294E+00  0.10614094108E+01  0.93800000000E+00 0. -1.
         22    1    1    2    0    0 -0.38279431983E+00  0.15541984482E+00  0.33372805734E+01  0.33627560787E+01  0.00000000000E+00 0.  1.
</event>
<event>
 5    1  0.1211931E+002  0.1518793E+01  0.7818608E-02  0.3446511E+00
         11   -1    0    0    0    0  0.00000000000E+00  0.00000000000E+00  0.39999999674E+01  0.40000000000E+01  0.51100000000E-03 0. -1.
    9000002   -1    0    0    0    0 -0.00000000000E+00 -0.00000000000E+00  0.00000000000E+00  0.93800000000E+00  0.93800000000E+00 0. -1.
         11    1    1    2    0    0 -0.22136204509E+00  0.15150595075E+00  0.80468871544E+00  0.84822131427E+00  0.51100000000E-03 0. -1.
    9000002    1    1    2    0    0  0.10427098603E-01  0.93883378312E-01  0.67374549665E-01  0.94514874123E+00  0.93800000000E+00 0. -1.
         22    1    1    2    0    0  0.21093494649E+00 -0.24538932906E+00  0.31279367023E+01  0.31446299445E+01  0.00000000000E+00 0. -1.
</event>
<event>
 5    1  0.6645559E+001  0.1589701E+01  0.7818608E-02  0.3364618E+00
         11   -1    0    0    0    0  0.00000000000E+00  0.00000000000E+00  0.39999999674E+01  0.40000000000E+01  0.51100000000E-03 0.  1.
    9000002   -1    0    0    0    0 -0.00000000000E+00 -0.00000000000E+00  0.00000000000E+00  0.93800000000E+00  0.93800000000E+00 0.  1.
         11    1    1    2    0    0  0.77587502729E-01  0.36568114639E-01  0.30167947805E+00  0.31363643950E+00  0.51100000000E-03 0.  1.
    9000002    1    1    2    0    0 -0.62623352526E+00  0.29872145579E+00  0.35465648628E+00  0.12194376407E+01  0.93800000000E+00 0.  1.
         22    1    1    2    0    0  0.54864602254E+00 -0.33528957043E+00  0.33436640030E+01  0.34049259198E+01  0.00000000000E+00 0.  1.
</event>
<event>
 5    1  0.6645559E+001  0.1598305E+01  0.7818608E-02  0.3355205E+00
         11   -1    0    0    0    0  0.00000000000E+00  0.00000000000E+00  0.39999999674E+01  0.40000000000E+01  0.51100000000E-03 0. -1.
    9000002   -1    0    0    0    0 -0.00000000000E+00 -0.00000000000E+00  0.00000000000E+00  0.93800000000E+00  0.93800000000E+00 0. -1.
         11    1    1    2    0    0  0.23058861532E-01 -0.16003053748E+00  0.80202834259E+00  0.81816331344E+00  0.51100000000E-03 0. -1.
    9000002    1    1    2    0    0  0.62356596597E-01  0.71020358956E+00  0.36610352659E+00  0.12337557603E+01  0.93800000000E+00 0. -1.
         22    1    1    2    0    0 -0.85415458129E-01 -0.55017305209E+00  0.28318680982E+01  0.28860809263E+01  0.00000000000E+00 0. -1.
</event>
<event>
 5    1  0.6645559E+001  0.1599677E+01  0.7818608E-02  0.3353714E+00
         11   -1    0    0    0    0  0.00000000000E+00  0.00000000000E+00  0.39999999674E+01  0.40000000000E+01  0.51100000000E-03 0.  1.
    9000002   -1    0    0    0    0 -0.00000000000E+00 -0.00000000000E+00  0.00000000000E+00  0.93800000000E+00  0.93800000000E+00 0.  1.
         11    1    1    2    0    0 -0.28547884117E-01 -0.67735454968E-01  0.72865458682E+00  0.73235294877E+00  0.51100000000E-03 0.  1.
    9000002    1    1    2    0    0  0.15007591761E+00  0.36110889225E+00  0.10303272586E+00  0.10214607950E+01  0.93800000000E+00 0.  1.
         22    1    1    2    0    0 -0.12152803349E+00 -0.29337343729E+00  0.31683126547E+01  0.31841862562E+01  0.00000000000E+00 0.  1.
</event>
<event>
 5    1  0.6645559E+001  0.1599654E+01  0.7818608E-02  0.3353739E+00
         11   -1    0    0    0    0  0.00000000000E+00  0.00000000000E+00  0.39999999674E+01  0.40000000000E+01  0.51100000000E-03 0. -1.
    9000002   -1    0    0    0    0 -0.00000000000E+00 -0.00000000000E+00  0.00000000000E+00  0.93800000000E+00  0.93800000000E+00 0.  1.
         11    1    1    2    0    0 -0.10713732304E-01  0.22914633290E-01  0.24763709556E+00  0.24892620733E+00  0.51100000000E-03 0. -1.
    9000002    1    1    2    0    0  0.13122266252E+00 -0.33942691038E+00  0.88953893978E-01  0.10100429743E+01  0.93800000000E+00 0.  1.
         22    1    1    2    0    0 -0.12050893022E+00  0.31651227709E+00  0.36634089778E+01  0.36790308184E+01  0.00000000000E+00 0. -1.
</event>
<event>
 5    1  0.6645559E+001  0.1599677E+01  0.7818608E-02  0.3353714E+00
         11   -1    0    0    0    0  0.00000000000E+00  0.00000000000E+00  0.39999999674E+01  0.40000000000E+01  0.51100000000E-03 0. -1.
    9000002   -1    0    0    0    0 -0.00000000000E+00 -0.00000000000E+00  0.00000000000E+00  0.93800000000E+00  0.93800000000E+00 0.  1.
         11    1    1    2    0    0  0.16041223657E-01  0.13090480192E+00  0.12886122164E+01  0.12953436198E+01  0.51100000000E-03 0. -1.
    9000002    1    1    2    0    0 -0.48249218702E-01 -0.39655218005E+00  0.10763387672E+00  0.10251881145E+01  0.93800000000E+00 0.  1.
         22    1    1    2    0    0  0.32207995045E-01  0.26564737813E+00  0.26037538743E+01  0.26174682658E+01  0.00000000000E+00 0. -1.
</event>
<event>
 5    1  0.6645559E+001  0.1596765E+01  0.7818608E-02  0.3356882E+00
         11   -1    0    0    0    0  0.00000000000E+00  0.00000000000E+00  0.39999999674E+01  0.40000000000E+01  0.51100000000E-03 0.  1.
    9000002   -1    0    0    0    0 -0.00000000000E+00 -0.00000000000E+00  0.00000000000E+00  0.93800000000E+00  0.93800000000E+00 0. -1.
         11    1    1    2    0    0 -0.47746859053E-01  0.16898274023E-01  0.11995464718E+01  0.12006153895E+01  0.51100000000E-03 0.  1.
    9000002    1    1    2    0    0  0.27707316845E+00 -0.20918922329E+00  0.83135878768E-01  0.10036360128E+01  0.93800000000E+00 0. -1.
         22    1    1    2    0    0 -0.22932630940E+00  0.19229094927E+00  0.27173176168E+01  0.27337485978E+01  0.00000000000E+00 0.  1.
</event>
<event>
 5    1  0.6645559E+001  0.1599675E+01  0.7818608E-02  0.3353717E+00
         11   -1    0    0    0    0  0.00000000000E+00  0.00000000000E+00  0.39999999674E+01  0.40000000000E+01  0.51100000000E-03 0. -1.
    9000002   -1    0    0    0    0 -0.00000000000E+00 -0.00000000000E+00  0.00000000000E+00  0.93800000000E+00  0.93800000000E+00 0. -1.
         11    1    1    2    0    0  0.14401062272E-01 -0.19992228740E-01  0.22748135232E+00  0.22881238292E+00  0.51100000000E-03 0. -1.
    9000002    1    1    2    0    0 -0.23888989951E+00  0.33063990711E+00  0.11235156163E+00  0.10290082632E+01  0.93800000000E+00 0. -1.
         22    1    1    2    0    0  0.22448883724E+00 -0.31064767837E+00  0.36601670534E+01  0.36801793539E+01  0.00000000000E+00 0. -1.
</event>
<event>
 5    1  0.6645559E+001  0.1599677E+01  0.7818608E-02  0.3353714E+00
         11   -1    0    0    0    0  0.00000000000E+00  0.00000000000E+00  0.39999999674E+01  0.40000000000E+01  0.51100000000E-03 0.  1.
    9000002   -1    0    0    0    0 -0.00000000000E+00 -0.00000000000E+00  0.00000000000E+00  0.93800000000E+00  0.93800000000E+00 0. -1.
         11    1    1    2    0    0 -0.47085906015E-01 -0.17060827932E+00  0.99029243178E+00  0.10059839109E+01  0.51100000000E-03 0. -1.
    9000002    1    1    2    0    0  0.17417097249E+00  0.63648353075E+00  0.30801057532E+00  0.11875021377E+01  0.93800000000E+00 0. -1.
         22    1    1    2    0    0 -0.12708506647E+00 -0.46587525142E+00  0.27016969603E+01  0.27445139513E+01  0.00000000000E+00 0.  1.
</event>
<event>
 5    1  0.6645559E+001  0.1560410E+01  0.7818608E-02  0.3397487E+00
         11   -1    0    0    0    0  0.00000000000E+00  0.00000000000E+00  0.39999999674E+01  0.40000000000E+01  0.51100000000E-03 0.  1.
    9000002   -1    0    0    0    0 -0.00000000000E+00 -0.00000000000E+00  0.00000000000E+00  0.93800000000E+00  0.93800000000E+00 0. -1.
         11    1    1    2    0    0 -0.80622582074E-01 -0.43844442082E-03  0.12007018551E+01  0.12034057499E+01  0.51100000000E-03 0.  1.
    9000002    1    1    2    0    0 -0.25860999354E+00  0.47778296432E+00  0.24141470721E+00  0.11105317423E+01  0.93800000000E+00 0. -1.
         22    1    1    2    0    0  0.33923257561E+00 -0.47734451990E+00  0.25578834051E+01  0.26240625078E+01  0.00000000000E+00 0.  1.
</event>
<event>
 5    1  0.6645559E+001  0.1599462E+01  0.7818608E-02  0.3353948E+00
         11   -1    0    0    0    0  0.00000000000E+00  0.00000000000E+00  0.39999999674E+01  0.40000000000E+01  0.51100000000E-03 0. -1.
    9000002   -1    0    0    0    0 -0.00000000000E+00 -0.00000000000E+00  0.00000000000E+00  0.93800000000E+00  0.93800000000E+00 0. -1.
         11    1    1    2    0    0  0.15168391034E+00  0.20670923283E+00  0.13661362421E+01  0.13899874851E+01  0.51100000000E-03 0. -1.
    9000002    1    1    2    0    0 -0.44932993005E+00 -0.54103060252E+00  0.35404244324E+00  0.12246638520E+01  0.93800000000E+00 0. -1.
         22    1    1    2    0    0  0.29764601971E+00  0.33432136969E+00  0.22798212820E+01  0.23233486629E+01  0.00000000000E+00 0. -1.
</event>
<event>
 5    1  0.6645559E+001  0.1599660E+01  0.7818608E-02  0.3353732E+00
         11   -1    0    0    0    0  0.00000000000E+00  0.00000000000E+00  0.39999999674E+01  0.40000000000E+01  0.51100000000E-03 0.  1.
    9000002   -1    0    0    0    0 -0.00000000000E+00 -0.00000000000E+00  0.00000000000E+00  0.93800000000E+00  0.93800000000E+00 0. -1.
         11    1    1    2    0    0 -0.47838026840E-02  0.15710484872E-03  0.24248550027E-01  0.24721706038E-01  0.51100000000E-03 0.  1.
    9000002    1    1    2    0    0  0.78987129141E+00 -0.47414962711E-01  0.45990743601E+00  0.13105356483E+01  0.93800000000E+00 0. -1.
         22    1    1    2    0    0 -0.78508748873E+00  0.47257857862E-01  0.35158439813E+01  0.36027426457E+01  0.00000000000E+00 0.  1.
</event>
<event>
 5    1  0.6645559E+001  0.1599665E+01  0.7818608E-02  0.3353727E+00
         11   -1    0    0    0    0  0.00000000000E+00  0.00000000000E+00  0.39999999674E+01  0.40000000000E+01  0.51100000000E-03 0.  1.
    9000002   -1    0    0    0    0 -0.00000000000E+00 -0.00000000000E+00  0.00000000000E+00  0.93800000000E+00  0.93800000000E+00 0. -1.
         11    1    1    2    0    0 -0.89851171521E-01  0.27574121338E+00  0.13549551632E+01  0.13856443285E+01  0.51100000000E-03 0.  1.
    9000002    1    1    2    0    0  0.24590005450E+00 -0.72195179028E+00  0.42333402313E+00  0.12809125339E+01  0.93800000000E+00 0. -1.
         22    1    1    2    0    0 -0.15604888298E+00  0.44621057689E+00  0.22217107810E+01  0.22714431376E+01  0.00000000000E+00 0.  1.
</event>
<event>
 5    1  0.6645559E+001  0.1599054E+01  0.7818608E-02  0.3354391E+00
         11   -1    0    0    0    0  0.00000000000E+00  0.00000000000E+00  0.39999999674E+01  0.40000000000E+01  0.51100000000E-03 0.  1.
    9000002   -1    0    0    0    0 -0.00000000000E+00 -0.00000000000E+00  0.00000000000E+00  0.93800000000E+00  0.93800000000E+00 0.  1.
         11    1    1    2    0    0  0.48803728744E-01  0.15381250116E+00  0.14103681595E+01  0.14195698982E+01  0.51100000000E-03 0.  1.
    9000002    1    1    2    0    0 -0.19509506127E+00 -0.46530722545E+00  0.17496729013E+00  0.10793657627E+01  0.93800000000E+00 0.  1.
         22    1    1    2    0    0  0.14629133253E+00  0.31149472429E+00  0.24146645177E+01  0.24390643391E+01  0.00000000000E+00 0.  1.
</event>
<event>
 5    1  0.6645559E+001  0.1599674E+01  0.7818608E-02  0.3353717E+00
         11   -1    0    0    0    0  0.00000000000E+00  0.00000000000E+00  0.39999999674E+01  0.40000000000E+01  0.51100000000E-03 0. -1.
    9000002   -1    0    0    0    0 -0.00000000000E+00 -0.00000000000E+00  0.00000000000E+00  0.93800000000E+00  0.93800000000E+00 0.  1.
         11    1    1    2    0    0  0.16510204505E-01 -0.71123213045E-01  0.71825577908E+00  0.72195756357E+00  0.51100000000E-03 0. -1.
    9000002    1    1    2    0    0 -0.92032739892E-01  0.39264308276E+00  0.10975158321E+00  0.10269021500E+01  0.93800000000E+00 0.  1.
         22    1    1    2    0    0  0.75522535387E-01 -0.32151986971E+00  0.31719926051E+01  0.31891402864E+01  0.00000000000E+00 0. -1.
</event>
<event>
 5    1  0.6645559E+001  0.1599102E+01  0.7818608E-02  0.3354339E+00
         11   -1    0    0    0    0  0.00000000000E+00  0.00000000000E+00  0.39999999674E+01  0.40000000000E+01  0.51100000000E-03 0.  1.
    9000002   -1    0    0    0    0 -0.00000000000E+00 -0.00000000000E+00  0.00000000000E+00  0.93800000000E+00  0.93800000000E+00 0. -1.
         11    1    1    2    0    0  0.13213265668E+00 -0.38045242345E-01  0.10736595088E+01  0.10824285110E+01  0.51100000000E-03 0.  1.
    9000002    1    1    2    0    0 -0.41555016521E+00  0.20865022679E+00  0.14768578406E+00  0.10572946362E+01  0.93800000000E+00 0. -1.
         22    1    1    2    0    0  0.28341750853E+00 -0.17060498444E+00  0.27786546745E+01  0.27982768528E+01  0.00000000000E+00 0.  1.
</event>
<event>
 5    1  0.6645559E+001  0.1599676E+01  0.7818608E-02  0.3353715E+00
         11   -1    0    0    0    0  0.00000000000E+00  0.00000000000E+00  0.39999999674E+01  0.40000000000E+01  0.51100000000E-03 0. -1.
    9000002   -1    0    0    0    0 -0.00000000000E+00 -0.00000000000E+00  0.00000000000E+00  0.93800000000E+00  0.93800000000E+00 0.  1.
         11    1    1    2    0    0 -0.73838108397E-01  0.96708898240E-01  0.10646101968E+01  0.10715408576E+01  0.51100000000E-03 0. -1.
    9000002    1    1    2    0    0  0.26808095695E+00 -0.34868941870E+00  0.13119558322E+00  0.10442739062E+01  0.93800000000E+00 0.  1.
         22    1    1    2    0    0 -0.19424284855E+00  0.25198052046E+00  0.28041941874E+01  0.28221852362E+01  0.00000000000E+00 0. -1.
</event>
<event>
 5    1  0.6645559E+001  0.1599004E+01  0.7818608E-02  0.3354445E+00
         11   -1    0    0    0    0  0.00000000000E+00  0.00000000000E+00  0.39999999674E+01  0.40000000000E+01  0.51100000000E-03 0.  1.
    9000002   -1    0    0    0    0 -0.00000000000E+00 -0.00000000000E+00  0.00000000000E+00  0.93800000000E+00  0.93800000000E+00 0. -1.
         11    1    1    2    0    0 -0.22097663407E-01  0.18016601598E+00  0.13135005550E+01  0.13259834347E+01  0.51100000000E-03 0.  1.
    9000002    1    1    2    0    0  0.42223007866E-02 -0.46566733876E+00  0.14822772215E+00  0.10576763947E+01  0.93800000000E+00 0. -1.
         22    1    1    2    0    0  0.17875362621E-01  0.28550132278E+00  0.25382716902E+01  0.25543401706E+01  0.00000000000E+00 0.  1.
</event>
<event>
 5    1  0.6645559E+001  0.1485784E+01  0.7818608E-02  0.3487493E+00
         11   -1    0    0    0    0  0.00000000000E+00  0.00000000000E+00  0.39999999674E+01  0.40000000000E+01  0.51100000000E-03 0.  1.
    9000002   -1    0    0    0    0 -0.00000000000E+00 -0.00000000000E+00  0.00000000000E+00  0.93800000000E+00  0.93800000000E+00 0.  1.
         11    1    1    2    0    0  0.26467249479E+00  0.12076502682E+00  0.58694605652E+00  0.65508904401E+00  0.51100000000E-03 0.  1.
    9000002    1    1    2    0    0 -0.31575707491E+00  0.59156985621E+00  0.45450353228E+00  0.12393848821E+01  0.93800000000E+00 0.  1.
         22    1    1    2    0    0  0.51084580115E-01 -0.71233488303E+00  0.29585503786E+01  0.30435260739E+01  0.00000000000E+00 0.  1.
</event>
<event>
 5    1  0.6645559E+001  0.1598746E+01  0.7818608E-02  0.3354726E+00
         11   -1    0    0    0    0  0.00000000000E+00  0.00000000000E+00  0.39999999674E+01  0.40000000000E+01  0.51100000000E-03 0. -1.
    9000002   -1    0    0    0    0 -0.00000000000E+00 -0.00000000000E+00  0.00000000000E+00  0.93800000000E+00  0.93800000000E+00 0.  1.
         11    1    1    2    0    0  0.81319260761E-01  0.12476299401E+00  0.10901315062E+01  0.11002570558E+01  0.51100000000E-03 0. -1.
    9000002    1    1    2    0    0 -0.38890589226E+00 -0.38778134192E+00  0.20917780215E+00  0.11068972469E+01  0.93800000000E+00 0.  1.
         22    1    1    2    0    0  0.30758663150E+00  0.26301834791E+00  0.27006906590E+01  0.27308456973E+01  0.00000000000E+00 0. -1.
</event>
<event>
 5    1  0.6645559E+001  0.1599677E+01  0.7818608E-02  0.3353714E+00
         11   -1    0    0    0    0  0.00000000000E+00  0.00000000000E+00  0.39999999674E+01  0.40000000000E+01  0.51100000000E-03 0. -1.
    9000002   -1    0    0    0    0 -0.00000000000E+00 -0.00000000000E+00  0.00000000000E+00  0.93800000000E+00  0.93800000000E+00 0. -1.
         11    1    1    2    0    0  0.46324009100E-01 -0.10433663575E+00  0.10812276201E+01  0.10872375430E+01  0.51100000000E-03 0. -1.
    9000002    1    1    2    0    0 -0.16723169149E+00  0.37446205579E+00  0.11359587544E+00  0.10300176177E+01  0.93800000000E+00 0. -1.
         22    1    1    2    0    0  0.12090768239E+00 -0.27012542004E+00  0.28051764718E+01  0.28207448393E+01  0.00000000000E+00 0. -1.
</event>
<event>
 5    1  0.6645559E+001  0.1574671E+01  0.7818608E-02  0.3381322E+00
         11   -1    0    0    0    0  0.00000000000E+00  0.00000000000E+00  0.39999999674E+01  0.40000000000E+01  0.51100000000E-03 0.  1.
    9000002   -1    0    0    0    0 -0.00000000000E+00 -0.00000000000E+00  0.00000000000E+00  0.93800000000E+00  0.93800000000E+00 0.  1.
         11    1    1    2    0    0  0.18427532244E+00  0.59148007402E-01  0.76712862577E+00  0.79116526139E+00  0.51100000000E-03 0.  1.
    9000002    1    1    2    0    0 -0.38537030594E+00  0.24977910398E+00  0.16552904729E+00  0.10574231598E+01  0.93800000000E+00 0.  1.
         22    1    1    2    0    0  0.20109498350E+00 -0.30892711138E+00  0.30673422943E+01  0.30894115788E+01  0.00000000000E+00 0.  1.
</event>
<event>
 5    1  0.6645559E+001  0.1581945E+01  0.7818608E-02  0.3373196E+00
         11   -1    0    0    0    0  0.00000000000E+00  0.00000000000E+00  0.39999999674E+01  0.40000000000E+01  0.51100000000E-03 0. -1.
    9000002   -1    0    0    0    0 -0.00000000000E+00 -0.00000000000E+00  0.00000000000E+00  0.93800000000E+00  0.93800000000E+00 0.  1.
         11    1    1    2    0    0  0.97927108591E-01  0.34716904321E-04  0.89094750438E+00  0.89631324685E+00  0.51100000000E-03 0. -1.
    9000002    1    1    2    0    0  0.14089749186E+00  0.14755825133E+00  0.40991176477E-01  0.96080685744E+00  0.93800000000E+00 0.  1.
         22    1    1    2    0    0 -0.23882460045E+00 -0.14759296824E+00  0.30680612865E+01  0.30808798957E+01  0.00000000000E+00 0. -1.
</event>
<event>
 5    1  0.6645559E+001  0.1566771E+01  0.7818608E-02  0.3390238E+00
         11   -1    0    0    0    0  0.00000000000E+00  0.00000000000E+00  0.39999999674E+01  0.40000000000E+01  0.51100000000E-03 0. -1.
    9000002   -1    0    0    0    0 -0.00000000000E+00 -0.00000000000E+00  0.00000000000E+00  0.93800000000E+00  0.93800000000E+00 0. -1.
         11    1    1    2    0    0  0.62743579593E-01  0.34365612208E+00  0.81859225164E+00  0.89001675410E+00  0.51100000000E-03 0. -1.
    9000002    1    1    2    0    0 -0.72206283990E-01 -0.70350425789E+00  0.39639103820E+00  0.12397991142E+01  0.93800000000E+00 0. -1.
         22    1    1    2    0    0  0.94627043973E-02  0.35984813582E+00  0.27850166775E+01  0.28081841317E+01  0.00000000000E+00 0. -1.
</event>
<event>
 5    1  0.6645559E+001  0.1599676E+01  0.7818608E-02  0.3353715E+00
         11   -1    0    0    0    0  0.00000000000E+00  0.00000000000E+00  0.39999999674E+01  0.40000000000E+01  0.51100000000E-03 0.  1.
    9000002   -1    0    0    0    0 -0.00000000000E+00 -0.00000000000E+00  0.00000000000E+00  0.93800000000E+00  0.93800000000E+00 0. -1.
         11    1    1    2    0    0 -0.11107654454E+00 -0.64498694386E-01  0.11975632416E+01  0.12044318408E+01  0.51100000000E-03 0.  1.
    9000002    1    1    2    0    0  0.36267220693E+00  0.21093315581E+00  0.11903924306E+00  0.10344265403E+01  0.93800000000E+00 0. -1.
         22    1    1    2    0    0 -0.25159566239E+00 -0.14643446142E+00  0.26833974827E+01  0.26991416189E+01  0.00000000000E+00 0.  1.
</event>
<event>
 5    1  0.6645559E+001  0.1599641E+01  0.7818608E-02  0.3353753E+00
         11   -1    0    0    0    0  0.00000000000E+00  0.00000000000E+00  0.39999999674E+01  0.40000000000E+01  0.51100000000E-03 0. -1.
    9000002   -1    0    0    0    0 -0.00000000000E+00 -0.00000000000E+00  0.00000000000E+00  0.93800000000E+00  0.93800000000E+00 0.  1.
         11    1    1    2    0    0 -0.40801497466E-01  0.64326108639E-02  0.36849710957E+00  0.37080523400E+00  0.51100000000E-03 0. -1.
    9000002    1    1    2    0    0  0.46894895302E+00 -0.78267589602E-01  0.15415080831E+00  0.10628477821E+01  0.93800000000E+00 0.  1.
         22    1    1    2    0    0 -0.42814745556E+00  0.71834978738E-01  0.34773520495E+01  0.35043469839E+01  0.00000000000E+00 0. -1.
</event>
<event>
 5    1  0.6645559E+001  0.1595995E+01  0.7818608E-02  0.3357722E+00
         11   -1    0    0    0    0  0.00000000000E+00  0.00000000000E+00  0.39999999674E+01  0.40000000000E+01  0.51100000000E-03 0. -1.
    9000002   -1    0    0    0    0 -0.00000000000E+00 -0.00000000000E+00  0.00000000000E+00  0.93800000000E+00  0.93800000000E+00 0.  1.
         11    1    1    2    0    0  0.15796421147E+00  0.21559475931E+00  0.12927676133E+01  0.13201068728E+01  0.51100000000E-03 0. -1.
    9000002    1    1    2    0    0 -0.34422483817E+00 -0.45966531838E+00  0.23243422482E+00  0.11241230418E+01  0.93800000000E+00 0.  1.
         22    1    1    2    0    0  0.18626062670E+00  0.24407055907E+00  0.24747981292E+01  0.24937700855E+01  0.00000000000E+00 0. -1.
</event>
<event>
 5    1  0.6645559E+001  0.1573313E+01  0.7818608E-02  0.3382848E+00
         11   -1    0    0    0    0  0.00000000000E+00  0.00000000000E+00  0.39999999674E+01  0.40000000000E+01  0.51100000000E-03 0. -1.
    9000002   -1    0    0    0    0 -0.00000000000E+00 -0.00000000000E+00  0.00000000000E+00  0.93800000000E+00  0.93800000000E+00 0.  1.
         11    1    1    2    0    0 -0.13707393760E+00 -0.27045445615E+00  0.11625213394E+01  0.12014120870E+01  0.51100000000E-03 0. -1.
    9000002    1    1    2    0    0 -0.10800118206E+00  0.65472948266E+00  0.34053988840E+00  0.11983932436E+01  0.93800000000E+00 0.  1.
         22    1    1    2    0    0  0.24507511966E+00 -0.38427502650E+00  0.24969387396E+01  0.25381946693E+01  0.00000000000E+00 0. -1.
</event>
<event>
 5    1  0.6645559E+001  0.1578020E+01  0.7818608E-02  0.3377570E+00
         11   -1    0    0    0    0  0.00000000000E+00  0.00000000000E+00  0.39999999674E+01  0.40000000000E+01  0.51100000000E-03 0.  1.
    9000002   -1    0    0    0    0 -0.00000000000E+00 -0.00000000000E+00  0.00000000000E+00  0.93800000000E+00  0.93800000000E+00 0. -1.
         11    1    1    2    0    0 -0.50904294918E-01 -0.17230258106E-01  0.13950792674E+00  0.14950201263E+00  0.51100000000E-03 0.  1.
    9000002    1    1    2    0    0 -0.43411259674E+00  0.29954581036E+00  0.21162545735E+00  0.10967273013E+01  0.93800000000E+00 0. -1.
         22    1    1    2    0    0  0.48501689166E+00 -0.28231555226E+00  0.36488665833E+01  0.36917706861E+01  0.00000000000E+00 0.  1.
</event>
<event>
 5    1  0.6645559E+001  0.1599236E+01  0.7818608E-02  0.3354193E+00
         11   -1    0    0    0    0  0.00000000000E+00  0.00000000000E+00  0.39999999674E+01  0.40000000000E+01  0.51100000000E-03 0. -1.
    9000002   -1    0    0    0    0 -0.00000000000E+00 -0.00000000000E+00  0.00000000000E+00  0.93800000000E+00  0.93800000000E+00 0. -1.
         11    1    1    2    0    0  0.40672962716E-01  0.73904487968E-01  0.90737347470E+00  0.91128647908E+00  0.51100000000E-03 0. -1.
    9000002    1    1    2    0    0 -0.16116820980E+00 -0.40607594556E+00  0.12976886950E+00  0.10428599258E+01  0.93800000000E+00 0. -1.
         22    1    1    2    0    0  0.12049524709E+00  0.33217145760E+00  0.29628576232E+01  0.29838535951E+01  0.00000000000E+00 0. -1.
</event>
<event>
 5    1  0.6645559E+001  0.1599668E+01  0.7818608E-02  0.3353724E+00
         11   -1    0    0    0    0  0.00000000000E+00  0.00000000000E+00  0.39999999674E+01  0.40000000000E+01  0.51100000000E-03 0.  1.
    9000002   -1    0    0    0    0 -0.00000000000E+00 -0.00000000000E+00  0.00000000000E+00  0.93800000000E+00  0.93800000000E+00 0.  1.
         11    1    1    2    0    0  0.10260822862E+00  0.61546688433E-01  0.85300262392E+00  0.86135369099E+00  0.51100000000E-03 0.  1.
    9000002    1    1    2    0    0 -0.45785576748E+00 -0.26119035217E+00  0.19111206753E+00  0.10928037913E+01  0.93800000000E+00 0.  1.
         22    1    1    2    0    0  0.35524753886E+00  0.19964366373E+00  0.29558852759E+01  0.29838425177E+01  0.00000000000E+00 0.  1.
</event>
<event>
 5    1  0.6645559E+001  0.1596025E+01  0.7818608E-02  0.3357690E+00
         11   -1    0    0    0    0  0.00000000000E+00  0.00000000000E+00  0.39999999674E+01  0.40000000000E+01  0.51100000000E-03 0.  1.
    9000002   -1    0    0    0    0 -0.00000000000E+00 -0.00000000000E+00  0.00000000000E+00  0.93800000000E+00  0.93800000000E+00 0.  1.
         11    1    1    2    0    0 -0.76388117969E-02  0.16457514467E+00  0.77513172594E+00  0.79244733791E+00  0.51100000000E-03 0.  1.
    9000002    1    1    2    0    0  0.29796672286E+00 -0.79751687415E+00  0.54907140569E+00  0.13806305592E+01  0.93800000000E+00 0.  1.
         22    1    1    2    0    0 -0.29032791106E+00  0.63294172948E+00  0.26757968357E+01  0.27649221029E+01  0.00000000000E+00 0.  1.
</event>
<event>
 5    1  0.6645559E+001  0.1599670E+01  0.7818608E-02  0.3353722E+00
         11   -1    0    0    0    0  0.00000000000E+00  0.00000000000E+00  0.39999999674E+01  0.40000000000E+01  0.51100000000E-03 0.  1.
    9000002   -1    0    0    0    0 -0.00000000000E+00 -0.00000000000E+00  0.00000000000E+00  0.93800000000E+00  0.93800000000E+00 0.  1.
         11    1    1    2    0    0 -0.11656968602E+00  0.28259711918E+00  0.94209154174E+00  0.99044755419E+00  0.51100000000E-03 0.  1.
    9000002    1    1    2    0    0  0.38057715738E+00 -0.94463189066E+00  0.84349389355E+00  0.16212631896E+01  0.93800000000E+00 0.  1.
         22    1    1    2    0    0 -0.26400747136E+00  0.66203477149E+00  0.22144145321E+01  0.23262892562E+01  0.00000000000E+00 0.  1.
</event>
<event>
 5    1  0.6645559E+001  0.1599677E+01  0.7818608E-02  0.3353714E+00
         11   -1    0    0    0    0  0.00000000000E+00  0.00000000000E+00  0.39999999674E+01  0.40000000000E+01  0.51100000000E-03 0.  1.
    9000002   -1    0    0    0    0 -0.00000000000E+00 -0.00000000000E+00  0.00000000000E+00  0.93800000000E+00  0.93800000000E+00 0. -1.
         11    1    1    2    0    0  0.87310519294E-01 -0.95598666564E-01  0.10419816668E+01  0.10499944223E+01  0.51100000000E-03 0. -1.
    9000002    1    1    2    0    0 -0.32206753355E+00  0.35358824273E+00  0.15603919504E+00  0.10643985964E+01  0.93800000000E+00 0. -1.
         22    1    1    2    0    0  0.23475701425E+00 -0.25798957616E+00  0.28019791056E+01  0.28236069814E+01  0.00000000000E+00 0.  1.
</event>
<event>
 5    1  0.6645559E+001  0.1582314E+01  0.7818608E-02  0.3372786E+00
         11   -1    0    0    0    0  0.00000000000E+00  0.00000000000E+00  0.39999999674E+01  0.40000000000E+01  0.51100000000E-03 0.  1.
    9000002   -1    0    0    0    0 -0.00000000000E+00 -0.00000000000E+00  0.00000000000E+00  0.93800000000E+00  0.93800000000E+00 0.  1.
         11    1    1    2    0    0  0.32244423925E-01  0.13462096262E-01  0.76924459962E-01  0.84490026461E-01  0.51100000000E-03 0.  1.
    9000002    1    1    2    0    0  0.48667350965E+00  0.13668765148E+00  0.19098011837E+00  0.10825211428E+01  0.93800000000E+00 0.  1.
         22    1    1    2    0    0 -0.51891793357E+00 -0.15014974774E+00  0.37320953890E+01  0.37709888307E+01  0.00000000000E+00 0.  1.
</event>
<event>
 5    1  0.6645559E+001  0.1599589E+01  0.7818608E-02  0.3353810E+00
         11   -1    0    0    0    0  0.00000000000E+00  0.00000000000E+00  0.39999999674E+01  0.40000000000E+01  0.51100000000E-03 0.  1.
    9000002   -1    0    0    0    0 -0.00000000000E+00 -0.00000000000E+00  0.00000000000E+00  0.93800000000E+00  0.93800000000E+00 0.  1.
         11    1    1    2    0    0 -0.15152508172E+00 -0.66027909478E-01  0.13369777416E+01  0.13471559961E+01  0.51100000000E-03 0.  1.
    9000002    1    1    2    0    0  0.45304674611E+00  0.21345077115E+00  0.17179810029E+00  0.10771124236E+01  0.93800000000E+00 0.  1.
         22    1    1    2    0    0 -0.30152166439E+00 -0.14742286168E+00  0.24912241254E+01  0.25137315802E+01  0.00000000000E+00 0.  1.
</event>
<event>
 5    1  0.6645559E+001  0.1599612E+01  0.7818608E-02  0.3353785E+00
         11   -1    0    0    0    0  0.00000000000E+00  0.00000000000E+00  0.39999999674E+01  0.40000000000E+01  0.51100000000E-03 0. -1.
    9000002   -1    0    0    0    0 -0.00000000000E+00 -0.00000000000E+00  0.00000000000E+00  0.93800000000E+00  0.93800000000E+00 0.  1.
         11    1    1    2    0    0  0.67447259144E-01 -0.12843842652E+00  0.13816900354E+01  0.13892851318E+01  0.51100000000E-03 0. -1.
    9000002    1    1    2    0    0 -0.19763010941E+00  0.33709981578E+00  0.10292834964E+00  0.10213384312E+01  0.93800000000E+00 0.  1.
         22    1    1    2    0    0  0.13018285026E+00 -0.20866138926E+00  0.25153815823E+01  0.25273764370E+01  0.00000000000E+00 0. -1.
</event>
<event>
 5    1  0.6645559E+001  0.1588907E+01  0.7818608E-02  0.3365492E+00
         11   -1    0    0    0    0  0.00000000000E+00  0.00000000000E+00  0.39999999674E+01  0.40000000000E+01  0.51100000000E-03 0.  1.
    9000002   -1    0    0    0    0 -0.00000000000E+00 -0.00000000000E+00  0.00000000000E+00  0.93800000000E+00  0.93800000000E+00 0. -1.
         11    1    1    2    0    0 -0.18361052736E-01  0.46475978284E-01  0.53760356740E+00  0.53992129205E+00  0.51100000000E-03 0.  1.
    9000002    1    1    2    0    0 -0.29076684029E+00  0.12168747696E+00  0.74923944713E-01  0.99237633736E+00  0.93800000000E+00 0. -1.
         22    1    1    2    0    0  0.30912789303E+00 -0.16816345525E+00  0.33874724553E+01  0.34057023706E+01  0.00000000000E+00 0.  1.
</event>
<event>
 5    1  0.6645559E+001  0.1599676E+01  0.7818608E-02  0.3353715E+00
         11   -1    0    0    0    0  0.00000000000E+00  0.00000000000E+00  0.39999999674E+01  0.40000000000E+01  0.51100000000E-03 0.  1.
    9000002   -1    0    0    0    0 -0.00000000000E+00 -0.00000000000E+00  0.00000000000E+00  0.93800000000E+00  0.93800000000E+00 0.  1.
         11    1    1    2    0    0  0.13492661287E+00 -0.29370391338E-01  0.14532066792E+01  0.14597526243E+01  0.51100000000E-03 0.  1.
    9000002    1    1    2    0    0 -0.36159131627E+00  0.76919143228E-01  0.91841110251E-01  0.10123949941E+01  0.93800000000E+00 0.  1.
         22    1    1    2    0    0  0.22666470340E+00 -0.47548751890E-01  0.24549521779E+01  0.24658523815E+01  0.00000000000E+00 0.  1.
</event>
<event>
 5    1  0.6645559E+001  0.1541708E+01  0.7818608E-02  0.3419168E+00
         11   -1    0    0    0    0  0.00000000000E+00  0.00000000000E+00  0.39999999674E+01  0.40000000000E+01  0.51100000000E-03 0. -1.
    9000002   -1    0    0    0    0 -0.00000000000E+00 -0.00000000000E+00  0.00000000000E+00  0.93800000000E+00  0.93800000000E+00 0.  1.
         11    1    1    2    0    0  0.16246580959E+00 -0.29640164182E+00  0.14051112670E+01  0.14451944528E+01  0.51100000000E-03 0. -1.
    9000002    1    1    2    0    0 -0.31892228783E+00  0.58752117469E-01  0.11781419765E+00  0.99944355626E+00  0.93800000000E+00 0.  1.
         22    1    1    2    0    0  0.15645647823E+00  0.23764952435E+00  0.24770745027E+01  0.24933619909E+01  0.00000000000E+00 0. -1.
</event>
<event>
 5    1  0.6645559E+001  0.1597938E+01  0.7818608E-02  0.3355605E+00
         11   -1    0    0    0    0  0.00000000000E+00  0.00000000000E+00  0.39999999674E+01  0.40000000000E+01  0.51100000000E-03 0.  1.
    9000002   -1    0    0    0    0 -0.00000000000E+00 -0.00000000000E+00  0.00000000000E+00  0.93800000000E+00  0.93800000000E+00 0.  1.
         11    1    1    2    0    0  0.74704670428E-02  0.26866942696E-02  0.38562256387E-01  0.39374292915E-01  0.51100000000E-03 0.  1.
    9000002    1    1    2    0    0  0.24485351554E+00 -0.38417254425E+00  0.14258588239E+00  0.10524811265E+01  0.93800000000E+00 0.  1.
         22    1    1    2    0    0 -0.25232398258E+00  0.38148584998E+00  0.38188518286E+01  0.38461445806E+01  0.00000000000E+00 0.  1.
</event>
<event>
 5    1  0.6645559E+001  0.1557546E+01  0.7818608E-02  0.3400771E+00
         11   -1    0    0    0    0  0.00000000000E+00  0.00000000000E+00  0.39999999674E+01  0.40000000000E+01  0.51100000000E-03 0.  1.
    9000002   -1    0    0    0    0 -0.00000000000E+00 -0.00000000000E+00  0.00000000000E+00  0.93800000000E+00  0.93800000000E+00 0. -1.
         11    1    1    2    0    0  0.15535987549E+00  0.10936236013E+00  0.62650600488E+00  0.65468072524E+00  0.51100000000E-03 0.  1.
    9000002    1    1    2    0    0 -0.27938142819E+00  0.22677295514E+00  0.12187020081E+00  0.10120159591E+01  0.93800000000E+00 0. -1.
         22    1    1    2    0    0  0.12402155270E+00 -0.33613531528E+00  0.32516237617E+01  0.32713033157E+01  0.00000000000E+00 0.  1.
</event>
<event>
 5    1  0.6645559E+001  0.1599592E+01  0.7818608E-02  0.3353807E+00
         11   -1    0    0    0    0  0.00000000000E+00  0.00000000000E+00  0.39999999674E+01  0.40000000000E+01  0.51100000000E-03 0. -1.
    9000002   -1    0    0    0    0 -0.00000000000E+00 -0.00000000000E+00  0.00000000000E+00  0.93800000000E+00  0.93800000000E+00 0. -1.
         11    1    1    2    0    0  0.33586445684E-01  0.55192213652E-01  0.19571977935E+00  0.20610852222E+00  0.51100000000E-03 0. -1.
    9000002    1    1    2    0    0 -0.45739189644E+00 -0.90493498738E+00  0.83404739508E+00  0.16135655349E+01  0.93800000000E+00 0. -1.
         22    1    1    2    0    0  0.42380545075E+00  0.84974277373E+00  0.29702327929E+01  0.31183259428E+01  0.00000000000E+00 0. -1.
</event>
<event>
 5    1  0.6645559E+001  0.1599669E+01  0.7818608E-02  0.3353723E+00
         11   -1    0    0    0    0  0.00000000000E+00  0.00000000000E+00  0.39999999674E+01  0.40000000000E+01  0.51100000000E-03 0.  1.
    9000002   -1    0    0    0    0 -0.00000000000E+00 -0.00000000000E+00  0.00000000000E+00  0.93800000000E+00  0.93800000000E+00 0.  1.
         11    1    1    2    0    0 -0.15552543365E+00  0.49897872543E-01  0.12820787805E+01  0.12924411858E+01  0.51100000000E-03 0.  1.
    9000002    1    1    2    0    0  0.45711358072E+00 -0.15313152447E+00  0.15863205386E+00  0.10664943591E+01  0.93800000000E+00 0.  1.
         22    1    1    2    0    0 -0.30158814707E+00  0.10323365192E+00  0.25592891330E+01  0.25790644552E+01  0.00000000000E+00 0.  1.
</event>
<event>
 5    1  0.6645559E+001  0.1599676E+01  0.7818608E-02  0.3353716E+00
         11   -1    0    0    0    0  0.00000000000E+00  0.00000000000E+00  0.39999999674E+01  0.40000000000E+01  0.51100000000E-03 0.  1.
    9000002   -1    0    0    0    0 -0.00000000000E+00 -0.00000000000E+00  0.00000000000E+00  0.93800000000E+00  0.93800000000E+00 0.  1.
         11    1    1    2    0    0 -0.10323756858E+00  0.76495206430E-01  0.13333084307E+01  0.13394854029E+01  0.51100000000E-03 0.  1.
    9000002    1    1    2    0    0  0.29982236854E+00 -0.22720926805E+00  0.95176222864E-01  0.10150960632E+01  0.93800000000E+00 0.  1.
         22    1    1    2    0    0 -0.19658479995E+00  0.15071406162E+00  0.25715153138E+01  0.25834185339E+01  0.00000000000E+00 0.  1.
</event>
<event>
 5    1  0.6645559E+001  0.1591361E+01  0.7818608E-02  0.3362794E+00
         11   -1    0    0    0    0  0.00000000000E+00  0.00000000000E+00  0.39999999674E+01  0.40000000000E+01  0.51100000000E-03 0.  1.
    9000002   -1    0    0    0    0 -0.00000000000E+00 -0.00000000000E+00  0.00000000000E+00  0.93800000000E+00  0.93800000000E+00 0. -1.
         11    1    1    2    0    0  0.32340749416E+00  0.30620735522E+00  0.13960716032E+01  0.14653912563E+01  0.51100000000E-03 0.  1.
    9000002    1    1    2    0    0 -0.73341094544E+00 -0.85456536119E+00  0.11410297185E+01  0.18574085146E+01  0.93800000000E+00 0. -1.
         22    1    1    2    0    0  0.41000345127E+00  0.54835800598E+00  0.14628986457E+01  0.16152002292E+01  0.00000000000E+00 0. -1.
</event>
<event>
 5    1  0.6645559E+001  0.1586517E+01  0.7818608E-02  0.3368129E+00
         11   -1    0    0    0    0  0.00000000000E+00  0.00000000000E+00  0.39999999674E+01  0.40000000000E+01  0.51100000000E-03 0.  1.
    9000002   -1    0    0    0    0 -0.00000000000E+00 -0.00000000000E+00  0.00000000000E+00  0.93800000000E+00  0.93800000000E+00 0. -1.
         11    1    1    2    0    0  0.27173120572E-01  0.86234201692E-02  0.76543559579E+00  0.76596648378E+00  0.51100000000E-03 0.  1.
    9000002    1    1    2    0    0  0.31474496826E+00 -0.36465325238E+00  0.17012653244E+00  0.10680933604E+01  0.93800000000E+00 0. -1.
         22    1    1    2    0    0 -0.34191808884E+00  0.35602983221E+00  0.30644378391E+01  0.31039401558E+01  0.00000000000E+00 0.  1.
</event>
<event>
 5    1  0.6645559E+001  0.1477624E+01  0.7818608E-02  0.3497929E+00
         11   -1    0    0    0    0  0.00000000000E+00  0.00000000000E+00  0.39999999674E+01  0.40000000000E+01  0.51100000000E-03 0. -1.
    9000002   -1    0    0    0    0 -0.00000000000E+00 -0.00000000000E+00  0.00000000000E+00  0.93800000000E+00  0.93800000000E+00 0.  1.
         11    1    1    2    0    0 -0.84102937278E-01 -0.21902320263E+00  0.18440762825E+00  0.29841397727E+00  0.51100000000E-03 0. -1.
    9000002    1    1    2    0    0  0.26990779933E-01 -0.23674044613E+00  0.19156724471E+00  0.98656806673E+00  0.93800000000E+00 0.  1.
         22    1    1    2    0    0  0.57112157345E-01  0.45576364877E+00  0.36240250944E+01  0.36530179560E+01  0.00000000000E+00 0. -1.
</event>
<event>
 5    1  0.6645559E+001  0.1593123E+01  0.7818608E-02  0.3360861E+00
         11   -1    0    0    0    0  0.00000000000E+00  0.00000000000E+00  0.39999999674E+01  0.40000000000E+01  0.51100000000E-03 0. -1.
    9000002   -1    0    0    0    0 -0.00000000000E+00 -0.00000000000E+00  0.00000000000E+00  0.93800000000E+00  0.93800000000E+00 0. -1.
         11    1    1    2    0    0  0.80455550840E-02 -0.76240024476E-01  0.23889462663E+00  0.25089475092E+00  0.51100000000E-03 0. -1.
    9000002    1    1    2    0    0 -0.24233163126E+00  0.45626667758E+00  0.18924927305E+00  0.10874572120E+01  0.93800000000E+00 0. -1.
         22    1    1    2    0    0  0.23428607618E+00 -0.38002665311E+00  0.35718560677E+01  0.35996480371E+01  0.00000000000E+00 0. -1.
</event>
<event>
 5    1  0.6645559E+001  0.1592758E+01  0.7818608E-02  0.3361261E+00
         11   -1    0    0    0    0  0.00000000000E+00  0.00000000000E+00  0.39999999674E+01  0.40000000000E+01  0.51100000000E-03 0.  1.
    9000002   -1    0    0    0    0 -0.00000000000E+00 -0.00000000000E+00  0.00000000000E+00  0.93800000000E+00  0.93800000000E+00 0. -1.
         11    1    1    2    0    0 -0.75390483440E-01  0.17946074941E+00  0.97365060549E+00  0.99291774496E+00  0.51100000000E-03 0.  1.
    9000002    1    1    2    0    0  0.97872815329E-02 -0.51155592558E+00  0.18588698963E+00  0.10845198148E+01  0.93800000000E+00 0. -1.
         22    1    1    2    0    0  0.65603201907E-01  0.33209517617E+00  0.28404623722E+01  0.28605624402E+01  0.00000000000E+00 0.  1.
</event>
<event>
 5    1  0.6645559E+001  0.1599621E+01  0.7818608E-02  0.3353774E+00
         11   -1    0    0    0    0  0.00000000000E+00  0.00000000000E+00  0.39999999674E+01  0.40000000000E+01  0.51100000000E-03 0. -1.
    9000002   -1    0    0    0    0 -0.00000000000E+00 -0.00000000000E+00  0.00000000000E+00  0.93800000000E+00  0.93800000000E+00 0. -1.
         11    1    1    2    0    0  0.91236067308E-02 -0.73725129018E-01  0.92228120492E+00  0.92526834860E+00  0.51100000000E-03 0. -1.
    9000002    1    1    2    0    0 -0.35697140985E-01  0.34555109458E+00  0.80938525713E-01  0.10035312102E+01  0.93800000000E+00 0. -1.
         22    1    1    2    0    0  0.26573534254E-01 -0.27182596556E+00  0.29967802367E+01  0.30092004412E+01  0.00000000000E+00 0. -1.
</event>
<event>
 5    1  0.6645559E+001  0.1599622E+01  0.7818608E-02  0.3353774E+00
         11   -1    0    0    0    0  0.00000000000E+00  0.00000000000E+00  0.39999999674E+01  0.40000000000E+01  0.51100000000E-03 0.  1.
    9000002   -1    0    0    0    0 -0.00000000000E+00 -0.00000000000E+00  0.00000000000E+00  0.93800000000E+00  0.93800000000E+00 0. -1.
         11    1    1    2    0    0 -0.14428377359E+00 -0.49094021007E-01  0.13432451987E+01  0.13518638819E+01  0.51100000000E-03 0.  1.
    9000002    1    1    2    0    0  0.39433427131E+00  0.13228193356E+00  0.11698142725E+00  0.10327277869E+01  0.93800000000E+00 0. -1.
         22    1    1    2    0    0 -0.25005049772E+00 -0.83187912548E-01  0.25397733415E+01  0.25534083313E+01  0.00000000000E+00 0.  1.
</event>
<event>
 5    1  0.6645559E+001  0.1594534E+01  0.7818608E-02  0.3359317E+00
         11   -1    0    0    0    0  0.00000000000E+00  0.00000000000E+00  0.39999999674E+01  0.40000000000E+01  0.51100000000E-03 0. -1.
    9000002   -1    0    0    0    0 -0.00000000000E+00 -0.00000000000E+00  0.00000000000E+00  0.93800000000E+00  0.93800000000E+00 0. -1.
         11    1    1    2    0    0 -0.93729820216E-01  0.69944267581E-01  0.95727876573E+00  0.96439637919E+00  0.51100000000E-03 0. -1.
    9000002    1    1    2    0    0  0.62407550023E+00 -0.13531741208E+00  0.29233209851E+00  0.11717862808E+01  0.93800000000E+00 0. -1.
         22    1    1    2    0    0 -0.53034568001E+00  0.65373144501E-01  0.27503891031E+01  0.28018173400E+01  0.00000000000E+00 0. -1.
</event>
<event>
 5    1  0.6645559E+001  0.1599675E+01  0.7818608E-02  0.3353716E+00
         11   -1    0    0    0    0  0.00000000000E+00  0.00000000000E+00  0.39999999674E+01  0.40000000000E+01  0.51100000000E-03 0. -1.
    9000002   -1    0    0    0    0 -0.00000000000E+00 -0.00000000000E+00  0.00000000000E+00  0.93800000000E+00  0.93800000000E+00 0. -1.
         11    1    1    2    0    0 -0.63358349427E-01 -0.32844795928E-01  0.72250903511E+00  0.72602522546E+00  0.51100000000E-03 0. -1.
    9000002    1    1    2    0    0  0.34707513675E+00  0.18080460798E+00  0.10319191580E+00  0.10215889723E+01  0.93800000000E+00 0. -1.
         22    1    1    2    0    0 -0.28371678733E+00 -0.14795981205E+00  0.31742990164E+01  0.31903858023E+01  0.00000000000E+00 0. -1.
</event>
<event>
 5    1  0.6645559E+001  0.1599599E+01  0.7818608E-02  0.3353799E+00
         11   -1    0    0    0    0  0.00000000000E+00  0.00000000000E+00  0.39999999674E+01  0.40000000000E+01  0.51100000000E-03 0. -1.
    9000002   -1    0    0    0    0 -0.00000000000E+00 -0.00000000000E+00  0.00000000000E+00  0.93800000000E+00  0.93800000000E+00 0.  1.
         11    1    1    2    0    0 -0.11504062517E+00  0.25160616913E-01  0.12661094745E+01  0.12715741680E+01  0.51100000000E-03 0. -1.
    9000002    1    1    2    0    0  0.36428305303E+00 -0.10667816498E+00  0.97003357495E-01  0.10165313694E+01  0.93800000000E+00 0.  1.
         22    1    1    2    0    0 -0.24924242786E+00  0.81517548069E-01  0.26368871353E+01  0.26498944626E+01  0.00000000000E+00 0. -1.
</event>
<event>
 5    1  0.6645559E+001  0.1599281E+01  0.7818608E-02  0.3354144E+00
         11   -1    0    0    0    0  0.00000000000E+00  0.00000000000E+00  0.39999999674E+01  0.40000000000E+01  0.51100000000E-03 0.  1.
    9000002   -1    0    0    0    0 -0.00000000000E+00 -0.00000000000E+00  0.00000000000E+00  0.93800000000E+00  0.93800000000E+00 0.  1.
         11    1    1    2    0    0 -0.18584548632E+00  0.31083222541E+00  0.13814437606E+01  0.14281254644E+01  0.51100000000E-03 0.  1.
    9000002    1    1    2    0    0  0.40225507099E+00 -0.77301034947E+00  0.57490105888E+00  0.14034633483E+01  0.93800000000E+00 0.  1.
         22    1    1    2    0    0 -0.21640958468E+00  0.46217812405E+00  0.20436551479E+01  0.21064111873E+01  0.00000000000E+00 0.  1.
</event>
<event>
 5    1  0.6645559E+001  0.1597048E+01  0.7818608E-02  0.3356574E+00
         11   -1    0    0    0    0  0.00000000000E+00  0.00000000000E+00  0.39999999674E+01  0.40000000000E+01  0.51100000000E-03 0. -1.
    9000002   -1    0    0    0    0 -0.00000000000E+00 -0.00000000000E+00  0.00000000000E+00  0.93800000000E+00  0.93800000000E+00 0. -1.
         11    1    1    2    0    0  0.16113208645E+00 -0.95382469089E-01  0.10472837159E+01  0.10638913513E+01  0.51100000000E-03 0. -1.
    9000002    1    1    2    0    0 -0.60369700962E+00  0.14433110516E+00  0.27271076401E+00  0.11573662809E+01  0.93800000000E+00 0. -1.
         22    1    1    2    0    0  0.44256492318E+00 -0.48948636068E-01  0.26800054875E+01  0.27167423678E+01  0.00000000000E+00 0. -1.
</event>
<event>
 5    1  0.6645559E+001  0.1595926E+01  0.7818608E-02  0.3357797E+00
         11   -1    0    0    0    0  0.00000000000E+00  0.00000000000E+00  0.39999999674E+01  0.40000000000E+01  0.51100000000E-03 0. -1.
    9000002   -1    0    0    0    0 -0.00000000000E+00 -0.00000000000E+00  0.00000000000E+00  0.93800000000E+00  0.93800000000E+00 0.  1.
         11    1    1    2    0    0 -0.76601692020E-01  0.21319572557E+00  0.10804224049E+01  0.11039171485E+01  0.51100000000E-03 0. -1.
    9000002    1    1    2    0    0  0.26675756049E+00 -0.50831095334E+00  0.23232203702E+00  0.11239916148E+01  0.93800000000E+00 0.  1.
         22    1    1    2    0    0 -0.19015586847E+00  0.29511522777E+00  0.26872555254E+01  0.27100912366E+01  0.00000000000E+00 0. -1.
</event>
<event>
 5    1  0.6645559E+001  0.1599677E+01  0.7818608E-02  0.3353714E+00
         11   -1    0    0    0    0  0.00000000000E+00  0.00000000000E+00  0.39999999674E+01  0.40000000000E+01  0.51100000000E-03 0.  1.
    9000002   -1    0    0    0    0 -0.00000000000E+00 -0.00000000000E+00  0.00000000000E+00  0.93800000000E+00  0.93800000000E+00 0.  1.
         11    1    1    2    0    0 -0.18034767749E+00 -0.10849630961E+00  0.14064719296E+01  0.14221323018E+01  0.51100000000E-03 0.  1.
    9000002    1    1    2    0    0  0.48384076316E+00  0.29114170213E+00  0.22086637115E+00  0.11169115134E+01  0.93800000000E+00 0.  1.
         22    1    1    2    0    0 -0.30349308567E+00 -0.18264539252E+00  0.23726616667E+01  0.23989561849E+01  0.00000000000E+00 0.  1.
</event>
<event>
 5    1  0.6645559E+001  0.1599231E+01  0.7818608E-02  0.3354199E+00
         11   -1    0    0    0    0  0.00000000000E+00  0.00000000000E+00  0.39999999674E+01  0.40000000000E+01  0.51100000000E-03 0. -1.
    9000002   -1    0    0    0    0 -0.00000000000E+00 -0.00000000000E+00  0.00000000000E+00  0.93800000000E+00  0.93800000000E+00 0. -1.
         11    1    1    2    0    0 -0.75408722022E-01 -0.84960030744E-01  0.14330956120E+01  0.14375910324E+01  0.51100000000E-03 0. -1.
    9000002    1    1    2    0    0  0.26855563170E+00  0.25475077826E+00  0.92448684236E-01  0.10126257184E+01  0.93800000000E+00 0. -1.
         22    1    1    2    0    0 -0.19314690968E+00 -0.16979074751E+00  0.24744556711E+01  0.24877832492E+01  0.00000000000E+00 0. -1.
</event>
<event>
 5    1  0.6645559E+001  0.1599672E+01  0.7818608E-02  0.3353720E+00
         11   -1    0    0    0    0  0.00000000000E+00  0.00000000000E+00  0.39999999674E+01  0.40000000000E+01  0.51100000000E-03 0.  1.
    9000002   -1    0    0    0    0 -0.00000000000E+00 -0.00000000000E+00  0.00000000000E+00  0.93800000000E+00  0.93800000000E+00 0. -1.
         11    1    1    2    0    0 -0.32024238552E-01 -0.57043054230E-01  0.69002945221E+00  0.69312363106E+00  0.51100000000E-03 0.  1.
    9000002    1    1    2    0    0  0.17389900020E+00  0.31471930043E+00  0.86786772160E-01  0.10082980929E+01  0.93800000000E+00 0. -1.
         22    1    1    2    0    0 -0.14187476164E+00 -0.25767624620E+00  0.32231837430E+01  0.32365782760E+01  0.00000000000E+00 0.  1.
</event>
<event>
 5    1  0.6645559E+001  0.1599677E+01  0.7818608E-02  0.3353714E+00
         11   -1    0    0    0    0  0.00000000000E+00  0.00000000000E+00  0.39999999674E+01  0.40000000000E+01  0.51100000000E-03 0.  1.
    9000002   -1    0    0    0    0 -0.00000000000E+00 -0.00000000000E+00  0.00000000000E+00  0.93800000000E+00  0.93800000000E+00 0.  1.
         11    1    1    2    0    0 -0.57964010546E-01 -0.53030485493E-01  0.46485184810E+00  0.47144412258E+00  0.51100000000E-03 0. -1.
    9000002    1    1    2    0    0  0.46361386135E+00  0.42322449020E+00  0.27662205633E+00  0.11620759629E+01  0.93800000000E+00 0.  1.
         22    1    1    2    0    0 -0.40564985080E+00 -0.37019400471E+00  0.32585260629E+01  0.33044799145E+01  0.00000000000E+00 0.  1.
</event>
<event>
 5    1  0.6645559E+001  0.1599432E+01  0.7818608E-02  0.3353980E+00
         11   -1    0    0    0    0  0.00000000000E+00  0.00000000000E+00  0.39999999674E+01  0.40000000000E+01  0.51100000000E-03 0. -1.
    9000002   -1    0    0    0    0 -0.00000000000E+00 -0.00000000000E+00  0.00000000000E+00  0.93800000000E+00  0.93800000000E+00 0. -1.
         11    1    1    2    0    0  0.83579945048E-02 -0.14743992676E+00  0.14605117586E+01  0.14679588707E+01  0.51100000000E-03 0. -1.
    9000002    1    1    2    0    0 -0.55509461539E-01  0.42651617773E+00  0.12549740810E+00  0.10395147664E+01  0.93800000000E+00 0. -1.
         22    1    1    2    0    0  0.47151467035E-01 -0.27907625097E+00  0.24139908007E+01  0.24305263629E+01  0.00000000000E+00 0.  1.
</event>
<event>
 5    1  0.6645559E+001  0.1599461E+01  0.7818608E-02  0.3353948E+00
         11   -1    0    0    0    0  0.00000000000E+00  0.00000000000E+00  0.39999999674E+01  0.40000000000E+01  0.51100000000E-03 0. -1.
    9000002   -1    0    0    0    0 -0.00000000000E+00 -0.00000000000E+00  0.00000000000E+00  0.93800000000E+00  0.93800000000E+00 0. -1.
         11    1    1    2    0    0 -0.73023787068E-01  0.32792342053E-01  0.71238176159E+00  0.71686529177E+00  0.51100000000E-03 0. -1.
    9000002    1    1    2    0    0  0.32878594314E+00 -0.20377870817E+00  0.10093627354E+00  0.10196362536E+01  0.93800000000E+00 0. -1.
         22    1    1    2    0    0 -0.25576215607E+00  0.17098636612E+00  0.31866819322E+01  0.32014984546E+01  0.00000000000E+00 0. -1.
</event>
<event>
 5    1  0.6645559E+001  0.1596036E+01  0.7818608E-02  0.3357677E+00
         11   -1    0    0    0    0  0.00000000000E+00  0.00000000000E+00  0.39999999674E+01  0.40000000000E+01  0.51100000000E-03 0.  1.
    9000002   -1    0    0    0    0 -0.00000000000E+00 -0.00000000000E+00  0.00000000000E+00  0.93800000000E+00  0.93800000000E+00 0. -1.
         11    1    1    2    0    0  0.12489786890E-01 -0.50114297405E-02  0.23132734892E+00  0.23171903824E+00  0.51100000000E-03 0.  1.
    9000002    1    1    2    0    0  0.29807010447E+00  0.35611705754E+00  0.14998168522E+00  0.10573569179E+01  0.93800000000E+00 0. -1.
         22    1    1    2    0    0 -0.31055989136E+00 -0.35110562780E+00  0.36186909332E+01  0.36489240439E+01  0.00000000000E+00 0.  1.
</event>
<event>
 5    1  0.6645559E+001  0.1598708E+01  0.7818608E-02  0.3354767E+00
         11   -1    0    0    0    0  0.00000000000E+00  0.00000000000E+00  0.39999999674E+01  0.40000000000E+01  0.51100000000E-03 0. -1.
    9000002   -1    0    0    0    0 -0.00000000000E+00 -0.00000000000E+00  0.00000000000E+00  0.93800000000E+00  0.93800000000E+00 0. -1.
         11    1    1    2    0    0  0.97962009883E-01  0.11084347767E+00  0.13240761544E+01  0.13323140605E+01  0.51100000000E-03 0. -1.
    9000002    1    1    2    0    0 -0.38328780106E+00 -0.34269087420E+00  0.18228263726E+00  0.10850887215E+01  0.93800000000E+00 0. -1.
         22    1    1    2    0    0  0.28532579118E+00  0.23184739653E+00  0.24936411757E+01  0.25205972180E+01  0.00000000000E+00 0. -1.
</event>
<event>
 5    1  0.6645559E+001  0.1599664E+01  0.7818608E-02  0.3353728E+00
         11   -1    0    0    0    0  0.00000000000E+00  0.00000000000E+00  0.39999999674E+01  0.40000000000E+01  0.51100000000E-03 0.  1.
    9000002   -1    0    0    0    0 -0.00000000000E+00 -0.00000000000E+00  0.00000000000E+00  0.93800000000E+00  0.93800000000E+00 0.  1.
         11    1    1    2    0    0  0.36500284704E-01  0.81565974707E-02  0.43498057489E+00  0.43658580201E+00  0.51100000000E-03 0. -1.
    9000002    1    1    2    0    0 -0.34895222789E+00 -0.85685751371E-01  0.86669945623E-01  0.10081990800E+01  0.93800000000E+00 0.  1.
         22    1    1    2    0    0  0.31245194319E+00  0.77529153900E-01  0.34783494468E+01  0.34932151180E+01  0.00000000000E+00 0.  1.
</event>
<event>
 5    1  0.6645559E+001  0.1599667E+01  0.7818608E-02  0.3353725E+00
         11   -1    0    0    0    0  0.00000000000E+00  0.00000000000E+00  0.39999999674E+01  0.40000000000E+01  0.51100000000E-03 0. -1.
    9000002   -1    0    0    0    0 -0.00000000000E+00 -0.00000000000E+00  0.00000000000E+00  0.93800000000E+00  0.93800000000E+00 0.  1.
         11    1    1    2    0    0  0.30444370703E-01  0.80459448785E-01  0.63547959731E+00  0.64127619816E+00  0.51100000000E-03 0. -1.
    9000002    1    1    2    0    0 -0.16607823338E+00 -0.48119220954E+00  0.17766970546E+00  0.10819142509E+01  0.93800000000E+00 0.  1.
         22    1    1    2    0    0  0.13563386267E+00  0.40073276076E+00  0.31868506646E+01  0.32148095509E+01  0.00000000000E+00 0. -1.
</event>
<event>
 5    1  0.6645559E+001  0.1599675E+01  0.7818608E-02  0.3353717E+00
         11   -1    0    0    0    0  0.00000000000E+00  0.00000000000E+00  0.39999999674E+01  0.40000000000E+01  0.51100000000E-03 0.  1.
    9000002   -1    0    0    0    0 -0.00000000000E+00 -0.00000000000E+00  0.00000000000E+00  0.93800000000E+00  0.93800000000E+00 0.  1.
         11    1    1    2    0    0 -0.78634619835E-01  0.92012640177E-01  0.10002257243E+01  0.10075224514E+01  0.51100000000E-03 0.  1.
    9000002    1    1    2    0    0  0.30091355728E+00 -0.34893509558E+00  0.14442842521E+00  0.10549920568E+01  0.93800000000E+00 0.  1.
         22    1    1    2    0    0 -0.22227893744E+00  0.25692245540E+00  0.28553458179E+01  0.28754854919E+01  0.00000000000E+00 0.  1.
</event>
<event>
 5    1  0.6645559E+001  0.1599645E+01  0.7818608E-02  0.3353749E+00
         11   -1    0    0    0    0  0.00000000000E+00  0.00000000000E+00  0.39999999674E+01  0.40000000000E+01  0.51100000000E-03 0.  1.
    9000002   -1    0    0    0    0 -0.00000000000E+00 -0.00000000000E+00  0.00000000000E+00  0.93800000000E+00  0.93800000000E+00 0. -1.
         11    1    1    2    0    0  0.28712304565E+00 -0.94200669229E-01  0.13548012473E+01  0.13880922484E+01  0.51100000000E-03 0.  1.
    9000002    1    1    2    0    0 -0.73643423748E+00  0.24944475461E+00  0.44207902095E+00  0.12960848477E+01  0.93800000000E+00 0. -1.
         22    1    1    2    0    0  0.44931119183E+00 -0.15524408539E+00  0.22031196991E+01  0.22538229039E+01  0.00000000000E+00 0.  1.
</event>
<event>
 5    1  0.6645559E+001  0.1592407E+01  0.7818608E-02  0.3361646E+00
         11   -1    0    0    0    0  0.00000000000E+00  0.00000000000E+00  0.39999999674E+01  0.40000000000E+01  0.51100000000E-03 0.  1.
    9000002   -1    0    0    0    0 -0.00000000000E+00 -0.00000000000E+00  0.00000000000E+00  0.93800000000E+00  0.93800000000E+00 0.  1.
         11    1    1    2    0    0 -0.20079540499E-01 -0.82523741011E-01  0.29657020517E+00  0.30849230702E+00  0.51100000000E-03 0.  1.
    9000002    1    1    2    0    0 -0.15147127965E+00  0.47582986958E+00  0.17725481348E+00  0.10773211602E+01  0.93800000000E+00 0.  1.
         22    1    1    2    0    0  0.17155082015E+00 -0.39330612856E+00  0.35261749487E+01  0.35521865328E+01  0.00000000000E+00 0.  1.
</event>
<event>
 5    1  0.6645559E+001  0.1598526E+01  0.7818608E-02  0.3354965E+00
         11   -1    0    0    0    0  0.00000000000E+00  0.00000000000E+00  0.39999999674E+01  0.40000000000E+01  0.51100000000E-03 0. -1.
    9000002   -1    0    0    0    0 -0.00000000000E+00 -0.00000000000E+00  0.00000000000E+00  0.93800000000E+00  0.93800000000E+00 0. -1.
         11    1    1    2    0    0 -0.11091850962E+00  0.10391892199E+00  0.14641009232E+01  0.14719693722E+01  0.51100000000E-03 0. -1.
    9000002    1    1    2    0    0  0.38613542843E+00 -0.22706835781E+00  0.13723794464E+00  0.10484936155E+01  0.93800000000E+00 0. -1.
         22    1    1    2    0    0 -0.27521691881E+00  0.12314943581E+00  0.23986610995E+01  0.24175370123E+01  0.00000000000E+00 0. -1.
</event>
<event>
 5    1  0.6645559E+001  0.1595529E+01  0.7818608E-02  0.3358230E+00
         11   -1    0    0    0    0  0.00000000000E+00  0.00000000000E+00  0.39999999674E+01  0.40000000000E+01  0.51100000000E-03 0. -1.
    9000002   -1    0    0    0    0 -0.00000000000E+00 -0.00000000000E+00  0.00000000000E+00  0.93800000000E+00  0.93800000000E+00 0. -1.
         11    1    1    2    0    0  0.61284713076E-01  0.25754492098E+00  0.12108758140E+01  0.12394779952E+01  0.51100000000E-03 0. -1.
    9000002    1    1    2    0    0 -0.80869063718E-01 -0.59653558545E+00  0.25709363856E+00  0.11438250081E+01  0.93800000000E+00 0. -1.
         22    1    1    2    0    0  0.19584350643E-01  0.33899066447E+00  0.25320305148E+01  0.25546969967E+01  0.00000000000E+00 0. -1.
</event>
<event>
 5    1  0.6645559E+001  0.1599621E+01  0.7818608E-02  0.3353775E+00
         11   -1    0    0    0    0  0.00000000000E+00  0.00000000000E+00  0.39999999674E+01  0.40000000000E+01  0.51100000000E-03 0. -1.
    9000002   -1    0    0    0    0 -0.00000000000E+00 -0.00000000000E+00  0.00000000000E+00  0.93800000000E+00  0.93800000000E+00 0. -1.
         11    1    1    2    0    0  0.28828438318E-01 -0.53761109913E-01  0.47038723658E+00  0.47432662719E+00  0.51100000000E-03 0. -1.
    9000002    1    1    2    0    0 -0.26286786235E+00  0.39949323058E+00  0.15604788892E+00  0.10643727251E+01  0.93800000000E+00 0. -1.
         22    1    1    2    0    0  0.23403942403E+00 -0.34573212067E+00  0.33735648419E+01  0.33993006477E+01  0.00000000000E+00 0. -1.
</event>
<event>
 5    1  0.6645559E+001  0.1599677E+01  0.7818608E-02  0.3353714E+00
         11   -1    0    0    0    0  0.00000000000E+00  0.00000000000E+00  0.39999999674E+01  0.40000000000E+01  0.51100000000E-03 0.  1.
    9000002   -1    0    0    0    0 -0.00000000000E+00 -0.00000000000E+00  0.00000000000E+00  0.93800000000E+00  0.93800000000E+00 0.  1.
         11    1    1    2    0    0 -0.13768119850E+00 -0.97574894672E-01  0.11150228475E+01  0.11277203483E+01  0.51100000000E-03 0. -1.
    9000002    1    1    2    0    0  0.46668484082E+00  0.33021643727E+00  0.22670362348E+00  0.11216399462E+01  0.93800000000E+00 0.  1.
         22    1    1    2    0    0 -0.32900364232E+00 -0.23264154260E+00  0.26582734964E+01  0.26886397054E+01  0.00000000000E+00 0.  1.
</event>
<event>
 5    1  0.6645559E+001  0.1599574E+01  0.7818608E-02  0.3353825E+00
         11   -1    0    0    0    0  0.00000000000E+00  0.00000000000E+00  0.39999999674E+01  0.40000000000E+01  0.51100000000E-03 0.  1.
    9000002   -1    0    0    0    0 -0.00000000000E+00 -0.00000000000E+00  0.00000000000E+00  0.93800000000E+00  0.93800000000E+00 0.  1.
         11    1    1    2    0    0  0.19933871914E+00  0.60359179600E-02  0.12300331050E+01  0.12460955251E+01  0.51100000000E-03 0.  1.
    9000002    1    1    2    0    0 -0.58583570044E+00  0.75277627062E-02  0.23888298312E+00  0.11314456305E+01  0.93800000000E+00 0.  1.
         22    1    1    2    0    0  0.38649698131E+00 -0.13563680666E-01  0.25310838793E+01  0.25604588444E+01  0.00000000000E+00 0.  1.
</event>
<event>
 5    1  0.6645559E+001  0.1599675E+01  0.7818608E-02  0.3353717E+00
         11   -1    0    0    0    0  0.00000000000E+00  0.00000000000E+00  0.39999999674E+01  0.40000000000E+01  0.51100000000E-03 0. -1.
    9000002   -1    0    0    0    0 -0.00000000000E+00 -0.00000000000E+00  0.00000000000E+00  0.93800000000E+00  0.93800000000E+00 0. -1.
         11    1    1    2    0    0  0.83276579419E-01  0.79703116994E-01  0.97072684924E+00  0.97754716126E+00  0.51100000000E-03 0. -1.
    9000002    1    1    2    0    0 -0.32714145902E+00 -0.31213313330E+00  0.13890471098E+00  0.10505175609E+01  0.93800000000E+00 0. -1.
         22    1    1    2    0    0  0.24386487960E+00  0.23243001630E+00  0.28903684071E+01  0.29099352778E+01  0.00000000000E+00 0. -1.
</event>
<event>
 5    1  0.6645559E+001  0.1599677E+01  0.7818608E-02  0.3353714E+00
         11   -1    0    0    0    0  0.00000000000E+00  0.00000000000E+00  0.39999999674E+01  0.40000000000E+01  0.51100000000E-03 0.  1.
    9000002   -1    0    0    0    0 -0.00000000000E+00 -0.00000000000E+00  0.00000000000E+00  0.93800000000E+00  0.93800000000E+00 0.  1.
         11    1    1    2    0    0 -0.21467189279E-01  0.13346067042E+00  0.13584560148E+01  0.13651650435E+01  0.51100000000E-03 0. -1.
    9000002    1    1    2    0    0  0.59899646280E-01 -0.38272572895E+00  0.10106259615E+00  0.10198649909E+01  0.93800000000E+00 0.  1.
         22    1    1    2    0    0 -0.38432457001E-01  0.24926505852E+00  0.25404813564E+01  0.25529699656E+01  0.00000000000E+00 0.  1.
</event>
<event>
 5    1  0.6645559E+001  0.1598864E+01  0.7818608E-02  0.3354598E+00
         11   -1    0    0    0    0  0.00000000000E+00  0.00000000000E+00  0.39999999674E+01  0.40000000000E+01  0.51100000000E-03 0.  1.
    9000002   -1    0    0    0    0 -0.00000000000E+00 -0.00000000000E+00  0.00000000000E+00  0.93800000000E+00  0.93800000000E+00 0. -1.
         11    1    1    2    0    0 -0.32239747684E-01 -0.27510076752E-01  0.24099686765E+00  0.24469564155E+00  0.51100000000E-03 0.  1.
    9000002    1    1    2    0    0  0.36757540853E+00  0.21991186324E+00  0.12491697066E+00  0.10387112968E+01  0.93800000000E+00 0. -1.
         22    1    1    2    0    0 -0.33533566085E+00 -0.19240178649E+00  0.36340861290E+01  0.36545930616E+01  0.00000000000E+00 0.  1.
</event>
<event>
 5    1  0.6645559E+001  0.1599126E+01  0.7818608E-02  0.3354312E+00
         11   -1    0    0    0    0  0.00000000000E+00  0.00000000000E+00  0.39999999674E+01  0.40000000000E+01  0.51100000000E-03 0. -1.
    9000002   -1    0    0    0    0 -0.00000000000E+00 -0.00000000000E+00  0.00000000000E+00  0.93800000000E+00  0.93800000000E+00 0.  1.
         11    1    1    2    0    0 -0.30051714150E-01 -0.13041505040E-01  0.52330716255E+00  0.52433179750E+00  0.51100000000E-03 0. -1.
    9000002    1    1    2    0    0  0.24250537194E+00  0.24073663526E+00  0.78661350175E-01  0.10013963206E+01  0.93800000000E+00 0.  1.
         22    1    1    2    0    0 -0.21245365779E+00 -0.22769513022E+00  0.33980314546E+01  0.34122718819E+01  0.00000000000E+00 0. -1.
</event>
<event>
 5    1  0.6645559E+001  0.1595965E+01  0.7818608E-02  0.3357754E+00
         11   -1    0    0    0    0  0.00000000000E+00  0.00000000000E+00  0.39999999674E+01  0.40000000000E+01  0.51100000000E-03 0. -1.
    9000002   -1    0    0    0    0 -0.00000000000E+00 -0.00000000000E+00  0.00000000000E+00  0.93800000000E+00  0.93800000000E+00 0.  1.
         11    1    1    2    0    0 -0.28549348143E+00  0.15839451358E+00  0.71006258853E+00  0.78152702488E+00  0.51100000000E-03 0. -1.
    9000002    1    1    2    0    0  0.99671883768E+00 -0.75423603468E+00  0.16523001904E+01  0.22742603977E+01  0.93800000000E+00 0.  1.
         22    1    1    2    0    0 -0.71122535625E+00  0.59584152110E+00  0.16376371884E+01  0.18822125774E+01  0.00000000000E+00 0. -1.
</event>
<event>
 5    1  0.6645559E+001  0.1594825E+01  0.7818608E-02  0.3359000E+00
         11   -1    0    0    0    0  0.00000000000E+00  0.00000000000E+00  0.39999999674E+01  0.40000000000E+01  0.51100000000E-03 0. -1.
    9000002   -1    0    0    0    0 -0.00000000000E+00 -0.00000000000E+00  0.00000000000E+00  0.93800000000E+00  0.93800000000E+00 0. -1.
         11    1    1    2    0    0 -0.11956912177E-01 -0.13778768761E-01  0.10936656627E+00  0.11087889410E+00  0.51100000000E-03 0. -1.
    9000002    1    1    2    0    0  0.29410021516E+00 -0.48750109581E+00  0.22941986323E+00  0.11209949726E+01  0.93800000000E+00 0. -1.
         22    1    1    2    0    0 -0.28214330299E+00  0.50127986457E+00  0.36612135379E+01  0.37061261333E+01  0.00000000000E+00 0. -1.
</event>
<event>
 5    1  0.6645559E+001  0.1599676E+01  0.7818608E-02  0.3353715E+00
         11   -1    0    0    0    0  0.00000000000E+00  0.00000000000E+00  0.39999999674E+01  0.40000000000E+01  0.51100000000E-03 0.  1.
    9000002   -1    0    0    0    0 -0.00000000000E+00 -0.00000000000E+00  0.00000000000E+00  0.93800000000E+00  0.93800000000E+00 0. -1.
         11    1    1    2    0    0 -0.36396651503E-02 -0.12091003615E+00  0.82675006461E+00  0.83555275982E+00  0.51100000000E-03 0.  1.
    9000002    1    1    2    0    0  0.18887596613E-01  0.55619955778E+00  0.21418785851E+00  0.11115012947E+01  0.93800000000E+00 0. -1.
         22    1    1    2    0    0 -0.15247931463E-01 -0.43528952163E+00  0.29590620442E+01  0.29909459455E+01  0.00000000000E+00 0.  1.
</event>
<event>
 5    1  0.6645559E+001  0.1599673E+01  0.7818608E-02  0.3353718E+00
         11   -1    0    0    0    0  0.00000000000E+00  0.00000000000E+00  0.39999999674E+01  0.40000000000E+01  0.51100000000E-03 0.  1.
    9000002   -1    0    0    0    0 -0.00000000000E+00 -0.00000000000E+00  0.00000000000E+00  0.93800000000E+00  0.93800000000E+00 0.  1.
         11    1    1    2    0    0 -0.21587355526E-01 -0.81219178697E-01  0.89017790548E+00  0.89413619400E+00  0.51100000000E-03 0.  1.
    9000002    1    1    2    0    0  0.97964728248E-01  0.36415466808E+00  0.95651422040E-01  0.10154796427E+01  0.93800000000E+00 0.  1.
         22    1    1    2    0    0 -0.76377372722E-01 -0.28293548938E+00  0.30141706398E+01  0.30283841633E+01  0.00000000000E+00 0.  1.
</event>
<event>
 5    1  0.6645559E+001  0.1586332E+01  0.7818608E-02  0.3368333E+00
         11   -1    0    0    0    0  0.00000000000E+00  0.00000000000E+00  0.39999999674E+01  0.40000000000E+01  0.51100000000E-03 0. -1.
    9000002   -1    0    0    0    0 -0.00000000000E+00 -0.00000000000E+00  0.00000000000E+00  0.93800000000E+00  0.93800000000E+00 0.  1.
         11    1    1    2    0    0 -0.11451855051E-01 -0.37404385259E-01  0.48174794106E+00  0.48333381101E+00  0.51100000000E-03 0. -1.
    9000002    1    1    2    0    0 -0.98219288908E-01 -0.41201038294E+00  0.13276952463E+00  0.10377241112E+01  0.93800000000E+00 0.  1.
         22    1    1    2    0    0  0.10967114396E+00  0.44941476820E+00  0.33854825017E+01  0.34169420778E+01  0.00000000000E+00 0. -1.
</event>
<event>
 5    1  0.6645559E+001  0.1485194E+01  0.7818608E-02  0.3488243E+00
         11   -1    0    0    0    0  0.00000000000E+00  0.00000000000E+00  0.39999999674E+01  0.40000000000E+01  0.51100000000E-03 0. -1.
    9000002   -1    0    0    0    0 -0.00000000000E+00 -0.00000000000E+00  0.00000000000E+00  0.93800000000E+00  0.93800000000E+00 0. -1.
         11    1    1    2    0    0 -0.24477663668E+00 -0.10007425033E+00  0.70092381235E+00  0.74914945724E+00  0.51100000000E-03 0. -1.
    9000002    1    1    2    0    0 -0.39909501746E+00  0.68873352652E+00  0.63272748809E+00  0.13834083915E+01  0.93800000000E+00 0. -1.
         22    1    1    2    0    0  0.64387165414E+00 -0.58865927618E+00  0.26663486669E+01  0.28054421513E+01  0.00000000000E+00 0. -1.
</event>
<event>
 5    1  0.6645559E+001  0.1599674E+01  0.7818608E-02  0.3353718E+00
         11   -1    0    0    0    0  0.00000000000E+00  0.00000000000E+00  0.39999999674E+01  0.40000000000E+01  0.51100000000E-03 0. -1.
    9000002   -1    0    0    0    0 -0.00000000000E+00 -0.00000000000E+00  0.00000000000E+00  0.93800000000E+00  0.93800000000E+00 0.  1.
         11    1    1    2    0    0 -0.24229479938E-03  0.71037604540E-02  0.55255104412E-01  0.55712743641E-01  0.51100000000E-03 0. -1.
    9000002    1    1    2    0    0  0.30252496404E-01 -0.49619596788E+00  0.16909295973E+00  0.10749707350E+01  0.93800000000E+00 0.  1.
         22    1    1    2    0    0 -0.30010201604E-01  0.48909220742E+00  0.37756519032E+01  0.38073165214E+01  0.00000000000E+00 0. -1.
</event>
<event>
 5    1  0.6645559E+001  0.1599676E+01  0.7818608E-02  0.3353715E+00
         11   -1    0    0    0    0  0.00000000000E+00  0.00000000000E+00  0.39999999674E+01  0.40000000000E+01  0.51100000000E-03 0. -1.
    9000002   -1    0    0    0    0 -0.00000000000E+00 -0.00000000000E+00  0.00000000000E+00  0.93800000000E+00  0.93800000000E+00 0. -1.
         11    1    1    2    0    0  0.55249294997E-01 -0.10308877618E+00  0.11089495770E+01  0.11151005362E+01  0.51100000000E-03 0. -1.
    9000002    1    1    2    0    0 -0.19037771071E+00  0.36051240132E+00  0.11222659469E+00  0.10289080002E+01  0.93800000000E+00 0. -1.
         22    1    1    2    0    0  0.13512841571E+00 -0.25742362514E+00  0.27788237957E+01  0.27939914637E+01  0.00000000000E+00 0.  1.
</event>
<event>
 5    1  0.6645559E+001  0.1548555E+01  0.7818608E-02  0.3411165E+00
         11   -1    0    0    0    0  0.00000000000E+00  0.00000000000E+00  0.39999999674E+01  0.40000000000E+01  0.51100000000E-03 0. -1.
    9000002   -1    0    0    0    0 -0.00000000000E+00 -0.00000000000E+00  0.00000000000E+00  0.93800000000E+00  0.93800000000E+00 0.  1.
         11    1    1    2    0    0 -0.95419348044E-01 -0.22978727295E+00  0.11905366555E+01  0.12162585383E+01  0.51100000000E-03 0. -1.
    9000002    1    1    2    0    0 -0.31810934261E+00  0.22442409046E+00  0.14559756223E+00  0.10259641204E+01  0.93800000000E+00 0.  1.
         22    1    1    2    0    0  0.41352869066E+00  0.53631824883E-02  0.26638657496E+01  0.26957773413E+01  0.00000000000E+00 0. -1.
</event>
<event>
 5    1  0.6645559E+001  0.1599677E+01  0.7818608E-02  0.3353715E+00
         11   -1    0    0    0    0  0.00000000000E+00  0.00000000000E+00  0.39999999674E+01  0.40000000000E+01  0.51100000000E-03 0. -1.
    9000002   -1    0    0    0    0 -0.00000000000E+00 -0.00000000000E+00  0.00000000000E+00  0.93800000000E+00  0.93800000000E+00 0.  1.
         11    1    1    2    0    0  0.83010699544E-01  0.34086157689E-01  0.93286484623E+00  0.93717112889E+00  0.51100000000E-03 0.  1.
    9000002    1    1    2    0    0 -0.34635575823E+00 -0.14016945818E+00  0.93863951802E-01  0.10140336433E+01  0.93800000000E+00 0.  1.
         22    1    1    2    0    0  0.26334505868E+00  0.10608330049E+00  0.29732711693E+01  0.29867952278E+01  0.00000000000E+00 0. -1.
</event>
<event>
 5    1  0.6645559E+001  0.1599675E+01  0.7818608E-02  0.3353716E+00
         11   -1    0    0    0    0  0.00000000000E+00  0.00000000000E+00  0.39999999674E+01  0.40000000000E+01  0.51100000000E-03 0.  1.
    9000002   -1    0    0    0    0 -0.00000000000E+00 -0.00000000000E+00  0.00000000000E+00  0.93800000000E+00  0.93800000000E+00 0.  1.
         11    1    1    2    0    0 -0.72864991594E-01  0.11316906479E+00  0.14547231943E+01  0.14609368150E+01  0.51100000000E-03 0.  1.
    9000002    1    1    2    0    0  0.20008091531E+00 -0.30482616386E+00  0.89294038009E-01  0.10103310290E+01  0.93800000000E+00 0.  1.
         22    1    1    2    0    0 -0.12721592372E+00  0.19165709907E+00  0.24559827350E+01  0.24667321560E+01  0.00000000000E+00 0.  1.
</event>
<event>
 5    1  0.6645559E+001  0.1592384E+01  0.7818608E-02  0.3361672E+00
         11   -1    0    0    0    0  0.00000000000E+00  0.00000000000E+00  0.39999999674E+01  0.40000000000E+01  0.51100000000E-03 0.  1.
    9000002   -1    0    0    0    0 -0.00000000000E+00 -0.00000000000E+00  0.00000000000E+00  0.93800000000E+00  0.93800000000E+00 0. -1.
         11    1    1    2    0    0 -0.40474888456E-01 -0.15344890111E-01  0.65015295973E+00  0.65159252176E+00  0.51100000000E-03 0.  1.
    9000002    1    1    2    0    0  0.19995687259E-01 -0.31056204380E+00  0.70442598699E-01  0.99078492634E+00  0.93800000000E+00 0. -1.
         22    1    1    2    0    0  0.20479201197E-01  0.32590693391E+00  0.32794044089E+01  0.32956225519E+01  0.00000000000E+00 0.  1.
</event>
<event>
 5    1  0.6645559E+001  0.1598919E+01  0.7818608E-02  0.3354537E+00
         11   -1    0    0    0    0  0.00000000000E+00  0.00000000000E+00  0.39999999674E+01  0.40000000000E+01  0.51100000000E-03 0. -1.
    9000002   -1    0    0    0    0 -0.00000000000E+00 -0.00000000000E+00  0.00000000000E+00  0.93800000000E+00  0.93800000000E+00 0. -1.
         11    1    1    2    0    0 -0.23454242812E-02 -0.15235511085E+00  0.75474524909E+00  0.76997287806E+00  0.51100000000E-03 0. -1.
    9000002    1    1    2    0    0 -0.95082463977E-01  0.66619718100E+00  0.32219194001E+00  0.11985453705E+01  0.93800000000E+00 0. -1.
         22    1    1    2    0    0  0.97427888258E-01 -0.51384207016E+00  0.29230627783E+01  0.29694817514E+01  0.00000000000E+00 0. -1.
</event>
<event>
 5    1  0.6645559E+001  0.1598365E+01  0.7818608E-02  0.3355140E+00
         11   -1    0    0    0    0  0.00000000000E+00  0.00000000000E+00  0.39999999674E+01  0.40000000000E+01  0.51100000000E-03 0. -1.
    9000002   -1    0    0    0    0 -0.00000000000E+00 -0.00000000000E+00  0.00000000000E+00  0.93800000000E+00  0.93800000000E+00 0.  1.
         11    1    1    2    0    0 -0.13486956375E-01 -0.12580844314E+00  0.91748750957E+00  0.92617128745E+00  0.51100000000E-03 0. -1.
    9000002    1    1    2    0    0  0.12485620994E+00  0.39067839671E+00  0.11471712275E+00  0.10301566391E+01  0.93800000000E+00 0.  1.
         22    1    1    2    0    0 -0.11136925356E+00 -0.26486995358E+00  0.29677953350E+01  0.29816720735E+01  0.00000000000E+00 0.  1.
</event>
<event>
 5    1  0.6645559E+001  0.1599661E+01  0.7818608E-02  0.3353731E+00
         11   -1    0    0    0    0  0.00000000000E+00  0.00000000000E+00  0.39999999674E+01  0.40000000000E+01  0.51100000000E-03 0.  1.
    9000002   -1    0    0    0    0 -0.00000000000E+00 -0.00000000000E+00  0.00000000000E+00  0.93800000000E+00  0.93800000000E+00 0. -1.
         11    1    1    2    0    0  0.51272815170E-01  0.19878816222E+00  0.78420174790E+00  0.81062832269E+00  0.51100000000E-03 0.  1.
    9000002    1    1    2    0    0 -0.23873011450E+00 -0.85613049160E+00  0.60178025980E+00  0.14254595635E+01  0.93800000000E+00 0. -1.
         22    1    1    2    0    0  0.18745729933E+00  0.65734232938E+00  0.26140179597E+01  0.27019121138E+01  0.00000000000E+00 0.  1.
</event>
<event>
 5    1  0.6645559E+001  0.1599675E+01  0.7818608E-02  0.3353716E+00
         11   -1    0    0    0    0  0.00000000000E+00  0.00000000000E+00  0.39999999674E+01  0.40000000000E+01  0.51100000000E-03 0.  1.
    9000002   -1    0    0    0    0 -0.00000000000E+00 -0.00000000000E+00  0.00000000000E+00  0.93800000000E+00  0.93800000000E+00 0. -1.
         11    1    1    2    0    0  0.11671506494E+00  0.15140422602E-01  0.11385202868E+01  0.11445874118E+01  0.51100000000E-03 0.  1.
    9000002    1    1    2    0    0 -0.40209875862E+00 -0.54873269911E-01  0.11117484782E+00  0.10280556085E+01  0.93800000000E+00 0. -1.
         22    1    1    2    0    0  0.28538369367E+00  0.39732847308E-01  0.27503048327E+01  0.27653569796E+01  0.00000000000E+00 0.  1.
</event>
<event>
 5    1  0.6645559E+001  0.1599675E+01  0.7818608E-02  0.3353716E+00
         11   -1    0    0    0    0  0.00000000000E+00  0.00000000000E+00  0.39999999674E+01  0.40000000000E+01  0.51100000000E-03 0.  1.
    9000002   -1    0    0    0    0 -0.00000000000E+00 -0.00000000000E+00  0.00000000000E+00  0.93800000000E+00  0.93800000000E+00 0. -1.
         11    1    1    2    0    0 -0.16789957431E+00  0.11190856808E+00  0.92190331975E+00  0.94372654236E+00  0.51100000000E-03 0.  1.
    9000002    1    1    2    0    0  0.64267060093E+00 -0.43179862719E+00  0.43786578748E+00  0.12926894459E+01  0.93800000000E+00 0. -1.
         22    1    1    2    0    0 -0.47477102662E+00  0.31989005911E+00  0.26402308601E+01  0.27015840117E+01  0.00000000000E+00 0.  1.
</event>
<event>
 5    1  0.6645559E+001  0.1599676E+01  0.7818608E-02  0.3353715E+00
         11   -1    0    0    0    0  0.00000000000E+00  0.00000000000E+00  0.39999999674E+01  0.40000000000E+01  0.51100000000E-03 0.  1.
    9000002   -1    0    0    0    0 -0.00000000000E+00 -0.00000000000E+00  0.00000000000E+00  0.93800000000E+00  0.93800000000E+00 0.  1.
         11    1    1    2    0    0 -0.27388369373E-01 -0.17695726540E+00  0.13630830385E+01  0.13747943946E+01  0.51100000000E-03 0.  1.
    9000002    1    1    2    0    0  0.78687753109E-01  0.49527620994E+00  0.17220281596E+00  0.10774915760E+01  0.93800000000E+00 0.  1.
         22    1    1    2    0    0 -0.51299383736E-01 -0.31831894454E+00  0.24647141129E+01  0.24857140293E+01  0.00000000000E+00 0.  1.
</event>
<event>
 5    1  0.6645559E+001  0.1599660E+01  0.7818608E-02  0.3353733E+00
         11   -1    0    0    0    0  0.00000000000E+00  0.00000000000E+00  0.39999999674E+01  0.40000000000E+01  0.51100000000E-03 0.  1.
    9000002   -1    0    0    0    0 -0.00000000000E+00 -0.00000000000E+00  0.00000000000E+00  0.93800000000E+00  0.93800000000E+00 0.  1.
         11    1    1    2    0    0 -0.43830236252E-01 -0.36484165078E-01  0.47261734518E+00  0.47604579611E+00  0.51100000000E-03 0.  1.
    9000002    1    1    2    0    0  0.37706665163E+00  0.27964430491E+00  0.15013518125E+00  0.10596059502E+01  0.93800000000E+00 0.  1.
         22    1    1    2    0    0 -0.33323641538E+00 -0.24316013984E+00  0.33772474409E+01  0.34023482537E+01  0.00000000000E+00 0.  1.
</event>
<event>
 5    1  0.8202041E+001  0.1546979E+01  0.7818608E-02  0.3413001E+00
         11   -1    0    0    0    0  0.00000000000E+00  0.00000000000E+00  0.39999999674E+01  0.40000000000E+01  0.51100000000E-03 0.  1.
    9000002   -1    0    0    0    0 -0.00000000000E+00 -0.00000000000E+00  0.00000000000E+00  0.93800000000E+00  0.93800000000E+00 0.  1.
         11    1    1    2    0    0  0.18573737231E+00 -0.20061240494E+00  0.13498121544E+01  0.13772206874E+01  0.51100000000E-03 0.  1.
    9000002    1    1    2    0    0 -0.91339079151E-01 -0.33175118880E-01  0.45711179658E-01  0.94412760146E+00  0.93800000000E+00 0.  1.
         22    1    1    2    0    0 -0.94398293162E-01  0.23378752382E+00  0.26044766333E+01  0.26166517111E+01  0.00000000000E+00 0.  1.
</event>
<event>
 5    1  0.6645559E+001  0.1598916E+01  0.7818608E-02  0.3354540E+00
         11   -1    0    0    0    0  0.00000000000E+00  0.00000000000E+00  0.39999999674E+01  0.40000000000E+01  0.51100000000E-03 0. -1.
    9000002   -1    0    0    0    0 -0.00000000000E+00 -0.00000000000E+00  0.00000000000E+00  0.93800000000E+00  0.93800000000E+00 0.  1.
         11    1    1    2    0    0 -0.42432628128E-01  0.85073479917E-02  0.71511915379E+00  0.71642764334E+00  0.51100000000E-03 0. -1.
    9000002    1    1    2    0    0  0.35662184010E+00  0.19153071688E-01  0.86204342836E-01  0.10073833261E+01  0.93800000000E+00 0.  1.
         22    1    1    2    0    0 -0.31418921197E+00 -0.27660419680E-01  0.31986764707E+01  0.32141890306E+01  0.00000000000E+00 0. -1.
</event>
<event>
 5    1  0.6645559E+001  0.1551992E+01  0.7818608E-02  0.3407177E+00
         11   -1    0    0    0    0  0.00000000000E+00  0.00000000000E+00  0.39999999674E+01  0.40000000000E+01  0.51100000000E-03 0. -1.
    9000002   -1    0    0    0    0 -0.00000000000E+00 -0.00000000000E+00  0.00000000000E+00  0.93800000000E+00  0.93800000000E+00 0.  1.
         11    1    1    2    0    0 -0.21422564442E+00  0.86312844355E-01  0.11513511073E+01  0.11742879405E+01  0.51100000000E-03 0. -1.
    9000002    1    1    2    0    0 -0.61391743937E-01 -0.10012866397E+00  0.44874141758E-01  0.94638912936E+00  0.93800000000E+00 0.  1.
         22    1    1    2    0    0  0.27561738836E+00  0.13815819614E-01  0.28037747183E+01  0.28173229301E+01  0.00000000000E+00 0. -1.
</event>
<event>
 5    1  0.6645559E+001  0.1589267E+01  0.7818608E-02  0.3365096E+00
         11   -1    0    0    0    0  0.00000000000E+00  0.00000000000E+00  0.39999999674E+01  0.40000000000E+01  0.51100000000E-03 0. -1.
    9000002   -1    0    0    0    0 -0.00000000000E+00 -0.00000000000E+00  0.00000000000E+00  0.93800000000E+00  0.93800000000E+00 0.  1.
         11    1    1    2    0    0  0.91835119535E-01 -0.17501164164E+00  0.75570430855E+00  0.78112228682E+00  0.51100000000E-03 0. -1.
    9000002    1    1    2    0    0 -0.93385468045E-01  0.53903753180E+00  0.21646372318E+00  0.11072410983E+01  0.93800000000E+00 0.  1.
         22    1    1    2    0    0  0.15503485094E-02 -0.36402589016E+00  0.30278319356E+01  0.30496366149E+01  0.00000000000E+00 0. -1.
</event>
<event>
 5    1  0.6645559E+001  0.1599663E+01  0.7818608E-02  0.3353729E+00
         11   -1    0    0    0    0  0.00000000000E+00  0.00000000000E+00  0.39999999674E+01  0.40000000000E+01  0.51100000000E-03 0.  1.
    9000002   -1    0    0    0    0 -0.00000000000E+00 -0.00000000000E+00  0.00000000000E+00  0.93800000000E+00  0.93800000000E+00 0.  1.
         11    1    1    2    0    0  0.50642368484E-01  0.22813865797E-01  0.42295008880E+00  0.42658195074E+00  0.51100000000E-03 0.  1.
    9000002    1    1    2    0    0 -0.45356416357E+00 -0.18248443785E+00  0.16333509268E+00  0.10703005994E+01  0.93800000000E+00 0.  1.
         22    1    1    2    0    0  0.40292179509E+00  0.15967057205E+00  0.34137147859E+01  0.34411174499E+01  0.00000000000E+00 0.  1.
</event>
<event>
 5    1  0.6645559E+001  0.1597812E+01  0.7818608E-02  0.3355742E+00
         11   -1    0    0    0    0  0.00000000000E+00  0.00000000000E+00  0.39999999674E+01  0.40000000000E+01  0.51100000000E-03 0. -1.
    9000002   -1    0    0    0    0 -0.00000000000E+00 -0.00000000000E+00  0.00000000000E+00  0.93800000000E+00  0.93800000000E+00 0. -1.
         11    1    1    2    0    0 -0.18171113399E-01  0.14382487121E-01  0.54918759983E-01  0.59610205645E-01  0.51100000000E-03 0. -1.
    9000002    1    1    2    0    0  0.63819545282E+00 -0.29051213362E+00  0.35360922339E+00  0.12233455026E+01  0.93800000000E+00 0. -1.
         22    1    1    2    0    0 -0.62002433942E+00  0.27612964650E+00  0.35914719840E+01  0.36550442918E+01  0.00000000000E+00 0. -1.
</event>
<event>
 5    1  0.7596189E+001  0.1599497E+01  0.7818608E-02  0.3353909E+00
         11   -1    0    0    0    0  0.00000000000E+00  0.00000000000E+00  0.39999999674E+01  0.40000000000E+01  0.51100000000E-03 0.  1.
    9000002   -1    0    0    0    0 -0.00000000000E+00 -0.00000000000E+00  0.00000000000E+00  0.93800000000E+00  0.93800000000E+00 0.  1.
         11    1    1    2    0    0  0.75607481752E-01 -0.95892685222E-01  0.14648398934E+01  0.14699211111E+01  0.51100000000E-03 0.  1.
    9000002    1    1    2    0    0 -0.18208584629E+00  0.29321759134E+00  0.79981245131E-01  0.10026828067E+01  0.93800000000E+00 0.  1.
         22    1    1    2    0    0  0.10647836453E+00 -0.19732490611E+00  0.24551788288E+01  0.24653960822E+01  0.00000000000E+00 0. -1.
</event>
<event>
 5    1  0.6645559E+001  0.1599297E+01  0.7818608E-02  0.3354127E+00
         11   -1    0    0    0    0  0.00000000000E+00  0.00000000000E+00  0.39999999674E+01  0.40000000000E+01  0.51100000000E-03 0. -1.
    9000002   -1    0    0    0    0 -0.00000000000E+00 -0.00000000000E+00  0.00000000000E+00  0.93800000000E+00  0.93800000000E+00 0.  1.
         11    1    1    2    0    0  0.43107197677E-01  0.14655281061E+00  0.13137462571E+01  0.13225979911E+01  0.51100000000E-03 0. -1.
    9000002    1    1    2    0    0 -0.62043491936E-01 -0.43978250684E+00  0.13418621630E+00  0.10464740746E+01  0.93800000000E+00 0.  1.
         22    1    1    2    0    0  0.18936294259E-01  0.29322969624E+00  0.25520674939E+01  0.25689279343E+01  0.00000000000E+00 0. -1.
</event>
<event>
 5    1  0.6645559E+001  0.1524195E+01  0.7818608E-02  0.3439986E+00
         11   -1    0    0    0    0  0.00000000000E+00  0.00000000000E+00  0.39999999674E+01  0.40000000000E+01  0.51100000000E-03 0. -1.
    9000002   -1    0    0    0    0 -0.00000000000E+00 -0.00000000000E+00  0.00000000000E+00  0.93800000000E+00  0.93800000000E+00 0.  1.
         11    1    1    2    0    0  0.22280756291E+00 -0.85713438265E-02  0.55783167444E+00  0.60074380243E+00  0.51100000000E-03 0. -1.
    9000002    1    1    2    0    0  0.73461172378E-01  0.89733978384E-01  0.66325412313E-01  0.94746598411E+00  0.93800000000E+00 0.  1.
         22    1    1    2    0    0 -0.29626873529E+00 -0.81162634558E-01  0.33758428806E+01  0.33897902135E+01  0.00000000000E+00 0. -1.
</event>
<event>
 5    1  0.6645559E+001  0.1599665E+01  0.7818608E-02  0.3353727E+00
         11   -1    0    0    0    0  0.00000000000E+00  0.00000000000E+00  0.39999999674E+01  0.40000000000E+01  0.51100000000E-03 0. -1.
    9000002   -1    0    0    0    0 -0.00000000000E+00 -0.00000000000E+00  0.00000000000E+00  0.93800000000E+00  0.93800000000E+00 0. -1.
         11    1    1    2    0    0 -0.26098972363E-01 -0.86245977912E-01  0.45287817756E+00  0.46175581198E+00  0.51100000000E-03 0. -1.
    9000002    1    1    2    0    0  0.22299442205E+00  0.70332159059E+00  0.39323201107E+00  0.12565282275E+01  0.93800000000E+00 0. -1.
         22    1    1    2    0    0 -0.19689544969E+00 -0.61707561268E+00  0.31538897787E+01  0.32197159605E+01  0.00000000000E+00 0. -1.
</event>
<event>
 5    1  0.6645559E+001  0.1599582E+01  0.7818608E-02  0.3353817E+00
         11   -1    0    0    0    0  0.00000000000E+00  0.00000000000E+00  0.39999999674E+01  0.40000000000E+01  0.51100000000E-03 0. -1.
    9000002   -1    0    0    0    0 -0.00000000000E+00 -0.00000000000E+00  0.00000000000E+00  0.93800000000E+00  0.93800000000E+00 0. -1.
         11    1    1    2    0    0  0.60025545380E-01  0.13586447817E+00  0.12864302700E+01  0.12949769585E+01  0.51100000000E-03 0. -1.
    9000002    1    1    2    0    0 -0.19898224581E+00 -0.38129754854E+00  0.12535891465E+00  0.10394905541E+01  0.93800000000E+00 0. -1.
         22    1    1    2    0    0  0.13895670043E+00  0.24543307037E+00  0.25882107827E+01  0.26035324873E+01  0.00000000000E+00 0. -1.
</event>
<event>
 5    1  0.6645559E+001  0.1599674E+01  0.7818608E-02  0.3353717E+00
         11   -1    0    0    0    0  0.00000000000E+00  0.00000000000E+00  0.39999999674E+01  0.40000000000E+01  0.51100000000E-03 0. -1.
    9000002   -1    0    0    0    0 -0.00000000000E+00 -0.00000000000E+00  0.00000000000E+00  0.93800000000E+00  0.93800000000E+00 0.  1.
         11    1    1    2    0    0 -0.23195784156E-01 -0.60533425714E-01  0.57067792831E+00  0.57434823846E+00  0.51100000000E-03 0. -1.
    9000002    1    1    2    0    0  0.15808092663E+00  0.40122370623E+00  0.12597019373E+00  0.10400396779E+01  0.93800000000E+00 0.  1.
         22    1    1    2    0    0 -0.13488514247E+00 -0.34069028052E+00  0.33033518453E+01  0.33236120837E+01  0.00000000000E+00 0. -1.
</event>
<event>
 5    1  0.6645559E+001  0.1460329E+01  0.7818608E-02  0.3520465E+00
         11   -1    0    0    0    0  0.00000000000E+00  0.00000000000E+00  0.39999999674E+01  0.40000000000E+01  0.51100000000E-03 0.  1.
    9000002   -1    0    0    0    0 -0.00000000000E+00 -0.00000000000E+00  0.00000000000E+00  0.93800000000E+00  0.93800000000E+00 0. -1.
         11    1    1    2    0    0 -0.22055749458E+00  0.62248999846E-01  0.27333335442E+00  0.35669585105E+00  0.51100000000E-03 0.  1.
    9000002    1    1    2    0    0 -0.23560190516E+00 -0.13638895562E+00  0.16592779384E+00  0.99069987267E+00  0.93800000000E+00 0. -1.
         22    1    1    2    0    0  0.45615939974E+00  0.74139955778E-01  0.35607388191E+01  0.35906042763E+01  0.00000000000E+00 0.  1.
</event>
<event>
 5    1  0.6645559E+001  0.1598342E+01  0.7818608E-02  0.3355164E+00
         11   -1    0    0    0    0  0.00000000000E+00  0.00000000000E+00  0.39999999674E+01  0.40000000000E+01  0.51100000000E-03 0.  1.
    9000002   -1    0    0    0    0 -0.00000000000E+00 -0.00000000000E+00  0.00000000000E+00  0.93800000000E+00  0.93800000000E+00 0.  1.
         11    1    1    2    0    0 -0.13217673143E+00 -0.65089725801E-01  0.81218212253E+00  0.82543771541E+00  0.51100000000E-03 0.  1.
    9000002    1    1    2    0    0  0.52493932402E+00  0.44216862983E+00  0.33692037814E+00  0.12101378981E+01  0.93800000000E+00 0.  1.
         22    1    1    2    0    0 -0.39276259260E+00 -0.37707890403E+00  0.28508974667E+01  0.29024243865E+01  0.00000000000E+00 0.  1.
</event>
<event>
 5    1  0.6645559E+001  0.1288568E+01  0.7818608E-02  0.3804044E+00
         11   -1    0    0    0    0  0.00000000000E+00  0.00000000000E+00  0.39999999674E+01  0.40000000000E+01  0.51100000000E-03 0. -1.
    9000002   -1    0    0    0    0 -0.00000000000E+00 -0.00000000000E+00  0.00000000000E+00  0.93800000000E+00  0.93800000000E+00 0.  1.
         11    1    1    2    0    0 -0.57945413557E+00  0.48333752214E+00  0.92081792705E+00  0.11904991270E+01  0.51100000000E-03 0. -1.
    9000002    1    1    2    0    0  0.68770111016E+00  0.83149951882E-01  0.84489777276E+00  0.14399802005E+01  0.93800000000E+00 0.  1.
         22    1    1    2    0    0 -0.10824697459E+00 -0.56648747402E+00  0.22342842675E+01  0.23075206725E+01  0.00000000000E+00 0.  1.
</event>
<event>
 5    1  0.6645559E+001  0.1598368E+01  0.7818608E-02  0.3355137E+00
         11   -1    0    0    0    0  0.00000000000E+00  0.00000000000E+00  0.39999999674E+01  0.40000000000E+01  0.51100000000E-03 0.  1.
    9000002   -1    0    0    0    0 -0.00000000000E+00 -0.00000000000E+00  0.00000000000E+00  0.93800000000E+00  0.93800000000E+00 0. -1.
         11    1    1    2    0    0 -0.11363990421E+00 -0.44727606494E-01  0.10296211309E+01  0.10368387150E+01  0.51100000000E-03 0.  1.
    9000002    1    1    2    0    0  0.33134534767E+00  0.27643626966E+00  0.12724833894E+00  0.10403090360E+01  0.93800000000E+00 0. -1.
         22    1    1    2    0    0 -0.21770544346E+00 -0.23170866316E+00  0.28431304976E+01  0.28608522490E+01  0.00000000000E+00 0.  1.
</event>
<event>
 5    1  0.6645559E+001  0.1599551E+01  0.7818608E-02  0.3353851E+00
         11   -1    0    0    0    0  0.00000000000E+00  0.00000000000E+00  0.39999999674E+01  0.40000000000E+01  0.51100000000E-03 0. -1.
    9000002   -1    0    0    0    0 -0.00000000000E+00 -0.00000000000E+00  0.00000000000E+00  0.93800000000E+00  0.93800000000E+00 0.  1.
         11    1    1    2    0    0 -0.13334490335E+00  0.77716608130E-01  0.64015887033E+00  0.65850161337E+00  0.51100000000E-03 0. -1.
    9000002    1    1    2    0    0  0.76281928760E+00 -0.38257501537E+00  0.54708148854E+00  0.13810861896E+01  0.93800000000E+00 0.  1.
         22    1    1    2    0    0 -0.62947438425E+00  0.30485840724E+00  0.28127596085E+01  0.28984121971E+01  0.00000000000E+00 0. -1.
</event>
<event>
 5    1  0.6645559E+001  0.1599660E+01  0.7818608E-02  0.3353733E+00
         11   -1    0    0    0    0  0.00000000000E+00  0.00000000000E+00  0.39999999674E+01  0.40000000000E+01  0.51100000000E-03 0. -1.
    9000002   -1    0    0    0    0 -0.00000000000E+00 -0.00000000000E+00  0.00000000000E+00  0.93800000000E+00  0.93800000000E+00 0.  1.
         11    1    1    2    0    0  0.14387287185E+00 -0.62545115585E-01  0.11184272629E+01  0.11293764201E+01  0.51100000000E-03 0. -1.
    9000002    1    1    2    0    0 -0.48872579215E+00  0.22786539526E+00  0.20045009201E+00  0.11003634752E+01  0.93800000000E+00 0.  1.
         22    1    1    2    0    0  0.34485292030E+00 -0.16532027967E+00  0.26811226125E+01  0.27082601047E+01  0.00000000000E+00 0. -1.
</event>
<event>
 5    1  0.6645559E+001  0.1579334E+01  0.7818608E-02  0.3376104E+00
         11   -1    0    0    0    0  0.00000000000E+00  0.00000000000E+00  0.39999999674E+01  0.40000000000E+01  0.51100000000E-03 0.  1.
    9000002   -1    0    0    0    0 -0.00000000000E+00 -0.00000000000E+00  0.00000000000E+00  0.93800000000E+00  0.93800000000E+00 0. -1.
         11    1    1    2    0    0  0.34309832038E+00 -0.10257474338E+00  0.11930551680E+01  0.12456399683E+01  0.51100000000E-03 0.  1.
    9000002    1    1    2    0    0 -0.56190427898E+00  0.26421761456E+00  0.29123568318E+00  0.11619851934E+01  0.93800000000E+00 0. -1.
         22    1    1    2    0    0  0.21880595860E+00 -0.16164287119E+00  0.25157091161E+01  0.25303748383E+01  0.00000000000E+00 0.  1.
</event>
<event>
 5    1  0.8087964E+001  0.1599277E+01  0.7818608E-02  0.3354148E+00
         11   -1    0    0    0    0  0.00000000000E+00  0.00000000000E+00  0.39999999674E+01  0.40000000000E+01  0.51100000000E-03 0. -1.
    9000002   -1    0    0    0    0 -0.00000000000E+00 -0.00000000000E+00  0.00000000000E+00  0.93800000000E+00  0.93800000000E+00 0. -1.
         11    1    1    2    0    0 -0.80374503775E-01  0.62474499704E-01  0.14130684226E+01  0.14167306562E+01  0.51100000000E-03 0. -1.
    9000002    1    1    2    0    0  0.27604699169E+00 -0.20952122903E+00  0.80819952632E-01  0.10032332489E+01  0.93800000000E+00 0. -1.
         22    1    1    2    0    0 -0.19567248792E+00  0.14704672932E+00  0.25061115921E+01  0.25180360949E+01  0.00000000000E+00 0. -1.
</event>
<event>
 5    1  0.6645559E+001  0.1599532E+01  0.7818608E-02  0.3353872E+00
         11   -1    0    0    0    0  0.00000000000E+00  0.00000000000E+00  0.39999999674E+01  0.40000000000E+01  0.51100000000E-03 0. -1.
    9000002   -1    0    0    0    0 -0.00000000000E+00 -0.00000000000E+00  0.00000000000E+00  0.93800000000E+00  0.93800000000E+00 0.  1.
         11    1    1    2    0    0 -0.14685147744E+00 -0.66092088475E-01  0.13408982037E+01  0.13505338849E+01  0.51100000000E-03 0. -1.
    9000002    1    1    2    0    0  0.39986742685E+00  0.22284152723E+00  0.14261581859E+00  0.10534398782E+01  0.93800000000E+00 0.  1.
         22    1    1    2    0    0 -0.25301594942E+00 -0.15674943876E+00  0.25164859451E+01  0.25340262369E+01  0.00000000000E+00 0. -1.
</event>
<event>
 5    1  0.6645559E+001  0.1565593E+01  0.7818608E-02  0.3391575E+00
         11   -1    0    0    0    0  0.00000000000E+00  0.00000000000E+00  0.39999999674E+01  0.40000000000E+01  0.51100000000E-03 0. -1.
    9000002   -1    0    0    0    0 -0.00000000000E+00 -0.00000000000E+00  0.00000000000E+00  0.93800000000E+00  0.93800000000E+00 0.  1.
         11    1    1    2    0    0 -0.36110100043E-01 -0.22267948402E-01  0.32120384909E-01  0.53214482040E-01  0.51100000000E-03 0. -1.
    9000002    1    1    2    0    0 -0.34732274282E+00 -0.88170215000E-01  0.11429879783E+00  0.10106014495E+01  0.93800000000E+00 0.  1.
         22    1    1    2    0    0  0.38343284286E+00  0.11043816340E+00  0.38535807846E+01  0.38741840685E+01  0.00000000000E+00 0. -1.
</event>
<event>
 5    1  0.6645559E+001  0.1599658E+01  0.7818608E-02  0.3353735E+00
         11   -1    0    0    0    0  0.00000000000E+00  0.00000000000E+00  0.39999999674E+01  0.40000000000E+01  0.51100000000E-03 0. -1.
    9000002   -1    0    0    0    0 -0.00000000000E+00 -0.00000000000E+00  0.00000000000E+00  0.93800000000E+00  0.93800000000E+00 0.  1.
         11    1    1    2    0    0 -0.98321517961E-02  0.95530600813E-01  0.10331100311E+01  0.10375641496E+01  0.51100000000E-03 0. -1.
    9000002    1    1    2    0    0  0.28842191191E-01 -0.37662099471E+00  0.95987176474E-01  0.10157424790E+01  0.93800000000E+00 0.  1.
         22    1    1    2    0    0 -0.19010039394E-01  0.28109039390E+00  0.28709027598E+01  0.28846933714E+01  0.00000000000E+00 0. -1.
</event>
<event>
 5    1  0.6645559E+001  0.1589270E+01  0.7818608E-02  0.3365092E+00
         11   -1    0    0    0    0  0.00000000000E+00  0.00000000000E+00  0.39999999674E+01  0.40000000000E+01  0.51100000000E-03 0. -1.
    9000002   -1    0    0    0    0 -0.00000000000E+00 -0.00000000000E+00  0.00000000000E+00  0.93800000000E+00  0.93800000000E+00 0.  1.
         11    1    1    2    0    0  0.20015711932E-01 -0.43920707388E-01  0.79362222584E+00  0.79508877223E+00  0.51100000000E-03 0. -1.
    9000002    1    1    2    0    0 -0.39182695044E+00 -0.16989121312E+00  0.13235570051E+00  0.10391118394E+01  0.93800000000E+00 0.  1.
         22    1    1    2    0    0  0.37181123851E+00  0.21381192051E+00  0.30740220410E+01  0.31037993883E+01  0.00000000000E+00 0. -1.
</event>
<event>
 5    1  0.6645559E+001  0.1488487E+01  0.7818608E-02  0.3484063E+00
         11   -1    0    0    0    0  0.00000000000E+00  0.00000000000E+00  0.39999999674E+01  0.40000000000E+01  0.51100000000E-03 0.  1.
    9000002   -1    0    0    0    0 -0.00000000000E+00 -0.00000000000E+00  0.00000000000E+00  0.93800000000E+00  0.93800000000E+00 0.  1.
         11    1    1    2    0    0  0.17590791984E+00  0.32368199000E+00  0.65961388732E+00  0.75551596170E+00  0.51100000000E-03 0.  1.
    9000002    1    1    2    0    0  0.23462750668E-02  0.24344822691E+00  0.20408349368E+00  0.99033661782E+00  0.93800000000E+00 0.  1.
         22    1    1    2    0    0 -0.17825419491E+00 -0.56713021691E+00  0.31363025864E+01  0.31921474205E+01  0.00000000000E+00 0.  1.
</event>
<event>
 5    1  0.6645559E+001  0.1599065E+01  0.7818608E-02  0.3354379E+00
         11   -1    0    0    0    0  0.00000000000E+00  0.00000000000E+00  0.39999999674E+01  0.40000000000E+01  0.51100000000E-03 0.  1.
    9000002   -1    0    0    0    0 -0.00000000000E+00 -0.00000000000E+00  0.00000000000E+00  0.93800000000E+00  0.93800000000E+00 0. -1.
         11    1    1    2    0    0  0.20976998757E-01  0.12811235357E-01  0.14110281549E+00  0.14322858614E+00  0.51100000000E-03 0.  1.
    9000002    1    1    2    0    0 -0.33279582629E+00 -0.16866506865E+00  0.94082706269E-01  0.10138523181E+01  0.93800000000E+00 0. -1.
         22    1    1    2    0    0  0.31181882753E+00  0.15585383329E+00  0.37648144456E+01  0.37809190957E+01  0.00000000000E+00 0.  1.
</event>
<event>
 5    1  0.6645559E+001  0.1591919E+01  0.7818608E-02  0.3362181E+00
         11   -1    0    0    0    0  0.00000000000E+00  0.00000000000E+00  0.39999999674E+01  0.40000000000E+01  0.51100000000E-03 0.  1.
    9000002   -1    0    0    0    0 -0.00000000000E+00 -0.00000000000E+00  0.00000000000E+00  0.93800000000E+00  0.93800000000E+00 0. -1.
         11    1    1    2    0    0  0.35829582398E-01  0.99479068501E-02  0.19710844492E+00  0.20058594170E+00  0.51100000000E-03 0.  1.
    9000002    1    1    2    0    0  0.88933426657E-02  0.37836214051E+00  0.10274570327E+00  0.10166797335E+01  0.93800000000E+00 0. -1.
         22    1    1    2    0    0 -0.44722925064E-01 -0.38831004736E+00  0.37001458192E+01  0.37207343248E+01  0.00000000000E+00 0.  1.
</event>
<event>
 5    1  0.6645559E+001  0.1550680E+01  0.7818608E-02  0.3408698E+00
         11   -1    0    0    0    0  0.00000000000E+00  0.00000000000E+00  0.39999999674E+01  0.40000000000E+01  0.51100000000E-03 0. -1.
    9000002   -1    0    0    0    0 -0.00000000000E+00 -0.00000000000E+00  0.00000000000E+00  0.93800000000E+00  0.93800000000E+00 0.  1.
         11    1    1    2    0    0  0.99017522285E-01  0.17875418202E+00  0.46299870760E+00  0.50608852157E+00  0.51100000000E-03 0. -1.
    9000002    1    1    2    0    0  0.18152331347E+00 -0.40498924009E+00  0.17705444733E+00  0.10526914435E+01  0.93800000000E+00 0.  1.
         22    1    1    2    0    0 -0.28054083576E+00  0.22623505807E+00  0.33599468124E+01  0.33792200349E+01  0.00000000000E+00 0. -1.
</event>
<event>
 5    1  0.6645559E+001  0.1599676E+01  0.7818608E-02  0.3353715E+00
         11   -1    0    0    0    0  0.00000000000E+00  0.00000000000E+00  0.39999999674E+01  0.40000000000E+01  0.51100000000E-03 0.  1.
    9000002   -1    0    0    0    0 -0.00000000000E+00 -0.00000000000E+00  0.00000000000E+00  0.93800000000E+00  0.93800000000E+00 0.  1.
         11    1    1    2    0    0  0.68058947805E-01  0.58013887404E-01  0.90767278845E+00  0.91206786125E+00  0.51100000000E-03 0.  1.
    9000002    1    1    2    0    0 -0.28913475078E+00 -0.24747743543E+00  0.97464487931E-01  0.10169500045E+01  0.93800000000E+00 0.  1.
         22    1    1    2    0    0  0.22107580297E+00  0.18946354803E+00  0.29948626910E+01  0.30089821343E+01  0.00000000000E+00 0.  1.
</event>
<event>
 5    1  0.6645559E+001  0.1599657E+01  0.7818608E-02  0.3353736E+00
         11   -1    0    0    0    0  0.00000000000E+00  0.00000000000E+00  0.39999999674E+01  0.40000000000E+01  0.51100000000E-03 0.  1.
    9000002   -1    0    0    0    0 -0.00000000000E+00 -0.00000000000E+00  0.00000000000E+00  0.93800000000E+00  0.93800000000E+00 0.  1.
         11    1    1    2    0    0 -0.13395003488E+00  0.11325867588E+00  0.13100766205E+01  0.13217681915E+01  0.51100000000E-03 0.  1.
    9000002    1    1    2    0    0  0.40211084555E+00 -0.33784134416E+00  0.18966585065E+00  0.10916258704E+01  0.93800000000E+00 0.  1.
         22    1    1    2    0    0 -0.26816081067E+00  0.22458266828E+00  0.25002574962E+01  0.25246059381E+01  0.00000000000E+00 0.  1.
</event>
<event>
 5    1  0.6645559E+001  0.1540676E+01  0.7818608E-02  0.3420381E+00
         11   -1    0    0    0    0  0.00000000000E+00  0.00000000000E+00  0.39999999674E+01  0.40000000000E+01  0.51100000000E-03 0. -1.
    9000002   -1    0    0    0    0 -0.00000000000E+00 -0.00000000000E+00  0.00000000000E+00  0.93800000000E+00  0.93800000000E+00 0. -1.
         11    1    1    2    0    0  0.40086019191E-01 -0.17234410601E+00  0.58382450926E+00  0.61004975088E+00  0.51100000000E-03 0. -1.
    9000002    1    1    2    0    0 -0.23559471090E-02 -0.22007253055E+00  0.78053446701E-01  0.96663013078E+00  0.93800000000E+00 0. -1.
         22    1    1    2    0    0 -0.37730072082E-01  0.39241663656E+00  0.33381220114E+01  0.33613201183E+01  0.00000000000E+00 0. -1.
</event>
<event>
 5    1  0.6645559E+001  0.1584976E+01  0.7818608E-02  0.3369833E+00
         11   -1    0    0    0    0  0.00000000000E+00  0.00000000000E+00  0.39999999674E+01  0.40000000000E+01  0.51100000000E-03 0. -1.
    9000002   -1    0    0    0    0 -0.00000000000E+00 -0.00000000000E+00  0.00000000000E+00  0.93800000000E+00  0.93800000000E+00 0.  1.
         11    1    1    2    0    0  0.14225405685E+00  0.19432226458E+00  0.89173396829E+00  0.92368127107E+00  0.51100000000E-03 0. -1.
    9000002    1    1    2    0    0 -0.44492437571E+00 -0.31587615728E+00  0.21942808480E+00  0.11071260684E+01  0.93800000000E+00 0.  1.
         22    1    1    2    0    0  0.30267031886E+00  0.12155389270E+00  0.28888379143E+01  0.29071926606E+01  0.00000000000E+00 0. -1.
</event>
<event>
 5    1  0.6645559E+001  0.1597935E+01  0.7818608E-02  0.3355607E+00
         11   -1    0    0    0    0  0.00000000000E+00  0.00000000000E+00  0.39999999674E+01  0.40000000000E+01  0.51100000000E-03 0. -1.
    9000002   -1    0    0    0    0 -0.00000000000E+00 -0.00000000000E+00  0.00000000000E+00  0.93800000000E+00  0.93800000000E+00 0.  1.
         11    1    1    2    0    0 -0.39652556465E-01 -0.39801486434E-01  0.29699653053E+00  0.30226426157E+00  0.51100000000E-03 0. -1.
    9000002    1    1    2    0    0  0.26142690935E+00  0.28260318889E+00  0.10121687391E+00  0.10189688155E+01  0.93800000000E+00 0.  1.
         22    1    1    2    0    0 -0.22177435289E+00 -0.24280170245E+00  0.36017865629E+01  0.36167669230E+01  0.00000000000E+00 0. -1.
</event>
<event>
 5    1  0.6645559E+001  0.1599677E+01  0.7818608E-02  0.3353714E+00
         11   -1    0    0    0    0  0.00000000000E+00  0.00000000000E+00  0.39999999674E+01  0.40000000000E+01  0.51100000000E-03 0.  1.
    9000002   -1    0    0    0    0 -0.00000000000E+00 -0.00000000000E+00  0.00000000000E+00  0.93800000000E+00  0.93800000000E+00 0. -1.
         11    1    1    2    0    0 -0.95089392928E-01 -0.13806265840E+00  0.13643728565E+01  0.13746333485E+01  0.51100000000E-03 0.  1.
    9000002    1    1    2    0    0  0.26718421325E+00  0.38827012913E+00  0.15136373062E+00  0.10606111804E+01  0.93800000000E+00 0. -1.
         22    1    1    2    0    0 -0.17209482032E+00 -0.25020747072E+00  0.24842633803E+01  0.25027554711E+01  0.00000000000E+00 0.  1.
</event>
<event>
 5    1  0.6645559E+001  0.1599677E+01  0.7818608E-02  0.3353714E+00
         11   -1    0    0    0    0  0.00000000000E+00  0.00000000000E+00  0.39999999674E+01  0.40000000000E+01  0.51100000000E-03 0.  1.
    9000002   -1    0    0    0    0 -0.00000000000E+00 -0.00000000000E+00  0.00000000000E+00  0.93800000000E+00  0.93800000000E+00 0. -1.
         11    1    1    2    0    0  0.90624354801E-01 -0.72713139549E-01  0.11232483680E+01  0.11292418393E+01  0.51100000000E-03 0. -1.
    9000002    1    1    2    0    0 -0.31469954192E+00  0.25026291156E+00  0.10907725036E+00  0.10263572347E+01  0.93800000000E+00 0. -1.
         22    1    1    2    0    0  0.22407518712E+00 -0.17754977201E+00  0.27676743490E+01  0.27824009261E+01  0.00000000000E+00 0.  1.
</event>
<event>
 5    1  0.6836439E+001  0.1599389E+01  0.7818608E-02  0.3354026E+00
         11   -1    0    0    0    0  0.00000000000E+00  0.00000000000E+00  0.39999999674E+01  0.40000000000E+01  0.51100000000E-03 0. -1.
    9000002   -1    0    0    0    0 -0.00000000000E+00 -0.00000000000E+00  0.00000000000E+00  0.93800000000E+00  0.93800000000E+00 0.  1.
         11    1    1    2    0    0  0.12288040474E+00 -0.13755713386E-02  0.14597339801E+01  0.14648976209E+01  0.51100000000E-03 0. -1.
    9000002    1    1    2    0    0 -0.35736305415E+00  0.48653270122E-01  0.87554408595E-01  0.10087543148E+01  0.93800000000E+00 0.  1.
         22    1    1    2    0    0  0.23448264941E+00 -0.47277698783E-01  0.24527115787E+01  0.24643480643E+01  0.00000000000E+00 0.  1.
</event>
<event>
 5    1  0.6645559E+001  0.1599578E+01  0.7818608E-02  0.3353821E+00
         11   -1    0    0    0    0  0.00000000000E+00  0.00000000000E+00  0.39999999674E+01  0.40000000000E+01  0.51100000000E-03 0. -1.
    9000002   -1    0    0    0    0 -0.00000000000E+00 -0.00000000000E+00  0.00000000000E+00  0.93800000000E+00  0.93800000000E+00 0. -1.
         11    1    1    2    0    0 -0.11832723937E-01  0.27833640029E-01  0.24794564387E+00  0.24978396327E+00  0.51100000000E-03 0. -1.
    9000002    1    1    2    0    0  0.10358833247E+00 -0.47466132609E+00  0.16128938434E+00  0.10685935535E+01  0.93800000000E+00 0. -1.
         22    1    1    2    0    0 -0.91755608535E-01  0.44682768606E+00  0.35907649392E+01  0.36196224832E+01  0.00000000000E+00 0. -1.
</event>
<event>
 5    1  0.6645559E+001  0.1599677E+01  0.7818608E-02  0.3353715E+00
         11   -1    0    0    0    0  0.00000000000E+00  0.00000000000E+00  0.39999999674E+01  0.40000000000E+01  0.51100000000E-03 0. -1.
    9000002   -1    0    0    0    0 -0.00000000000E+00 -0.00000000000E+00  0.00000000000E+00  0.93800000000E+00  0.93800000000E+00 0. -1.
         11    1    1    2    0    0 -0.19699634678E+00 -0.65756974590E-01  0.13763360615E+01  0.13919169356E+01  0.51100000000E-03 0. -1.
    9000002    1    1    2    0    0  0.53952279890E+00  0.18242374478E+00  0.22489047027E+00  0.11201709677E+01  0.93800000000E+00 0. -1.
         22    1    1    2    0    0 -0.34252645212E+00 -0.11666677019E+00  0.23987734356E+01  0.24259120967E+01  0.00000000000E+00 0. -1.
</event>
<event>
 5    1  0.6645559E+001  0.1599677E+01  0.7818608E-02  0.3353715E+00
         11   -1    0    0    0    0  0.00000000000E+00  0.00000000000E+00  0.39999999674E+01  0.40000000000E+01  0.51100000000E-03 0.  1.
    9000002   -1    0    0    0    0 -0.00000000000E+00 -0.00000000000E+00  0.00000000000E+00  0.93800000000E+00  0.93800000000E+00 0.  1.
         11    1    1    2    0    0  0.78552847542E-01  0.36426126467E-01  0.89397233215E+00  0.89815600221E+00  0.51100000000E-03 0.  1.
    9000002    1    1    2    0    0 -0.34277901323E+00 -0.16193354589E+00  0.96690490411E-01  0.10163232636E+01  0.93800000000E+00 0.  1.
         22    1    1    2    0    0  0.26422616569E+00  0.12550741943E+00  0.30093371448E+01  0.30235207342E+01  0.00000000000E+00 0.  1.
</event>
<event>
 5    1  0.6645559E+001  0.1599676E+01  0.7818608E-02  0.3353715E+00
         11   -1    0    0    0    0  0.00000000000E+00  0.00000000000E+00  0.39999999674E+01  0.40000000000E+01  0.51100000000E-03 0.  1.
    9000002   -1    0    0    0    0 -0.00000000000E+00 -0.00000000000E+00  0.00000000000E+00  0.93800000000E+00  0.93800000000E+00 0.  1.
         11    1    1    2    0    0 -0.18514922109E+00 -0.27657374560E-02  0.10833818812E+01  0.10990925553E+01  0.51100000000E-03 0.  1.
    9000002    1    1    2    0    0  0.63484882003E+00  0.12124145278E-01  0.28349707033E+00  0.11676448981E+01  0.93800000000E+00 0.  1.
         22    1    1    2    0    0 -0.44969959894E+00 -0.93584078218E-02  0.26331210158E+01  0.26712625466E+01  0.00000000000E+00 0.  1.
</event>
<event>
 5    1  0.6645559E+001  0.1522574E+01  0.7818608E-02  0.3441938E+00
         11   -1    0    0    0    0  0.00000000000E+00  0.00000000000E+00  0.39999999674E+01  0.40000000000E+01  0.51100000000E-03 0. -1.
    9000002   -1    0    0    0    0 -0.00000000000E+00 -0.00000000000E+00  0.00000000000E+00  0.93800000000E+00  0.93800000000E+00 0.  1.
         11    1    1    2    0    0  0.20586713660E+00  0.39453854998E-01  0.41229089798E+00  0.46251695135E+00  0.51100000000E-03 0. -1.
    9000002    1    1    2    0    0  0.42589562712E-01 -0.30779286195E+00  0.12786451939E+00  0.99636522021E+00  0.93800000000E+00 0.  1.
         22    1    1    2    0    0 -0.24845669931E+00  0.26833900695E+00  0.34598445500E+01  0.34791178284E+01  0.00000000000E+00 0. -1.
</event>
<event>
 5    1  0.6645559E+001  0.1575227E+01  0.7818608E-02  0.3380698E+00
         11   -1    0    0    0    0  0.00000000000E+00  0.00000000000E+00  0.39999999674E+01  0.40000000000E+01  0.51100000000E-03 0.  1.
    9000002   -1    0    0    0    0 -0.00000000000E+00 -0.00000000000E+00  0.00000000000E+00  0.93800000000E+00  0.93800000000E+00 0. -1.
         11    1    1    2    0    0 -0.14566371609E+00 -0.38462501293E-01  0.53165725868E+00  0.55259115449E+00  0.51100000000E-03 0.  1.
    9000002    1    1    2    0    0  0.31340947169E+00 -0.31001760792E+00  0.15308847735E+00  0.10476719410E+01  0.93800000000E+00 0. -1.
         22    1    1    2    0    0 -0.16774575560E+00  0.34848010921E+00  0.33152542313E+01  0.33377369045E+01  0.00000000000E+00 0.  1.
</event>
<event>
 5    1  0.6645559E+001  0.1596346E+01  0.7818608E-02  0.3357339E+00
         11   -1    0    0    0    0  0.00000000000E+00  0.00000000000E+00  0.39999999674E+01  0.40000000000E+01  0.51100000000E-03 0. -1.
    9000002   -1    0    0    0    0 -0.00000000000E+00 -0.00000000000E+00  0.00000000000E+00  0.93800000000E+00  0.93800000000E+00 0.  1.
         11    1    1    2    0    0 -0.76561015865E-01  0.15872286533E+00  0.10830024314E+01  0.10972461277E+01  0.51100000000E-03 0. -1.
    9000002    1    1    2    0    0  0.31823430327E+00 -0.72119923964E+00  0.46019638882E+00  0.13088262418E+01  0.93800000000E+00 0.  1.
         22    1    1    2    0    0 -0.24167328741E+00  0.56247637432E+00  0.24568011471E+01  0.25319276305E+01  0.00000000000E+00 0. -1.
</event>
<event>
 5    1  0.6645559E+001  0.1599677E+01  0.7818608E-02  0.3353715E+00
         11   -1    0    0    0    0  0.00000000000E+00  0.00000000000E+00  0.39999999674E+01  0.40000000000E+01  0.51100000000E-03 0. -1.
    9000002   -1    0    0    0    0 -0.00000000000E+00 -0.00000000000E+00  0.00000000000E+00  0.93800000000E+00  0.93800000000E+00 0.  1.
         11    1    1    2    0    0  0.18587137407E-01 -0.13648266983E+00  0.12887220268E+01  0.12960623922E+01  0.51100000000E-03 0. -1.
    9000002    1    1    2    0    0 -0.55654334003E-01  0.41352908291E+00  0.11770382786E+00  0.10333450045E+01  0.93800000000E+00 0.  1.
         22    1    1    2    0    0  0.37067196596E-01 -0.27704641308E+00  0.25935741126E+01  0.26085926033E+01  0.00000000000E+00 0. -1.
</event>
<event>
 5    1  0.6645559E+001  0.1599536E+01  0.7818608E-02  0.3353867E+00
         11   -1    0    0    0    0  0.00000000000E+00  0.00000000000E+00  0.39999999674E+01  0.40000000000E+01  0.51100000000E-03 0. -1.
    9000002   -1    0    0    0    0 -0.00000000000E+00 -0.00000000000E+00  0.00000000000E+00  0.93800000000E+00  0.93800000000E+00 0. -1.
         11    1    1    2    0    0 -0.22190585444E-01  0.27087677116E-02  0.25744707389E+00  0.25841636264E+00  0.51100000000E-03 0. -1.
    9000002    1    1    2    0    0  0.43829908014E+00 -0.62745158345E-01  0.13312975065E+00  0.10457583703E+01  0.93800000000E+00 0. -1.
         22    1    1    2    0    0 -0.41610849470E+00  0.60036390633E-01  0.36094231428E+01  0.36338252671E+01  0.00000000000E+00 0. -1.
</event>
<event>
 5    1  0.6645559E+001  0.1599677E+01  0.7818608E-02  0.3353714E+00
         11   -1    0    0    0    0  0.00000000000E+00  0.00000000000E+00  0.39999999674E+01  0.40000000000E+01  0.51100000000E-03 0.  1.
    9000002   -1    0    0    0    0 -0.00000000000E+00 -0.00000000000E+00  0.00000000000E+00  0.93800000000E+00  0.93800000000E+00 0. -1.
         11    1    1    2    0    0 -0.24694002649E-02 -0.10605958321E+00  0.10978085405E+01  0.11029227470E+01  0.51100000000E-03 0.  1.
    9000002    1    1    2    0    0  0.10421491537E-01  0.37866400804E+00  0.96535637138E-01  0.10161978979E+01  0.93800000000E+00 0. -1.
         22    1    1    2    0    0 -0.79520912723E-02 -0.27260442483E+00  0.28056557898E+01  0.28188793551E+01  0.00000000000E+00 0.  1.
</event>
<event>
 5    1  0.6645559E+001  0.1599672E+01  0.7818608E-02  0.3353720E+00
         11   -1    0    0    0    0  0.00000000000E+00  0.00000000000E+00  0.39999999674E+01  0.40000000000E+01  0.51100000000E-03 0. -1.
    9000002   -1    0    0    0    0 -0.00000000000E+00 -0.00000000000E+00  0.00000000000E+00  0.93800000000E+00  0.93800000000E+00 0. -1.
         11    1    1    2    0    0 -0.98577376047E-01 -0.50384872653E-01  0.11483558181E+01  0.11536799732E+01  0.51100000000E-03 0. -1.
    9000002    1    1    2    0    0  0.34126276014E+00  0.17688074916E+00  0.99467606012E-01  0.10185700150E+01  0.93800000000E+00 0. -1.
         22    1    1    2    0    0 -0.24268538409E+00 -0.12649587650E+00  0.27521765433E+01  0.27657500118E+01  0.00000000000E+00 0. -1.
</event>
<event>
 5    1  0.6645559E+001  0.1599674E+01  0.7818608E-02  0.3353718E+00
         11   -1    0    0    0    0  0.00000000000E+00  0.00000000000E+00  0.39999999674E+01  0.40000000000E+01  0.51100000000E-03 0. -1.
    9000002   -1    0    0    0    0 -0.00000000000E+00 -0.00000000000E+00  0.00000000000E+00  0.93800000000E+00  0.93800000000E+00 0. -1.
         11    1    1    2    0    0 -0.23843586574E-01  0.34965624750E-01  0.39819037604E+00  0.40043345043E+00  0.51100000000E-03 0.  1.
    9000002    1    1    2    0    0  0.24227042068E+00 -0.33302399484E+00  0.11457820539E+00  0.10308113809E+01  0.93800000000E+00 0. -1.
         22    1    1    2    0    0 -0.21842683411E+00  0.29805837009E+00  0.34872313859E+01  0.35067551687E+01  0.00000000000E+00 0. -1.
</event>
<event>
 5    1  0.6645559E+001  0.1465852E+01  0.7818608E-02  0.3513206E+00
         11   -1    0    0    0    0  0.00000000000E+00  0.00000000000E+00  0.39999999674E+01  0.40000000000E+01  0.51100000000E-03 0. -1.
    9000002   -1    0    0    0    0 -0.00000000000E+00 -0.00000000000E+00  0.00000000000E+00  0.93800000000E+00  0.93800000000E+00 0. -1.
         11    1    1    2    0    0  0.18750473557E+00  0.16651859232E+00  0.39304912053E+00  0.46623421123E+00  0.51100000000E-03 0. -1.
    9000002    1    1    2    0    0  0.85394961502E-01  0.23896574110E+00  0.15334517803E+00  0.98374573366E+00  0.93800000000E+00 0. -1.
         22    1    1    2    0    0 -0.27289969707E+00 -0.40548433342E+00  0.34536056688E+01  0.34880200551E+01  0.00000000000E+00 0. -1.
</event>
<event>
 5    1  0.6645559E+001  0.1516825E+01  0.7818608E-02  0.3448901E+00
         11   -1    0    0    0    0  0.00000000000E+00  0.00000000000E+00  0.39999999674E+01  0.40000000000E+01  0.51100000000E-03 0.  1.
    9000002   -1    0    0    0    0 -0.00000000000E+00 -0.00000000000E+00  0.00000000000E+00  0.93800000000E+00  0.93800000000E+00 0. -1.
         11    1    1    2    0    0 -0.28149903204E+00  0.16580097398E+00  0.10437549952E+01  0.10936893613E+01  0.51100000000E-03 0.  1.
    9000002    1    1    2    0    0  0.10153628108E+00  0.27079289322E-01  0.70460923581E-01  0.94649439831E+00  0.93800000000E+00 0. -1.
         22    1    1    2    0    0  0.17996275096E+00 -0.19288026330E+00  0.28857840486E+01  0.28978162404E+01  0.00000000000E+00 0.  1.
</event>
<event>
 5    1  0.6645559E+001  0.1599603E+01  0.7818608E-02  0.3353794E+00
         11   -1    0    0    0    0  0.00000000000E+00  0.00000000000E+00  0.39999999674E+01  0.40000000000E+01  0.51100000000E-03 0. -1.
    9000002   -1    0    0    0    0 -0.00000000000E+00 -0.00000000000E+00  0.00000000000E+00  0.93800000000E+00  0.93800000000E+00 0.  1.
         11    1    1    2    0    0  0.26575216138E-02 -0.48809865477E-02  0.56386383662E-01  0.56661908142E-01  0.51100000000E-03 0. -1.
    9000002    1    1    2    0    0 -0.11033138068E+00  0.48227864642E+00  0.16747491909E+00  0.10736189058E+01  0.93800000000E+00 0.  1.
         22    1    1    2    0    0  0.10767385907E+00 -0.47739765987E+00  0.37761386646E+01  0.38077191861E+01  0.00000000000E+00 0. -1.
</event>
<event>
 5    1  0.6645559E+001  0.1591547E+01  0.7818608E-02  0.3362590E+00
         11   -1    0    0    0    0  0.00000000000E+00  0.00000000000E+00  0.39999999674E+01  0.40000000000E+01  0.51100000000E-03 0. -1.
    9000002   -1    0    0    0    0 -0.00000000000E+00 -0.00000000000E+00  0.00000000000E+00  0.93800000000E+00  0.93800000000E+00 0.  1.
         11    1    1    2    0    0  0.63620137823E-03  0.25692608843E-01  0.44449386084E+00  0.44523653079E+00  0.51100000000E-03 0. -1.
    9000002    1    1    2    0    0  0.37385063322E+00  0.24417970062E+00  0.14238834823E+00  0.10485735377E+01  0.93800000000E+00 0.  1.
         22    1    1    2    0    0 -0.37448683459E+00 -0.26987230946E+00  0.34131177583E+01  0.34441899316E+01  0.00000000000E+00 0. -1.
</event>
<event>
 5    1  0.6645559E+001  0.1599675E+01  0.7818608E-02  0.3353716E+00
         11   -1    0    0    0    0  0.00000000000E+00  0.00000000000E+00  0.39999999674E+01  0.40000000000E+01  0.51100000000E-03 0.  1.
    9000002   -1    0    0    0    0 -0.00000000000E+00 -0.00000000000E+00  0.00000000000E+00  0.93800000000E+00  0.93800000000E+00 0. -1.
         11    1    1    2    0    0 -0.15558466129E+00  0.94816036463E-01  0.12688336677E+01  0.12818485889E+01  0.51100000000E-03 0.  1.
    9000002    1    1    2    0    0  0.46189544732E+00 -0.28076948490E+00  0.20145201315E+00  0.11011838273E+01  0.93800000000E+00 0. -1.
         22    1    1    2    0    0 -0.30631078603E+00  0.18595344844E+00  0.25297142866E+01  0.25549675838E+01  0.00000000000E+00 0.  1.
</event>
<event>
 5    1  0.6645559E+001  0.1598005E+01  0.7818608E-02  0.3355532E+00
         11   -1    0    0    0    0  0.00000000000E+00  0.00000000000E+00  0.39999999674E+01  0.40000000000E+01  0.51100000000E-03 0. -1.
    9000002   -1    0    0    0    0 -0.00000000000E+00 -0.00000000000E+00  0.00000000000E+00  0.93800000000E+00  0.93800000000E+00 0. -1.
         11    1    1    2    0    0  0.11788150758E+00  0.13294485246E+00  0.11229534548E+01  0.11369235271E+01  0.51100000000E-03 0. -1.
    9000002    1    1    2    0    0 -0.48145990867E+00 -0.32184378389E+00  0.23460982344E+00  0.11270638110E+01  0.93800000000E+00 0. -1.
         22    1    1    2    0    0  0.36357840109E+00  0.18889893143E+00  0.26424366891E+01  0.26740126619E+01  0.00000000000E+00 0. -1.
</event>
<event>
 5    1  0.6645559E+001  0.1599668E+01  0.7818608E-02  0.3353723E+00
         11   -1    0    0    0    0  0.00000000000E+00  0.00000000000E+00  0.39999999674E+01  0.40000000000E+01  0.51100000000E-03 0.  1.
    9000002   -1    0    0    0    0 -0.00000000000E+00 -0.00000000000E+00  0.00000000000E+00  0.93800000000E+00  0.93800000000E+00 0.  1.
         11    1    1    2    0    0  0.10278779641E+00  0.67196607411E-01  0.11970699593E+01  0.12033525932E+01  0.51100000000E-03 0.  1.
    9000002    1    1    2    0    0 -0.32731233046E+00 -0.21117178116E+00  0.10221440328E+00  0.10207931559E+01  0.93800000000E+00 0.  1.
         22    1    1    2    0    0  0.22452453405E+00  0.14397517375E+00  0.27007156048E+01  0.27138542509E+01  0.00000000000E+00 0.  1.
</event>
<event>
 5    1  0.6645559E+001  0.1573844E+01  0.7818608E-02  0.3382250E+00
         11   -1    0    0    0    0  0.00000000000E+00  0.00000000000E+00  0.39999999674E+01  0.40000000000E+01  0.51100000000E-03 0. -1.
    9000002   -1    0    0    0    0 -0.00000000000E+00 -0.00000000000E+00  0.00000000000E+00  0.93800000000E+00  0.93800000000E+00 0. -1.
         11    1    1    2    0    0  0.93924999340E-01 -0.30600751098E+00  0.11759294694E+01  0.12187177197E+01  0.51100000000E-03 0. -1.
    9000002    1    1    2    0    0 -0.30960316678E+00  0.40466066665E+00  0.20186018402E+00  0.10863682202E+01  0.93800000000E+00 0. -1.
         22    1    1    2    0    0  0.21567816744E+00 -0.98653155677E-01  0.26222103140E+01  0.26329140601E+01  0.00000000000E+00 0. -1.
</event>
<event>
 5    1  0.6645559E+001  0.1599669E+01  0.7818608E-02  0.3353723E+00
         11   -1    0    0    0    0  0.00000000000E+00  0.00000000000E+00  0.39999999674E+01  0.40000000000E+01  0.51100000000E-03 0.  1.
    9000002   -1    0    0    0    0 -0.00000000000E+00 -0.00000000000E+00  0.00000000000E+00  0.93800000000E+00  0.93800000000E+00 0.  1.
         11    1    1    2    0    0 -0.11113632783E-01 -0.11668608648E+00  0.11493938975E+01  0.11553552477E+01  0.51100000000E-03 0.  1.
    9000002    1    1    2    0    0  0.32102436210E-01  0.38663337268E+00  0.10137881693E+00  0.10201164619E+01  0.93800000000E+00 0.  1.
         22    1    1    2    0    0 -0.20988803427E-01 -0.26994728620E+00  0.27492272530E+01  0.27625282905E+01  0.00000000000E+00 0.  1.
</event>
<event>
 5    1  0.6645559E+001  0.1599673E+01  0.7818608E-02  0.3353719E+00
         11   -1    0    0    0    0  0.00000000000E+00  0.00000000000E+00  0.39999999674E+01  0.40000000000E+01  0.51100000000E-03 0. -1.
    9000002   -1    0    0    0    0 -0.00000000000E+00 -0.00000000000E+00  0.00000000000E+00  0.93800000000E+00  0.93800000000E+00 0. -1.
         11    1    1    2    0    0  0.79595378989E-02 -0.19573258628E+00  0.12677776422E+01  0.12828230629E+01  0.51100000000E-03 0. -1.
    9000002    1    1    2    0    0 -0.26787361123E-01  0.58668966686E+00  0.24001329099E+00  0.11324189630E+01  0.93800000000E+00 0. -1.
         22    1    1    2    0    0  0.18827823224E-01 -0.39095708058E+00  0.24922090342E+01  0.25227579741E+01  0.00000000000E+00 0. -1.
</event>
<event>
 5    1  0.6645559E+001  0.1579553E+01  0.7818608E-02  0.3375860E+00
         11   -1    0    0    0    0  0.00000000000E+00  0.00000000000E+00  0.39999999674E+01  0.40000000000E+01  0.51100000000E-03 0.  1.
    9000002   -1    0    0    0    0 -0.00000000000E+00 -0.00000000000E+00  0.00000000000E+00  0.93800000000E+00  0.93800000000E+00 0.  1.
         11    1    1    2    0    0 -0.53341011286E-01  0.91020921189E-01  0.24306484867E+00  0.26497330688E+00  0.51100000000E-03 0.  1.
    9000002    1    1    2    0    0  0.65410738800E+00 -0.76171791739E-01  0.32837240017E+00  0.11921958942E+01  0.93800000000E+00 0.  1.
         22    1    1    2    0    0 -0.60076637672E+00 -0.14849129450E-01  0.34285627185E+01  0.34808307989E+01  0.00000000000E+00 0.  1.
</event>
<event>
 5    1  0.6645559E+001  0.1599662E+01  0.7818608E-02  0.3353730E+00
         11   -1    0    0    0    0  0.00000000000E+00  0.00000000000E+00  0.39999999674E+01  0.40000000000E+01  0.51100000000E-03 0. -1.
    9000002   -1    0    0    0    0 -0.00000000000E+00 -0.00000000000E+00  0.00000000000E+00  0.93800000000E+00  0.93800000000E+00 0.  1.
         11    1    1    2    0    0 -0.38323860699E-01  0.16609274907E+00  0.13534179769E+01  0.13641099665E+01  0.51100000000E-03 0. -1.
    9000002    1    1    2    0    0  0.98810516160E-01 -0.47850358911E+00  0.16312847423E+00  0.10701327497E+01  0.93800000000E+00 0.  1.
         22    1    1    2    0    0 -0.60486655461E-01  0.31241084005E+00  0.24834535163E+01  0.25037572837E+01  0.00000000000E+00 0. -1.
</event>
<event>
 5    1  0.6645559E+001  0.1599675E+01  0.7818608E-02  0.3353716E+00
         11   -1    0    0    0    0  0.00000000000E+00  0.00000000000E+00  0.39999999674E+01  0.40000000000E+01  0.51100000000E-03 0.  1.
    9000002   -1    0    0    0    0 -0.00000000000E+00 -0.00000000000E+00  0.00000000000E+00  0.93800000000E+00  0.93800000000E+00 0. -1.
         11    1    1    2    0    0 -0.24831942323E-02 -0.37932225407E-01  0.40535992940E+00  0.40713873982E+00  0.51100000000E-03 0. -1.
    9000002    1    1    2    0    0  0.19959900993E-01  0.35811429678E+00  0.86342532841E-01  0.10079401174E+01  0.93800000000E+00 0. -1.
         22    1    1    2    0    0 -0.17476706761E-01 -0.32018207137E+00  0.35082975051E+01  0.35229211428E+01  0.00000000000E+00 0.  1.
</event>
<event>
 5    1  0.6645559E+001  0.1599386E+01  0.7818608E-02  0.3354031E+00
         11   -1    0    0    0    0  0.00000000000E+00  0.00000000000E+00  0.39999999674E+01  0.40000000000E+01  0.51100000000E-03 0.  1.
    9000002   -1    0    0    0    0 -0.00000000000E+00 -0.00000000000E+00  0.00000000000E+00  0.93800000000E+00  0.93800000000E+00 0. -1.
         11    1    1    2    0    0 -0.13542158684E+00  0.16880129236E+00  0.10992466812E+01  0.11203465579E+01  0.51100000000E-03 0.  1.
    9000002    1    1    2    0    0  0.39780659720E+00 -0.53525015560E+00  0.31544472226E+00  0.11933533386E+01  0.93800000000E+00 0. -1.
         22    1    1    2    0    0 -0.26238501037E+00  0.36644886323E+00  0.25853085638E+01  0.26243001035E+01  0.00000000000E+00 0.  1.
</event>
<event>
 5    1  0.6645559E+001  0.1599654E+01  0.7818608E-02  0.3353738E+00
         11   -1    0    0    0    0  0.00000000000E+00  0.00000000000E+00  0.39999999674E+01  0.40000000000E+01  0.51100000000E-03 0.  1.
    9000002   -1    0    0    0    0 -0.00000000000E+00 -0.00000000000E+00  0.00000000000E+00  0.93800000000E+00  0.93800000000E+00 0. -1.
         11    1    1    2    0    0  0.33352882203E-02 -0.38278196716E-02  0.36741610309E-01  0.37094250228E-01  0.51100000000E-03 0.  1.
    9000002    1    1    2    0    0 -0.34503813839E+00  0.29773328534E+00  0.14120401648E+00  0.10523682817E+01  0.93800000000E+00 0. -1.
         22    1    1    2    0    0  0.34170285016E+00 -0.29390546567E+00  0.38220543406E+01  0.38485374680E+01  0.00000000000E+00 0.  1.
</event>
<event>
 5    1  0.6645559E+001  0.1581440E+01  0.7818608E-02  0.3373758E+00
         11   -1    0    0    0    0  0.00000000000E+00  0.00000000000E+00  0.39999999674E+01  0.40000000000E+01  0.51100000000E-03 0.  1.
    9000002   -1    0    0    0    0 -0.00000000000E+00 -0.00000000000E+00  0.00000000000E+00  0.93800000000E+00  0.93800000000E+00 0. -1.
         11    1    1    2    0    0  0.38417313010E+00 -0.51077602497E-01  0.12935029107E+01  0.13503140215E+01  0.51100000000E-03 0.  1.
    9000002    1    1    2    0    0 -0.76162337130E+00  0.46898634629E+00  0.63935370982E+00  0.14452112368E+01  0.93800000000E+00 0. -1.
         22    1    1    2    0    0  0.37745024120E+00 -0.41790874379E+00  0.20671433468E+01  0.21424747417E+01  0.00000000000E+00 0.  1.
</event>
<event>
 5    1  0.6645559E+001  0.1599677E+01  0.7818608E-02  0.3353714E+00
         11   -1    0    0    0    0  0.00000000000E+00  0.00000000000E+00  0.39999999674E+01  0.40000000000E+01  0.51100000000E-03 0. -1.
    9000002   -1    0    0    0    0 -0.00000000000E+00 -0.00000000000E+00  0.00000000000E+00  0.93800000000E+00  0.93800000000E+00 0. -1.
         11    1    1    2    0    0  0.66374217519E-01  0.16557194992E-01  0.67662012548E+00  0.68006965290E+00  0.51100000000E-03 0.  1.
    9000002    1    1    2    0    0 -0.38095096677E+00 -0.95592894757E-01  0.10395710195E+00  0.10222097239E+01  0.93800000000E+00 0. -1.
         22    1    1    2    0    0  0.31457674925E+00  0.79035699765E-01  0.32194227399E+01  0.32357206232E+01  0.00000000000E+00 0. -1.
</event>
<event>
 5    1  0.6645559E+001  0.1597942E+01  0.7818608E-02  0.3355600E+00
         11   -1    0    0    0    0  0.00000000000E+00  0.00000000000E+00  0.39999999674E+01  0.40000000000E+01  0.51100000000E-03 0.  1.
    9000002   -1    0    0    0    0 -0.00000000000E+00 -0.00000000000E+00  0.00000000000E+00  0.93800000000E+00  0.93800000000E+00 0.  1.
         11    1    1    2    0    0 -0.80265128666E-01  0.85843199805E-01  0.14243323252E+01  0.14291726207E+01  0.51100000000E-03 0.  1.
    9000002    1    1    2    0    0  0.13783598104E+00 -0.33926312266E+00  0.91491429378E-01  0.10110949044E+01  0.93800000000E+00 0.  1.
         22    1    1    2    0    0 -0.57570852372E-01  0.25341992285E+00  0.24841762128E+01  0.24977324749E+01  0.00000000000E+00 0. -1.
</event>
<event>
 5    1  0.6645559E+001  0.1599614E+01  0.7818608E-02  0.3353782E+00
         11   -1    0    0    0    0  0.00000000000E+00  0.00000000000E+00  0.39999999674E+01  0.40000000000E+01  0.51100000000E-03 0.  1.
    9000002   -1    0    0    0    0 -0.00000000000E+00 -0.00000000000E+00  0.00000000000E+00  0.93800000000E+00  0.93800000000E+00 0.  1.
         11    1    1    2    0    0 -0.58040652819E-01 -0.82781888727E-01  0.78097243087E+00  0.78748952842E+00  0.51100000000E-03 0.  1.
    9000002    1    1    2    0    0  0.32080873114E+00  0.40908123421E+00  0.18570326875E+00  0.10883911991E+01  0.93800000000E+00 0.  1.
         22    1    1    2    0    0 -0.26276807832E+00 -0.32629934549E+00  0.30333242677E+01  0.30621192725E+01  0.00000000000E+00 0.  1.
</event>
<event>
 5    1  0.6645559E+001  0.1548751E+01  0.7818608E-02  0.3410938E+00
         11   -1    0    0    0    0  0.00000000000E+00  0.00000000000E+00  0.39999999674E+01  0.40000000000E+01  0.51100000000E-03 0.  1.
    9000002   -1    0    0    0    0 -0.00000000000E+00 -0.00000000000E+00  0.00000000000E+00  0.93800000000E+00  0.93800000000E+00 0. -1.
         11    1    1    2    0    0 -0.11548775081E+00 -0.18164350942E+00  0.99165246139E+00  0.10147446232E+01  0.51100000000E-03 0.  1.
    9000002    1    1    2    0    0 -0.45916339808E-01 -0.67629771991E-01  0.42432863155E-01  0.94251081914E+00  0.93800000000E+00 0. -1.
         22    1    1    2    0    0  0.16140409062E+00  0.24927328141E+00  0.29659146428E+01  0.29807445576E+01  0.00000000000E+00 0.  1.
</event>
<event>
 5    1  0.6645559E+001  0.1599164E+01  0.7818608E-02  0.3354271E+00
         11   -1    0    0    0    0  0.00000000000E+00  0.00000000000E+00  0.39999999674E+01  0.40000000000E+01  0.51100000000E-03 0.  1.
    9000002   -1    0    0    0    0 -0.00000000000E+00 -0.00000000000E+00  0.00000000000E+00  0.93800000000E+00  0.93800000000E+00 0.  1.
         11    1    1    2    0    0  0.28886083171E-01 -0.17410133373E-01  0.31743957188E+00  0.31922666158E+00  0.51100000000E-03 0.  1.
    9000002    1    1    2    0    0 -0.41612479389E+00  0.41535112730E-01  0.11867896131E+00  0.10338344672E+01  0.93800000000E+00 0.  1.
         22    1    1    2    0    0  0.38723871072E+00 -0.24124979357E-01  0.35638814342E+01  0.35849388712E+01  0.00000000000E+00 0.  1.
</event>
<event>
 5    1  0.6645559E+001  0.1463755E+01  0.7818608E-02  0.3515955E+00
         11   -1    0    0    0    0  0.00000000000E+00  0.00000000000E+00  0.39999999674E+01  0.40000000000E+01  0.51100000000E-03 0. -1.
    9000002   -1    0    0    0    0 -0.00000000000E+00 -0.00000000000E+00  0.00000000000E+00  0.93800000000E+00  0.93800000000E+00 0. -1.
         11    1    1    2    0    0  0.26466484481E+00  0.24831351004E+00  0.71704474146E+00  0.80365446662E+00  0.51100000000E-03 0. -1.
    9000002    1    1    2    0    0  0.16036261260E+00 -0.28987944924E+00  0.19089297033E+00  0.10129315815E+01  0.93800000000E+00 0. -1.
         22    1    1    2    0    0 -0.42502745741E+00  0.41565939198E-01  0.30920622556E+01  0.31214139519E+01  0.00000000000E+00 0. -1.
</event>
<event>
 5    1  0.6645559E+001  0.1599545E+01  0.7818608E-02  0.3353858E+00
         11   -1    0    0    0    0  0.00000000000E+00  0.00000000000E+00  0.39999999674E+01  0.40000000000E+01  0.51100000000E-03 0.  1.
    9000002   -1    0    0    0    0 -0.00000000000E+00 -0.00000000000E+00  0.00000000000E+00  0.93800000000E+00  0.93800000000E+00 0. -1.
         11    1    1    2    0    0 -0.54462591954E-02 -0.60327369920E-02  0.53517634981E-01  0.54133668173E-01  0.51100000000E-03 0.  1.
    9000002    1    1    2    0    0  0.18526768864E+00  0.34143355128E+00  0.10174665434E+00  0.10203417898E+01  0.93800000000E+00 0. -1.
         22    1    1    2    0    0 -0.17982142945E+00 -0.33540081428E+00  0.38447356780E+01  0.38635245420E+01  0.00000000000E+00 0.  1.
</event>
<event>
 5    1  0.6645559E+001  0.1590156E+01  0.7818608E-02  0.3364117E+00
         11   -1    0    0    0    0  0.00000000000E+00  0.00000000000E+00  0.39999999674E+01  0.40000000000E+01  0.51100000000E-03 0.  1.
    9000002   -1    0    0    0    0 -0.00000000000E+00 -0.00000000000E+00  0.00000000000E+00  0.93800000000E+00  0.93800000000E+00 0.  1.
         11    1    1    2    0    0  0.65105544418E-01  0.21197204893E-01  0.17675754346E+00  0.18955617558E+00  0.51100000000E-03 0.  1.
    9000002    1    1    2    0    0 -0.32642855433E+00 -0.33338229882E+00  0.15660979000E+00  0.10592780488E+01  0.93800000000E+00 0.  1.
         22    1    1    2    0    0  0.26132300991E+00  0.31218509393E+00  0.36666326339E+01  0.36891657757E+01  0.00000000000E+00 0.  1.
</event>
<event>
 5    1  0.6645559E+001  0.1587373E+01  0.7818608E-02  0.3367184E+00
         11   -1    0    0    0    0  0.00000000000E+00  0.00000000000E+00  0.39999999674E+01  0.40000000000E+01  0.51100000000E-03 0. -1.
    9000002   -1    0    0    0    0 -0.00000000000E+00 -0.00000000000E+00  0.00000000000E+00  0.93800000000E+00  0.93800000000E+00 0. -1.
         11    1    1    2    0    0 -0.14561550226E+00  0.28945291220E-01  0.50173059775E+00  0.52323566223E+00  0.51100000000E-03 0. -1.
    9000002    1    1    2    0    0  0.58980430865E+00  0.26619554508E+00  0.30829257795E+00  0.11805157789E+01  0.93800000000E+00 0. -1.
         22    1    1    2    0    0 -0.44418880638E+00 -0.29514083630E+00  0.31899767917E+01  0.32342485588E+01  0.00000000000E+00 0. -1.
</event>
<event>
 5    1  0.6645559E+001  0.1533177E+01  0.7818608E-02  0.3429245E+00
         11   -1    0    0    0    0  0.00000000000E+00  0.00000000000E+00  0.39999999674E+01  0.40000000000E+01  0.51100000000E-03 0. -1.
    9000002   -1    0    0    0    0 -0.00000000000E+00 -0.00000000000E+00  0.00000000000E+00  0.93800000000E+00  0.93800000000E+00 0.  1.
         11    1    1    2    0    0 -0.20276106880E+00  0.32650618340E+00  0.94371177037E+00  0.10189752232E+01  0.51100000000E-03 0. -1.
    9000002    1    1    2    0    0  0.49275105265E+00 -0.24805964937E+00  0.27613712763E+00  0.11226900297E+01  0.93800000000E+00 0.  1.
         22    1    1    2    0    0 -0.28998998384E+00 -0.78446534024E-01  0.27801510694E+01  0.27963347471E+01  0.00000000000E+00 0. -1.
</event>
<event>
 5    1  0.8433559E+001  0.1599655E+01  0.7818608E-02  0.3353738E+00
         11   -1    0    0    0    0  0.00000000000E+00  0.00000000000E+00  0.39999999674E+01  0.40000000000E+01  0.51100000000E-03 0. -1.
    9000002   -1    0    0    0    0 -0.00000000000E+00 -0.00000000000E+00  0.00000000000E+00  0.93800000000E+00  0.93800000000E+00 0.  1.
         11    1    1    2    0    0  0.83378362000E-01  0.10868688735E+00  0.14766513329E+01  0.14829916422E+01  0.51100000000E-03 0. -1.
    9000002    1    1    2    0    0 -0.22753181746E+00 -0.30017043296E+00  0.95437666118E-01  0.10152957032E+01  0.93800000000E+00 0.  1.
         22    1    1    2    0    0  0.14415345546E+00  0.19148354561E+00  0.24279109684E+01  0.24397126547E+01  0.00000000000E+00 0. -1.
</event>
<event>
 5    1  0.6645559E+001  0.1596915E+01  0.7818608E-02  0.3356719E+00
         11   -1    0    0    0    0  0.00000000000E+00  0.00000000000E+00  0.39999999674E+01  0.40000000000E+01  0.51100000000E-03 0.  1.
    9000002   -1    0    0    0    0 -0.00000000000E+00 -0.00000000000E+00  0.00000000000E+00  0.93800000000E+00  0.93800000000E+00 0.  1.
         11    1    1    2    0    0 -0.64425422097E-02 -0.24210281742E-01  0.12342263053E+00  0.12594066436E+00  0.51100000000E-03 0.  1.
    9000002    1    1    2    0    0 -0.27946456367E+00  0.25584864052E+00  0.98848031636E-01  0.10164516233E+01  0.93800000000E+00 0.  1.
         22    1    1    2    0    0  0.28590710587E+00 -0.23163835878E+00  0.37777293052E+01  0.37956077123E+01  0.00000000000E+00 0.  1.
</event>
<event>
 5    1  0.6645559E+001  0.1481328E+01  0.7818608E-02  0.3493177E+00
         11   -1    0    0    0    0  0.00000000000E+00  0.00000000000E+00  0.39999999674E+01  0.40000000000E+01  0.51100000000E-03 0.  1.
    9000002   -1    0    0    0    0 -0.00000000000E+00 -0.00000000000E+00  0.00000000000E+00  0.93800000000E+00  0.93800000000E+00 0. -1.
         11    1    1    2    0    0 -0.26776082242E+00 -0.32108852005E+00  0.12949480523E+01  0.13607661132E+01  0.51100000000E-03 0.  1.
    9000002    1    1    2    0    0  0.19070766907E+00 -0.40476196152E-01  0.11959580352E+00  0.96548168999E+00  0.93800000000E+00 0. -1.
         22    1    1    2    0    0  0.77053153357E-01  0.36156471621E+00  0.25854561116E+01  0.26117521968E+01  0.00000000000E+00 0.  1.
</event>
<event>
 5    1  0.6645559E+001  0.1599662E+01  0.7818608E-02  0.3353731E+00
         11   -1    0    0    0    0  0.00000000000E+00  0.00000000000E+00  0.39999999674E+01  0.40000000000E+01  0.51100000000E-03 0.  1.
    9000002   -1    0    0    0    0 -0.00000000000E+00 -0.00000000000E+00  0.00000000000E+00  0.93800000000E+00  0.93800000000E+00 0. -1.
         11    1    1    2    0    0  0.13136244898E+00  0.26352471527E-01  0.94204835588E+00  0.95152819806E+00  0.51100000000E-03 0.  1.
    9000002    1    1    2    0    0 -0.54209778804E+00 -0.96834973116E-01  0.20949435220E+00  0.11076907996E+01  0.93800000000E+00 0. -1.
         22    1    1    2    0    0  0.41073533905E+00  0.70482501589E-01  0.28484572593E+01  0.28787810024E+01  0.00000000000E+00 0.  1.
</event>
<event>
 5    1  0.6645559E+001  0.1576195E+01  0.7818608E-02  0.3379613E+00
         11   -1    0    0    0    0  0.00000000000E+00  0.00000000000E+00  0.39999999674E+01  0.40000000000E+01  0.51100000000E-03 0.  1.
    9000002   -1    0    0    0    0 -0.00000000000E+00 -0.00000000000E+00  0.00000000000E+00  0.93800000000E+00  0.93800000000E+00 0.  1.
         11    1    1    2    0    0 -0.12955506712E+00 -0.10607514563E+00  0.42104734305E+00  0.45311982758E+00  0.51100000000E-03 0.  1.
    9000002    1    1    2    0    0  0.50078565776E+00  0.11927944918E+00  0.20363743204E+00  0.10891859647E+01  0.93800000000E+00 0.  1.
         22    1    1    2    0    0 -0.37123059064E+00 -0.13204303546E-01  0.33753151923E+01  0.33956942077E+01  0.00000000000E+00 0.  1.
</event>
<event>
 5    1  0.6645559E+001  0.1596632E+01  0.7818608E-02  0.3357026E+00
         11   -1    0    0    0    0  0.00000000000E+00  0.00000000000E+00  0.39999999674E+01  0.40000000000E+01  0.51100000000E-03 0.  1.
    9000002   -1    0    0    0    0 -0.00000000000E+00 -0.00000000000E+00  0.00000000000E+00  0.93800000000E+00  0.93800000000E+00 0.  1.
         11    1    1    2    0    0  0.77120431805E-01  0.10881010747E-01  0.30003096783E+00  0.30997548319E+00  0.51100000000E-03 0.  1.
    9000002    1    1    2    0    0 -0.59459736198E+00  0.13504099215E+00  0.26300349994E+00  0.11492592977E+01  0.93800000000E+00 0.  1.
         22    1    1    2    0    0  0.51747693017E+00 -0.14592200290E+00  0.34369654996E+01  0.34787652191E+01  0.00000000000E+00 0.  1.
</event>
<event>
 5    1  0.6645559E+001  0.1599351E+01  0.7818608E-02  0.3354068E+00
         11   -1    0    0    0    0  0.00000000000E+00  0.00000000000E+00  0.39999999674E+01  0.40000000000E+01  0.51100000000E-03 0.  1.
    9000002   -1    0    0    0    0 -0.00000000000E+00 -0.00000000000E+00  0.00000000000E+00  0.93800000000E+00  0.93800000000E+00 0. -1.
         11    1    1    2    0    0  0.16764958547E-01 -0.52959580816E-02  0.16317373291E+00  0.16411897892E+00  0.51100000000E-03 0.  1.
    9000002    1    1    2    0    0 -0.53356434320E+00  0.26360404084E+00  0.24717582416E+00  0.11380324630E+01  0.93800000000E+00 0. -1.
         22    1    1    2    0    0  0.51679938466E+00 -0.25830808276E+00  0.35896504103E+01  0.36358485581E+01  0.00000000000E+00 0.  1.
</event>
<event>
 5    1  0.6645559E+001  0.1599659E+01  0.7818608E-02  0.3353734E+00
         11   -1    0    0    0    0  0.00000000000E+00  0.00000000000E+00  0.39999999674E+01  0.40000000000E+01  0.51100000000E-03 0.  1.
    9000002   -1    0    0    0    0 -0.00000000000E+00 -0.00000000000E+00  0.00000000000E+00  0.93800000000E+00  0.93800000000E+00 0.  1.
         11    1    1    2    0    0 -0.39287573643E-01  0.58331159632E-01  0.73308541295E+00  0.73645130282E+00  0.51100000000E-03 0.  1.
    9000002    1    1    2    0    0  0.18874461455E+00 -0.30642958994E+00  0.86958237014E-01  0.10084291537E+01  0.93800000000E+00 0.  1.
         22    1    1    2    0    0 -0.14945704090E+00  0.24809843031E+00  0.31799563174E+01  0.31931195434E+01  0.00000000000E+00 0.  1.
</event>
<event>
 5    1  0.6645559E+001  0.1598993E+01  0.7818608E-02  0.3354457E+00
         11   -1    0    0    0    0  0.00000000000E+00  0.00000000000E+00  0.39999999674E+01  0.40000000000E+01  0.51100000000E-03 0.  1.
    9000002   -1    0    0    0    0 -0.00000000000E+00 -0.00000000000E+00  0.00000000000E+00  0.93800000000E+00  0.93800000000E+00 0.  1.
         11    1    1    2    0    0  0.92535973526E-01 -0.39725224234E-01  0.79336136718E+00  0.79972715340E+00  0.51100000000E-03 0.  1.
    9000002    1    1    2    0    0 -0.39905965849E+00  0.82460753726E-01  0.11268440850E+00  0.10288781088E+01  0.93800000000E+00 0.  1.
         22    1    1    2    0    0  0.30652368496E+00 -0.42735529493E-01  0.30939541917E+01  0.31093947378E+01  0.00000000000E+00 0.  1.
</event>
<event>
 5    1  0.6645559E+001  0.1599677E+01  0.7818608E-02  0.3353714E+00
         11   -1    0    0    0    0  0.00000000000E+00  0.00000000000E+00  0.39999999674E+01  0.40000000000E+01  0.51100000000E-03 0.  1.
    9000002   -1    0    0    0    0 -0.00000000000E+00 -0.00000000000E+00  0.00000000000E+00  0.93800000000E+00  0.93800000000E+00 0. -1.
         11    1    1    2    0    0 -0.15091176050E+00  0.20774863474E-01  0.12808921172E+01  0.12899189244E+01  0.51100000000E-03 0.  1.
    9000002    1    1    2    0    0  0.45467736690E+00 -0.61075914973E-01  0.14312948501E+00  0.10539410917E+01  0.93800000000E+00 0. -1.
         22    1    1    2    0    0 -0.30376560640E+00  0.40301051500E-01  0.25759783651E+01  0.25941399839E+01  0.00000000000E+00 0.  1.
</event>
<event>
 5    1  0.6645559E+001  0.1591635E+01  0.7818608E-02  0.3362493E+00
         11   -1    0    0    0    0  0.00000000000E+00  0.00000000000E+00  0.39999999674E+01  0.40000000000E+01  0.51100000000E-03 0.  1.
    9000002   -1    0    0    0    0 -0.00000000000E+00 -0.00000000000E+00  0.00000000000E+00  0.93800000000E+00  0.93800000000E+00 0.  1.
         11    1    1    2    0    0 -0.32874482693E+00 -0.18363657523E+00  0.86006316823E+00  0.93888469338E+00  0.51100000000E-03 0.  1.
    9000002    1    1    2    0    0 -0.74676793560E+00 -0.18809725773E+00  0.98842820825E+00  0.15652083730E+01  0.93800000000E+00 0.  1.
         22    1    1    2    0    0  0.10755127625E+01  0.37173383296E+00  0.21515085909E+01  0.24339069336E+01  0.00000000000E+00 0.  1.
</event>
<event>
 5    1  0.6645559E+001  0.1599632E+01  0.7818608E-02  0.3353763E+00
         11   -1    0    0    0    0  0.00000000000E+00  0.00000000000E+00  0.39999999674E+01  0.40000000000E+01  0.51100000000E-03 0.  1.
    9000002   -1    0    0    0    0 -0.00000000000E+00 -0.00000000000E+00  0.00000000000E+00  0.93800000000E+00  0.93800000000E+00 0.  1.
         11    1    1    2    0    0 -0.57128577987E-01 -0.88850939350E-01  0.10165625626E+01  0.10220361386E+01  0.51100000000E-03 0.  1.
    9000002    1    1    2    0    0  0.23914686347E+00  0.35562770222E+00  0.12439614340E+00  0.10387399508E+01  0.93800000000E+00 0.  1.
         22    1    1    2    0    0 -0.18201828548E+00 -0.26677676287E+00  0.28590412613E+01  0.28772239106E+01  0.00000000000E+00 0.  1.
</event>
<event>
 5    1  0.6645559E+001  0.1599674E+01  0.7818608E-02  0.3353718E+00
         11   -1    0    0    0    0  0.00000000000E+00  0.00000000000E+00  0.39999999674E+01  0.40000000000E+01  0.51100000000E-03 0.  1.
    9000002   -1    0    0    0    0 -0.00000000000E+00 -0.00000000000E+00  0.00000000000E+00  0.93800000000E+00  0.93800000000E+00 0. -1.
         11    1    1    2    0    0 -0.17763101158E+00  0.13736264543E+00  0.14683678109E+01  0.14854378350E+01  0.51100000000E-03 0.  1.
    9000002    1    1    2    0    0  0.45214066411E+00 -0.35651740580E+00  0.23015482201E+00  0.11244336721E+01  0.93800000000E+00 0. -1.
         22    1    1    2    0    0 -0.27450965252E+00  0.21915476037E+00  0.23014773345E+01  0.23281284929E+01  0.00000000000E+00 0.  1.
</event>
<event>
 5    1  0.6645559E+001  0.1599419E+01  0.7818608E-02  0.3353995E+00
         11   -1    0    0    0    0  0.00000000000E+00  0.00000000000E+00  0.39999999674E+01  0.40000000000E+01  0.51100000000E-03 0.  1.
    9000002   -1    0    0    0    0 -0.00000000000E+00 -0.00000000000E+00  0.00000000000E+00  0.93800000000E+00  0.93800000000E+00 0. -1.
         11    1    1    2    0    0 -0.12113652715E+00 -0.13774881970E+00  0.70270443411E+00  0.72625242056E+00  0.51100000000E-03 0.  1.
    9000002    1    1    2    0    0  0.58113654628E+00  0.60456949734E+00  0.52551115029E+00  0.13635358197E+01  0.93800000000E+00 0. -1.
         22    1    1    2    0    0 -0.46000001913E+00 -0.46682067764E+00  0.27717843830E+01  0.28482117597E+01  0.00000000000E+00 0.  1.
</event>
<event>
 5    1  0.6645559E+001  0.1599317E+01  0.7818608E-02  0.3354105E+00
         11   -1    0    0    0    0  0.00000000000E+00  0.00000000000E+00  0.39999999674E+01  0.40000000000E+01  0.51100000000E-03 0.  1.
    9000002   -1    0    0    0    0 -0.00000000000E+00 -0.00000000000E+00  0.00000000000E+00  0.93800000000E+00  0.93800000000E+00 0. -1.
         11    1    1    2    0    0  0.16847314020E-01 -0.84017040983E-02  0.29258505921E+00  0.29319055001E+00  0.51100000000E-03 0.  1.
    9000002    1    1    2    0    0 -0.23242167036E+00  0.27296195667E+00  0.86552836464E-01  0.10079005190E+01  0.93800000000E+00 0. -1.
         22    1    1    2    0    0  0.21557435634E+00 -0.26456025257E+00  0.36208620717E+01  0.36369089310E+01  0.00000000000E+00 0.  1.
</event>
<event>
 5    1  0.6645559E+001  0.1599667E+01  0.7818608E-02  0.3353725E+00
         11   -1    0    0    0    0  0.00000000000E+00  0.00000000000E+00  0.39999999674E+01  0.40000000000E+01  0.51100000000E-03 0. -1.
    9000002   -1    0    0    0    0 -0.00000000000E+00 -0.00000000000E+00  0.00000000000E+00  0.93800000000E+00  0.93800000000E+00 0. -1.
         11    1    1    2    0    0 -0.16025167909E-01  0.73017948398E-01  0.65419980195E+00  0.65845734014E+00  0.51100000000E-03 0. -1.
    9000002    1    1    2    0    0  0.11078146881E+00 -0.42703738626E+00  0.13203055309E+00  0.10449447498E+01  0.93800000000E+00 0. -1.
         22    1    1    2    0    0 -0.94756300903E-01  0.35401943787E+00  0.32137696123E+01  0.32345979101E+01  0.00000000000E+00 0. -1.
</event>
<event>
 5    1  0.6645559E+001  0.1599674E+01  0.7818608E-02  0.3353717E+00
         11   -1    0    0    0    0  0.00000000000E+00  0.00000000000E+00  0.39999999674E+01  0.40000000000E+01  0.51100000000E-03 0. -1.
    9000002   -1    0    0    0    0 -0.00000000000E+00 -0.00000000000E+00  0.00000000000E+00  0.93800000000E+00  0.93800000000E+00 0.  1.
         11    1    1    2    0    0  0.10807599965E+00  0.59937411842E-02  0.52765194398E+00  0.53864012266E+00  0.51100000000E-03 0. -1.
    9000002    1    1    2    0    0 -0.74556140328E+00 -0.39129857728E-01  0.40366106149E+00  0.12649818988E+01  0.93800000000E+00 0.  1.
         22    1    1    2    0    0  0.63748540362E+00  0.33136116544E-01  0.30686869619E+01  0.31343779785E+01  0.00000000000E+00 0. -1.
</event>
<event>
 5    1  0.8299237E+001  0.1574948E+01  0.7818608E-02  0.3381011E+00
         11   -1    0    0    0    0  0.00000000000E+00  0.00000000000E+00  0.39999999674E+01  0.40000000000E+01  0.51100000000E-03 0. -1.
    9000002   -1    0    0    0    0 -0.00000000000E+00 -0.00000000000E+00  0.00000000000E+00  0.93800000000E+00  0.93800000000E+00 0. -1.
         11    1    1    2    0    0 -0.35940107243E-01  0.13597192405E+00  0.12336861165E+01  0.12416769912E+01  0.51100000000E-03 0. -1.
    9000002    1    1    2    0    0 -0.17861657554E+00  0.43191183580E-01  0.40998293153E-01  0.95671010209E+00  0.93800000000E+00 0. -1.
         22    1    1    2    0    0  0.21455668278E+00 -0.17916310763E+00  0.27253155577E+01  0.27396129067E+01  0.00000000000E+00 0. -1.
</event>
<event>
 5    1  0.7578355E+001  0.1599395E+01  0.7818608E-02  0.3354020E+00
         11   -1    0    0    0    0  0.00000000000E+00  0.00000000000E+00  0.39999999674E+01  0.40000000000E+01  0.51100000000E-03 0.  1.
    9000002   -1    0    0    0    0 -0.00000000000E+00 -0.00000000000E+00  0.00000000000E+00  0.93800000000E+00  0.93800000000E+00 0. -1.
         11    1    1    2    0    0  0.48808299933E-01  0.95847339640E-01  0.13370042805E+01  0.13413238497E+01  0.51100000000E-03 0.  1.
    9000002    1    1    2    0    0 -0.19935033374E+00 -0.27915718118E+00  0.79064746833E-01  0.10018804927E+01  0.93800000000E+00 0. -1.
         22    1    1    2    0    0  0.15054203381E+00  0.18330984154E+00  0.25839309401E+01  0.25947956577E+01  0.00000000000E+00 0.  1.
</event>
<event>
 5    1  0.6645559E+001  0.1502592E+01  0.7818608E-02  0.3466383E+00
         11   -1    0    0    0    0  0.00000000000E+00  0.00000000000E+00  0.39999999674E+01  0.40000000000E+01  0.51100000000E-03 0. -1.
    9000002   -1    0    0    0    0 -0.00000000000E+00 -0.00000000000E+00  0.00000000000E+00  0.93800000000E+00  0.93800000000E+00 0.  1.
         11    1    1    2    0    0 -0.47649361335E+00  0.22144751130E+00  0.86686474406E+00  0.10136764323E+01  0.51100000000E-03 0. -1.
    9000002    1    1    2    0    0  0.61549717714E+00 -0.42946152899E+00  0.53648658543E+00  0.13156503473E+01  0.93800000000E+00 0.  1.
         22    1    1    2    0    0 -0.13900356379E+00  0.20801401769E+00  0.25966486379E+01  0.26086732204E+01  0.00000000000E+00 0. -1.
</event>
<event>
 5    1  0.6645559E+001  0.1599012E+01  0.7818608E-02  0.3354437E+00
         11   -1    0    0    0    0  0.00000000000E+00  0.00000000000E+00  0.39999999674E+01  0.40000000000E+01  0.51100000000E-03 0. -1.
    9000002   -1    0    0    0    0 -0.00000000000E+00 -0.00000000000E+00  0.00000000000E+00  0.93800000000E+00  0.93800000000E+00 0. -1.
         11    1    1    2    0    0 -0.11552393066E+00  0.47277483702E-01  0.77281555790E+00  0.78283145483E+00  0.51100000000E-03 0. -1.
    9000002    1    1    2    0    0  0.44806076083E+00 -0.22419703927E+00  0.17246870737E+00  0.10773171366E+01  0.93800000000E+00 0. -1.
         22    1    1    2    0    0 -0.33253683018E+00  0.17691955557E+00  0.30547157021E+01  0.30778514086E+01  0.00000000000E+00 0. -1.
</event>
<event>
 5    1  0.6645559E+001  0.1595363E+01  0.7818608E-02  0.3358412E+00
         11   -1    0    0    0    0  0.00000000000E+00  0.00000000000E+00  0.39999999674E+01  0.40000000000E+01  0.51100000000E-03 0. -1.
    9000002   -1    0    0    0    0 -0.00000000000E+00 -0.00000000000E+00  0.00000000000E+00  0.93800000000E+00  0.93800000000E+00 0.  1.
         11    1    1    2    0    0 -0.15288250367E-01 -0.90180481380E-02  0.14188050228E+00  0.14298739049E+00  0.51100000000E-03 0. -1.
    9000002    1    1    2    0    0 -0.20488712237E+00 -0.27219342383E+00  0.81208310213E-01  0.10012526068E+01  0.93800000000E+00 0.  1.
         22    1    1    2    0    0  0.22017537273E+00  0.28121147197E+00  0.37769111549E+01  0.37937600028E+01  0.00000000000E+00 0. -1.
</event>
<event>
 5    1  0.6645559E+001  0.1599677E+01  0.7818608E-02  0.3353715E+00
         11   -1    0    0    0    0  0.00000000000E+00  0.00000000000E+00  0.39999999674E+01  0.40000000000E+01  0.51100000000E-03 0.  1.
    9000002   -1    0    0    0    0 -0.00000000000E+00 -0.00000000000E+00  0.00000000000E+00  0.93800000000E+00  0.93800000000E+00 0.  1.
         11    1    1    2    0    0  0.59759391995E-01 -0.17801449119E-01  0.66248838712E+00  0.66541656180E+00  0.51100000000E-03 0.  1.
    9000002    1    1    2    0    0 -0.35213157431E+00  0.10819368690E+00  0.91180426353E-01  0.10118598666E+01  0.93800000000E+00 0.  1.
         22    1    1    2    0    0  0.29237218232E+00 -0.90392237777E-01  0.32463311539E+01  0.32607235716E+01  0.00000000000E+00 0.  1.
</event>
<event>
 5    1  0.6645559E+001  0.1599666E+01  0.7818608E-02  0.3353726E+00
         11   -1    0    0    0    0  0.00000000000E+00  0.00000000000E+00  0.39999999674E+01  0.40000000000E+01  0.51100000000E-03 0. -1.
    9000002   -1    0    0    0    0 -0.00000000000E+00 -0.00000000000E+00  0.00000000000E+00  0.93800000000E+00  0.93800000000E+00 0.  1.
         11    1    1    2    0    0 -0.12592726239E+00  0.73226726433E-01  0.11645275018E+01  0.11736031665E+01  0.51100000000E-03 0. -1.
    9000002    1    1    2    0    0  0.41553873293E+00 -0.25363663915E+00  0.16190021832E+00  0.10691396840E+01  0.93800000000E+00 0.  1.
         22    1    1    2    0    0 -0.28961147053E+00  0.18040991271E+00  0.26735722473E+01  0.26952571495E+01  0.00000000000E+00 0. -1.
</event>
<event>
 5    1  0.6645559E+001  0.1599210E+01  0.7818608E-02  0.3354221E+00
         11   -1    0    0    0    0  0.00000000000E+00  0.00000000000E+00  0.39999999674E+01  0.40000000000E+01  0.51100000000E-03 0.  1.
    9000002   -1    0    0    0    0 -0.00000000000E+00 -0.00000000000E+00  0.00000000000E+00  0.93800000000E+00  0.93800000000E+00 0.  1.
         11    1    1    2    0    0 -0.20810126936E-01  0.13063031149E+00  0.72998336552E+00  0.74187149474E+00  0.51100000000E-03 0.  1.
    9000002    1    1    2    0    0  0.12627471987E-01 -0.61857477315E+00  0.26864233769E+00  0.11553384390E+01  0.93800000000E+00 0.  1.
         22    1    1    2    0    0  0.81826549489E-02  0.48794446167E+00  0.30013742642E+01  0.30407900663E+01  0.00000000000E+00 0.  1.
</event>
<event>
 5    1  0.6645559E+001  0.1599612E+01  0.7818608E-02  0.3353784E+00
         11   -1    0    0    0    0  0.00000000000E+00  0.00000000000E+00  0.39999999674E+01  0.40000000000E+01  0.51100000000E-03 0. -1.
    9000002   -1    0    0    0    0 -0.00000000000E+00 -0.00000000000E+00  0.00000000000E+00  0.93800000000E+00  0.93800000000E+00 0. -1.
         11    1    1    2    0    0  0.91840081409E-01  0.28052930268E-01  0.97959188211E+00  0.98428760231E+00  0.51100000000E-03 0. -1.
    9000002    1    1    2    0    0 -0.38354975953E+00 -0.83591465086E-01  0.10389752780E+00  0.10221235969E+01  0.93800000000E+00 0. -1.
         22    1    1    2    0    0  0.29170967812E+00  0.55538534818E-01  0.29165105574E+01  0.29315888008E+01  0.00000000000E+00 0. -1.
</event>
<event>
 5    1  0.6645559E+001  0.1595426E+01  0.7818608E-02  0.3358343E+00
         11   -1    0    0    0    0  0.00000000000E+00  0.00000000000E+00  0.39999999674E+01  0.40000000000E+01  0.51100000000E-03 0. -1.
    9000002   -1    0    0    0    0 -0.00000000000E+00 -0.00000000000E+00  0.00000000000E+00  0.93800000000E+00  0.93800000000E+00 0.  1.
         11    1    1    2    0    0 -0.13484977728E-01  0.21033038358E+00  0.14484292923E+01  0.14636831593E+01  0.51100000000E-03 0. -1.
    9000002    1    1    2    0    0 -0.13111094530E+00 -0.44489480221E+00  0.15013225538E+00  0.10571211658E+01  0.93800000000E+00 0.  1.
         22    1    1    2    0    0  0.14459592303E+00  0.23456441863E+00  0.24014384197E+01  0.24171956750E+01  0.00000000000E+00 0. -1.
</event>
<event>
 5    1  0.6645559E+001  0.1599674E+01  0.7818608E-02  0.3353717E+00
         11   -1    0    0    0    0  0.00000000000E+00  0.00000000000E+00  0.39999999674E+01  0.40000000000E+01  0.51100000000E-03 0. -1.
    9000002   -1    0    0    0    0 -0.00000000000E+00 -0.00000000000E+00  0.00000000000E+00  0.93800000000E+00  0.93800000000E+00 0. -1.
         11    1    1    2    0    0  0.87262904259E-01 -0.56987416861E-01  0.11487165057E+01  0.11534349794E+01  0.51100000000E-03 0. -1.
    9000002    1    1    2    0    0 -0.30332813596E+00  0.19512240354E+00  0.87327124256E-01  0.10087371992E+01  0.93800000000E+00 0. -1.
         22    1    1    2    0    0  0.21606523170E+00 -0.13813498668E+00  0.27639563374E+01  0.27758278214E+01  0.00000000000E+00 0. -1.
</event>
<event>
 5    1  0.6645559E+001  0.1599674E+01  0.7818608E-02  0.3353717E+00
         11   -1    0    0    0    0  0.00000000000E+00  0.00000000000E+00  0.39999999674E+01  0.40000000000E+01  0.51100000000E-03 0. -1.
    9000002   -1    0    0    0    0 -0.00000000000E+00 -0.00000000000E+00  0.00000000000E+00  0.93800000000E+00  0.93800000000E+00 0. -1.
         11    1    1    2    0    0 -0.31634623763E-01  0.29729521600E-02  0.26511517902E+00  0.26701293439E+00  0.51100000000E-03 0. -1.
    9000002    1    1    2    0    0  0.44931779102E+00 -0.51960302251E-01  0.13900206092E+00  0.10505959848E+01  0.93800000000E+00 0. -1.
         22    1    1    2    0    0 -0.41768316725E+00  0.48987350091E-01  0.35958827274E+01  0.36203910808E+01  0.00000000000E+00 0. -1.
</event>
<event>
 5    1  0.6645559E+001  0.1598970E+01  0.7818608E-02  0.3354482E+00
         11   -1    0    0    0    0  0.00000000000E+00  0.00000000000E+00  0.39999999674E+01  0.40000000000E+01  0.51100000000E-03 0. -1.
    9000002   -1    0    0    0    0 -0.00000000000E+00 -0.00000000000E+00  0.00000000000E+00  0.93800000000E+00  0.93800000000E+00 0.  1.
         11    1    1    2    0    0 -0.11029755286E-02 -0.12647950841E+00  0.12953669645E+01  0.13015276088E+01  0.51100000000E-03 0. -1.
    9000002    1    1    2    0    0 -0.76065543451E-01  0.42180067620E+00  0.12498622287E+00  0.10388297903E+01  0.93800000000E+00 0.  1.
         22    1    1    2    0    0  0.77168518980E-01 -0.29532116779E+00  0.25796467800E+01  0.25976426009E+01  0.00000000000E+00 0. -1.
</event>
<event>
 5    1  0.6645559E+001  0.1599615E+01  0.7818608E-02  0.3353781E+00
         11   -1    0    0    0    0  0.00000000000E+00  0.00000000000E+00  0.39999999674E+01  0.40000000000E+01  0.51100000000E-03 0. -1.
    9000002   -1    0    0    0    0 -0.00000000000E+00 -0.00000000000E+00  0.00000000000E+00  0.93800000000E+00  0.93800000000E+00 0.  1.
         11    1    1    2    0    0  0.10093285968E+00  0.39396907592E-01  0.67081529391E+00  0.67950936576E+00  0.51100000000E-03 0. -1.
    9000002    1    1    2    0    0 -0.59770556796E+00 -0.20454003067E+00  0.28047374368E+00  0.11651601139E+01  0.93800000000E+00 0.  1.
         22    1    1    2    0    0  0.49677270828E+00  0.16514312307E+00  0.30487109298E+01  0.30933305203E+01  0.00000000000E+00 0. -1.
</event>
<event>
 5    1  0.6645559E+001  0.1598762E+01  0.7818608E-02  0.3354708E+00
         11   -1    0    0    0    0  0.00000000000E+00  0.00000000000E+00  0.39999999674E+01  0.40000000000E+01  0.51100000000E-03 0. -1.
    9000002   -1    0    0    0    0 -0.00000000000E+00 -0.00000000000E+00  0.00000000000E+00  0.93800000000E+00  0.93800000000E+00 0. -1.
         11    1    1    2    0    0  0.20593396983E-01 -0.25037237688E-01  0.17621925454E+00  0.17917711367E+00  0.51100000000E-03 0. -1.
    9000002    1    1    2    0    0 -0.24316346004E+00  0.29208527251E+00  0.97938829976E-01  0.10167980572E+01  0.93800000000E+00 0. -1.
         22    1    1    2    0    0  0.22257006306E+00 -0.26704803482E+00  0.37258418828E+01  0.37420248291E+01  0.00000000000E+00 0. -1.
</event>
<event>
 5    1  0.6645559E+001  0.1599668E+01  0.7818608E-02  0.3353723E+00
         11   -1    0    0    0    0  0.00000000000E+00  0.00000000000E+00  0.39999999674E+01  0.40000000000E+01  0.51100000000E-03 0.  1.
    9000002   -1    0    0    0    0 -0.00000000000E+00 -0.00000000000E+00  0.00000000000E+00  0.93800000000E+00  0.93800000000E+00 0. -1.
         11    1    1    2    0    0 -0.24803736060E-01  0.14180203791E+00  0.12952296276E+01  0.13032049312E+01  0.51100000000E-03 0.  1.
    9000002    1    1    2    0    0  0.65757448160E-01 -0.41944210158E+00  0.12199106927E+00  0.10368131652E+01  0.93800000000E+00 0. -1.
         22    1    1    2    0    0 -0.40953712100E-01  0.27764006367E+00  0.25827792705E+01  0.25979819036E+01  0.00000000000E+00 0.  1.
</event>
<event>
 5    1  0.6645559E+001  0.1599672E+01  0.7818608E-02  0.3353719E+00
         11   -1    0    0    0    0  0.00000000000E+00  0.00000000000E+00  0.39999999674E+01  0.40000000000E+01  0.51100000000E-03 0.  1.
    9000002   -1    0    0    0    0 -0.00000000000E+00 -0.00000000000E+00  0.00000000000E+00  0.93800000000E+00  0.93800000000E+00 0.  1.
         11    1    1    2    0    0 -0.19850937877E+00  0.26610684344E+00  0.13001830745E+01  0.13418998151E+01  0.51100000000E-03 0.  1.
    9000002    1    1    2    0    0  0.51722282663E+00 -0.70484610003E+00  0.57875701810E+00  0.14068159663E+01  0.93800000000E+00 0.  1.
         22    1    1    2    0    0 -0.31871344787E+00  0.43873925659E+00  0.21210598748E+01  0.21892842185E+01  0.00000000000E+00 0.  1.
</event>
<event>
 5    1  0.6645559E+001  0.1598978E+01  0.7818608E-02  0.3354473E+00
         11   -1    0    0    0    0  0.00000000000E+00  0.00000000000E+00  0.39999999674E+01  0.40000000000E+01  0.51100000000E-03 0.  1.
    9000002   -1    0    0    0    0 -0.00000000000E+00 -0.00000000000E+00  0.00000000000E+00  0.93800000000E+00  0.93800000000E+00 0. -1.
         11    1    1    2    0    0 -0.84136313686E-02  0.66458511761E-01  0.50389853697E+00  0.50833209583E+00  0.51100000000E-03 0.  1.
    9000002    1    1    2    0    0 -0.50955786779E-01 -0.39532233244E+00  0.10772674419E+00  0.10248537896E+01  0.93800000000E+00 0. -1.
         22    1    1    2    0    0  0.59369418147E-01  0.32886382068E+00  0.33883746862E+01  0.34048141145E+01  0.00000000000E+00 0.  1.
</event>
<event>
 5    1  0.6645559E+001  0.1455067E+01  0.7818608E-02  0.3527439E+00
         11   -1    0    0    0    0  0.00000000000E+00  0.00000000000E+00  0.39999999674E+01  0.40000000000E+01  0.51100000000E-03 0.  1.
    9000002   -1    0    0    0    0 -0.00000000000E+00 -0.00000000000E+00  0.00000000000E+00  0.93800000000E+00  0.93800000000E+00 0.  1.
         11    1    1    2    0    0 -0.29725510205E-01 -0.17230203949E+00  0.10151284606E+00  0.20217991445E+00  0.51100000000E-03 0.  1.
    9000002    1    1    2    0    0  0.41056244625E+00 -0.16156193787E+00  0.26866472959E+00  0.10708354304E+01  0.93800000000E+00 0.  1.
         22    1    1    2    0    0 -0.38083693605E+00  0.33386397737E+00  0.36298223917E+01  0.36649846552E+01  0.00000000000E+00 0.  1.
</event>
<event>
 5    1  0.6645559E+001  0.1599532E+01  0.7818608E-02  0.3353872E+00
         11   -1    0    0    0    0  0.00000000000E+00  0.00000000000E+00  0.39999999674E+01  0.40000000000E+01  0.51100000000E-03 0.  1.
    9000002   -1    0    0    0    0 -0.00000000000E+00 -0.00000000000E+00  0.00000000000E+00  0.93800000000E+00  0.93800000000E+00 0. -1.
         11    1    1    2    0    0 -0.16021099241E-02 -0.20198120702E-01  0.12813939444E+00  0.12973240291E+00  0.51100000000E-03 0.  1.
    9000002    1    1    2    0    0 -0.31742594578E-01  0.47149766874E+00  0.15232281157E+00  0.10613029176E+01  0.93800000000E+00 0. -1.
         22    1    1    2    0    0  0.33344704502E-01 -0.45129954804E+00  0.37195377614E+01  0.37469646795E+01  0.00000000000E+00 0.  1.
</event>
<event>
 5    1  0.6645559E+001  0.1595780E+01  0.7818608E-02  0.3357957E+00
         11   -1    0    0    0    0  0.00000000000E+00  0.00000000000E+00  0.39999999674E+01  0.40000000000E+01  0.51100000000E-03 0.  1.
    9000002   -1    0    0    0    0 -0.00000000000E+00 -0.00000000000E+00  0.00000000000E+00  0.93800000000E+00  0.93800000000E+00 0. -1.
         11    1    1    2    0    0 -0.18975908172E-01  0.17276144788E+00  0.10701369963E+01  0.10841586853E+01  0.51100000000E-03 0.  1.
    9000002    1    1    2    0    0  0.18871774347E+00 -0.41119470373E+00  0.14245600907E+00  0.10511104536E+01  0.93800000000E+00 0. -1.
         22    1    1    2    0    0 -0.16974183529E+00  0.23843325585E+00  0.27874069620E+01  0.28027308612E+01  0.00000000000E+00 0.  1.
</event>
<event>
 5    1  0.6645559E+001  0.1583663E+01  0.7818608E-02  0.3371288E+00
         11   -1    0    0    0    0  0.00000000000E+00  0.00000000000E+00  0.39999999674E+01  0.40000000000E+01  0.51100000000E-03 0.  1.
    9000002   -1    0    0    0    0 -0.00000000000E+00 -0.00000000000E+00  0.00000000000E+00  0.93800000000E+00  0.93800000000E+00 0. -1.
         11    1    1    2    0    0 -0.39880695514E+00  0.39080178744E+00  0.81459201638E+00  0.98758971178E+00  0.51100000000E-03 0.  1.
    9000002    1    1    2    0    0  0.87727976522E-02 -0.64975226494E-01  0.25223289431E+00  0.97353180483E+00  0.93800000000E+00 0. -1.
         22    1    1    2    0    0  0.39003415749E+00 -0.32582656095E+00  0.29331750567E+01  0.29768784834E+01  0.00000000000E+00 0. -1.
</event>
<event>
 5    1  0.6645559E+001  0.1599624E+01  0.7818608E-02  0.3353771E+00
         11   -1    0    0    0    0  0.00000000000E+00  0.00000000000E+00  0.39999999674E+01  0.40000000000E+01  0.51100000000E-03 0.  1.
    9000002   -1    0    0    0    0 -0.00000000000E+00 -0.00000000000E+00  0.00000000000E+00  0.93800000000E+00  0.93800000000E+00 0. -1.
         11    1    1    2    0    0  0.59175726814E-02 -0.24344050387E-01  0.30019627452E+00  0.30124029414E+00  0.51100000000E-03 0.  1.
    9000002    1    1    2    0    0 -0.51571762471E-01  0.37158399839E+00  0.94679684732E-01  0.10146637656E+01  0.93800000000E+00 0. -1.
         22    1    1    2    0    0  0.45654189790E-01 -0.34723994801E+00  0.36051240081E+01  0.36220959402E+01  0.00000000000E+00 0.  1.
</event>
<event>
 5    1  0.6645559E+001  0.1599677E+01  0.7818608E-02  0.3353714E+00
         11   -1    0    0    0    0  0.00000000000E+00  0.00000000000E+00  0.39999999674E+01  0.40000000000E+01  0.51100000000E-03 0.  1.
    9000002   -1    0    0    0    0 -0.00000000000E+00 -0.00000000000E+00  0.00000000000E+00  0.93800000000E+00  0.93800000000E+00 0.  1.
         11    1    1    2    0    0 -0.18115643130E+00  0.16098438807E+00  0.11855296314E+01  0.12100472693E+01  0.51100000000E-03 0.  1.
    9000002    1    1    2    0    0  0.55020189189E+00 -0.49075443907E+00  0.39255692255E+00  0.12559884469E+01  0.93800000000E+00 0.  1.
         22    1    1    2    0    0 -0.36904546059E+00  0.32977005100E+00  0.24219134134E+01  0.24719642838E+01  0.00000000000E+00 0.  1.
</event>
<event>
 5    1  0.6645559E+001  0.1599353E+01  0.7818608E-02  0.3354065E+00
         11   -1    0    0    0    0  0.00000000000E+00  0.00000000000E+00  0.39999999674E+01  0.40000000000E+01  0.51100000000E-03 0.  1.
    9000002   -1    0    0    0    0 -0.00000000000E+00 -0.00000000000E+00  0.00000000000E+00  0.93800000000E+00  0.93800000000E+00 0. -1.
         11    1    1    2    0    0  0.69903876159E-01  0.13739569878E+00  0.10005003461E+01  0.10123069365E+01  0.51100000000E-03 0.  1.
    9000002    1    1    2    0    0 -0.19608732918E+00 -0.50039477046E+00  0.19933935421E+00  0.10992840148E+01  0.93800000000E+00 0. -1.
         22    1    1    2    0    0  0.12618345303E+00  0.36299907167E+00  0.28001602670E+01  0.28264090487E+01  0.00000000000E+00 0.  1.
</event>
<event>
 5    1  0.6645559E+001  0.1599646E+01  0.7818608E-02  0.3353748E+00
         11   -1    0    0    0    0  0.00000000000E+00  0.00000000000E+00  0.39999999674E+01  0.40000000000E+01  0.51100000000E-03 0.  1.
    9000002   -1    0    0    0    0 -0.00000000000E+00 -0.00000000000E+00  0.00000000000E+00  0.93800000000E+00  0.93800000000E+00 0.  1.
         11    1    1    2    0    0 -0.52001213122E-02 -0.91682338119E-01  0.65051031836E+00  0.65696014171E+00  0.51100000000E-03 0.  1.
    9000002    1    1    2    0    0  0.53060583494E-01  0.55272306173E+00  0.21319970976E+00  0.11106828191E+01  0.93800000000E+00 0.  1.
         22    1    1    2    0    0 -0.47860462181E-01 -0.46104072361E+00  0.31362899392E+01  0.31703570391E+01  0.00000000000E+00 0.  1.
</event>
<event>
 5    1  0.6645559E+001  0.1580536E+01  0.7818608E-02  0.3374764E+00
         11   -1    0    0    0    0  0.00000000000E+00  0.00000000000E+00  0.39999999674E+01  0.40000000000E+01  0.51100000000E-03 0.  1.
    9000002   -1    0    0    0    0 -0.00000000000E+00 -0.00000000000E+00  0.00000000000E+00  0.93800000000E+00  0.93800000000E+00 0.  1.
         11    1    1    2    0    0 -0.15773300751E-01  0.45850014378E-01  0.96773277146E-01  0.10824208574E+00  0.51100000000E-03 0.  1.
    9000002    1    1    2    0    0  0.27430271085E+00  0.25432483732E+00  0.10989671608E+00  0.10157974150E+01  0.93800000000E+00 0.  1.
         22    1    1    2    0    0 -0.25852941010E+00 -0.30017485169E+00  0.37933299741E+01  0.38139604993E+01  0.00000000000E+00 0.  1.
</event>
<event>
 5    1  0.6645559E+001  0.1599397E+01  0.7818608E-02  0.3354018E+00
         11   -1    0    0    0    0  0.00000000000E+00  0.00000000000E+00  0.39999999674E+01  0.40000000000E+01  0.51100000000E-03 0.  1.
    9000002   -1    0    0    0    0 -0.00000000000E+00 -0.00000000000E+00  0.00000000000E+00  0.93800000000E+00  0.93800000000E+00 0.  1.
         11    1    1    2    0    0  0.45394207022E-01 -0.55649284375E-01  0.62269038308E+00  0.62681819628E+00  0.51100000000E-03 0.  1.
    9000002    1    1    2    0    0 -0.19154024976E+00  0.34430007296E+00  0.10485804796E+00  0.10227753506E+01  0.93800000000E+00 0.  1.
         22    1    1    2    0    0  0.14614604274E+00 -0.28865078859E+00  0.32724515363E+01  0.32884064531E+01  0.00000000000E+00 0.  1.
</event>
<event>
 5    1  0.6645559E+001  0.1599668E+01  0.7818608E-02  0.3353724E+00
         11   -1    0    0    0    0  0.00000000000E+00  0.00000000000E+00  0.39999999674E+01  0.40000000000E+01  0.51100000000E-03 0. -1.
    9000002   -1    0    0    0    0 -0.00000000000E+00 -0.00000000000E+00  0.00000000000E+00  0.93800000000E+00  0.93800000000E+00 0. -1.
         11    1    1    2    0    0  0.17603887395E+00  0.37985583893E-01  0.13333812838E+01  0.13454882009E+01  0.51100000000E-03 0. -1.
    9000002    1    1    2    0    0 -0.50740872834E+00 -0.99562216024E-01  0.18357938691E+00  0.10867021872E+01  0.93800000000E+00 0. -1.
         22    1    1    2    0    0  0.33136985439E+00  0.61576632131E-01  0.24830392966E+01  0.25058096118E+01  0.00000000000E+00 0. -1.
</event>
<event>
 5    1  0.6645559E+001  0.1453303E+01  0.7818608E-02  0.3529789E+00
         11   -1    0    0    0    0  0.00000000000E+00  0.00000000000E+00  0.39999999674E+01  0.40000000000E+01  0.51100000000E-03 0.  1.
    9000002   -1    0    0    0    0 -0.00000000000E+00 -0.00000000000E+00  0.00000000000E+00  0.93800000000E+00  0.93800000000E+00 0. -1.
         11    1    1    2    0    0  0.33650774721E+00  0.24212988421E+00  0.82842362445E+00  0.92636402533E+00  0.51100000000E-03 0.  1.
    9000002    1    1    2    0    0 -0.20641858406E+00  0.42905311521E-01  0.14901857833E+00  0.97288233322E+00  0.93800000000E+00 0. -1.
         22    1    1    2    0    0 -0.13008916316E+00 -0.28503519573E+00  0.30225577646E+01  0.30387536414E+01  0.00000000000E+00 0.  1.
</event>
<event>
 5    1  0.6645559E+001  0.1579443E+01  0.7818608E-02  0.3375982E+00
         11   -1    0    0    0    0  0.00000000000E+00  0.00000000000E+00  0.39999999674E+01  0.40000000000E+01  0.51100000000E-03 0.  1.
    9000002   -1    0    0    0    0 -0.00000000000E+00 -0.00000000000E+00  0.00000000000E+00  0.93800000000E+00  0.93800000000E+00 0. -1.
         11    1    1    2    0    0 -0.13132820256E-01 -0.22182693549E+00  0.13852860011E+01  0.14029958040E+01  0.51100000000E-03 0.  1.
    9000002    1    1    2    0    0 -0.32513479054E+00  0.33735456982E+00  0.16747396434E+00  0.10617967162E+01  0.93800000000E+00 0. -1.
         22    1    1    2    0    0  0.33826761080E+00 -0.11552763433E+00  0.24472400019E+01  0.24732074798E+01  0.00000000000E+00 0.  1.
</event>
<event>
 5    1  0.6645559E+001  0.1599677E+01  0.7818608E-02  0.3353714E+00
         11   -1    0    0    0    0  0.00000000000E+00  0.00000000000E+00  0.39999999674E+01  0.40000000000E+01  0.51100000000E-03 0. -1.
    9000002   -1    0    0    0    0 -0.00000000000E+00 -0.00000000000E+00  0.00000000000E+00  0.93800000000E+00  0.93800000000E+00 0.  1.
         11    1    1    2    0    0  0.54406560472E-01  0.18823766923E+00  0.99343930928E+00  0.10125785976E+01  0.51100000000E-03 0.  1.
    9000002    1    1    2    0    0 -0.19816515792E+00 -0.68818048366E+00  0.36815454788E+00  0.12362214927E+01  0.93800000000E+00 0.  1.
         22    1    1    2    0    0  0.14375859744E+00  0.49994281443E+00  0.26384061102E+01  0.26891999097E+01  0.00000000000E+00 0. -1.
</event>
<event>
 5    1  0.6645559E+001  0.1596010E+01  0.7818608E-02  0.3357705E+00
         11   -1    0    0    0    0  0.00000000000E+00  0.00000000000E+00  0.39999999674E+01  0.40000000000E+01  0.51100000000E-03 0.  1.
    9000002   -1    0    0    0    0 -0.00000000000E+00 -0.00000000000E+00  0.00000000000E+00  0.93800000000E+00  0.93800000000E+00 0.  1.
         11    1    1    2    0    0 -0.96900426915E-01 -0.12113882679E+00  0.13039391729E+01  0.13131343937E+01  0.51100000000E-03 0.  1.
    9000002    1    1    2    0    0  0.35608888183E+00  0.16743211882E+00  0.10739446395E+00  0.10228442585E+01  0.93800000000E+00 0.  1.
         22    1    1    2    0    0 -0.25918845492E+00 -0.46293292036E-01  0.25886663305E+01  0.26020213479E+01  0.00000000000E+00 0.  1.
</event>
<event>
 5    1  0.6645559E+001  0.1599672E+01  0.7818608E-02  0.3353720E+00
         11   -1    0    0    0    0  0.00000000000E+00  0.00000000000E+00  0.39999999674E+01  0.40000000000E+01  0.51100000000E-03 0.  1.
    9000002   -1    0    0    0    0 -0.00000000000E+00 -0.00000000000E+00  0.00000000000E+00  0.93800000000E+00  0.93800000000E+00 0. -1.
         11    1    1    2    0    0  0.76684899334E-02 -0.80382797777E-02  0.87105960052E-01  0.87813034780E-01  0.51100000000E-03 0. -1.
    9000002    1    1    2    0    0 -0.32730845975E+00  0.32789948446E+00  0.14608233032E+00  0.10563299423E+01  0.93800000000E+00 0. -1.
         22    1    1    2    0    0  0.31963996982E+00 -0.31986120468E+00  0.37668116770E+01  0.37938570229E+01  0.00000000000E+00 0.  1.
</event>
<event>
 5    1  0.6645559E+001  0.1599663E+01  0.7818608E-02  0.3353729E+00
         11   -1    0    0    0    0  0.00000000000E+00  0.00000000000E+00  0.39999999674E+01  0.40000000000E+01  0.51100000000E-03 0. -1.
    9000002   -1    0    0    0    0 -0.00000000000E+00 -0.00000000000E+00  0.00000000000E+00  0.93800000000E+00  0.93800000000E+00 0.  1.
         11    1    1    2    0    0  0.18161678404E+00  0.14096499934E+00  0.13050958626E+01  0.13251910273E+01  0.51100000000E-03 0. -1.
    9000002    1    1    2    0    0 -0.52586995860E+00 -0.39799261891E+00  0.30763526070E+00  0.11871902930E+01  0.93800000000E+00 0.  1.
         22    1    1    2    0    0  0.34425317456E+00  0.25702761958E+00  0.23872688441E+01  0.24256186797E+01  0.00000000000E+00 0. -1.
</event>
<event>
 5    1  0.6645559E+001  0.1599594E+01  0.7818608E-02  0.3353805E+00
         11   -1    0    0    0    0  0.00000000000E+00  0.00000000000E+00  0.39999999674E+01  0.40000000000E+01  0.51100000000E-03 0.  1.
    9000002   -1    0    0    0    0 -0.00000000000E+00 -0.00000000000E+00  0.00000000000E+00  0.93800000000E+00  0.93800000000E+00 0.  1.
         11    1    1    2    0    0  0.41843135840E-01 -0.98906849727E-01  0.53643151279E+00  0.54707626706E+00  0.51100000000E-03 0.  1.
    9000002    1    1    2    0    0 -0.33361438531E+00  0.66223083839E+00  0.39769283617E+00  0.12600999299E+01  0.93800000000E+00 0.  1.
         22    1    1    2    0    0  0.29177124947E+00 -0.56332398866E+00  0.30658756184E+01  0.31308238030E+01  0.00000000000E+00 0.  1.
</event>
<event>
 5    1  0.6645559E+001  0.1475921E+01  0.7818608E-02  0.3500123E+00
         11   -1    0    0    0    0  0.00000000000E+00  0.00000000000E+00  0.39999999674E+01  0.40000000000E+01  0.51100000000E-03 0. -1.
    9000002   -1    0    0    0    0 -0.00000000000E+00 -0.00000000000E+00  0.00000000000E+00  0.93800000000E+00  0.93800000000E+00 0.  1.
         11    1    1    2    0    0 -0.82666455859E-02 -0.27681518933E+00  0.10893952933E+01  0.11240450848E+01  0.51100000000E-03 0. -1.
    9000002    1    1    2    0    0  0.54841626722E-01 -0.36958846642E+00  0.20301531146E+00  0.10298846805E+01  0.93800000000E+00 0.  1.
         22    1    1    2    0    0 -0.46574981136E-01  0.64640365575E+00  0.27075893626E+01  0.27840702346E+01  0.00000000000E+00 0. -1.
</event>
<event>
 5    1  0.6645559E+001  0.1599639E+01  0.7818608E-02  0.3353756E+00
         11   -1    0    0    0    0  0.00000000000E+00  0.00000000000E+00  0.39999999674E+01  0.40000000000E+01  0.51100000000E-03 0.  1.
    9000002   -1    0    0    0    0 -0.00000000000E+00 -0.00000000000E+00  0.00000000000E+00  0.93800000000E+00  0.93800000000E+00 0. -1.
         11    1    1    2    0    0 -0.10917464818E+00 -0.19385374952E-01  0.10975938652E+01  0.11031806065E+01  0.51100000000E-03 0.  1.
    9000002    1    1    2    0    0  0.36514315267E+00  0.73921425720E-01  0.93334303806E-01  0.10135823555E+01  0.93800000000E+00 0. -1.
         22    1    1    2    0    0 -0.25596850448E+00 -0.54536050768E-01  0.28090717984E+01  0.28212370380E+01  0.00000000000E+00 0.  1.
</event>
<event>
 5    1  0.6645559E+001  0.1599676E+01  0.7818608E-02  0.3353715E+00
         11   -1    0    0    0    0  0.00000000000E+00  0.00000000000E+00  0.39999999674E+01  0.40000000000E+01  0.51100000000E-03 0. -1.
    9000002   -1    0    0    0    0 -0.00000000000E+00 -0.00000000000E+00  0.00000000000E+00  0.93800000000E+00  0.93800000000E+00 0.  1.
         11    1    1    2    0    0  0.56432874700E-01  0.28177617674E-01  0.67276598619E+00  0.67571664237E+00  0.51100000000E-03 0. -1.
    9000002    1    1    2    0    0 -0.32644859209E+00 -0.15950839034E+00  0.88648935151E-01  0.10098090134E+01  0.93800000000E+00 0.  1.
         22    1    1    2    0    0  0.27001571739E+00  0.13133077267E+00  0.32385850460E+01  0.32524743442E+01  0.00000000000E+00 0. -1.
</event>
<event>
 5    1  0.6645559E+001  0.1599633E+01  0.7818608E-02  0.3353762E+00
         11   -1    0    0    0    0  0.00000000000E+00  0.00000000000E+00  0.39999999674E+01  0.40000000000E+01  0.51100000000E-03 0. -1.
    9000002   -1    0    0    0    0 -0.00000000000E+00 -0.00000000000E+00  0.00000000000E+00  0.93800000000E+00  0.93800000000E+00 0. -1.
         11    1    1    2    0    0 -0.14377799773E-01  0.21072412579E-01  0.19936271423E+00  0.20098885702E+00  0.51100000000E-03 0. -1.
    9000002    1    1    2    0    0  0.24382085748E+00 -0.35127884521E+00  0.12382576658E+00  0.10382785070E+01  0.93800000000E+00 0. -1.
         22    1    1    2    0    0 -0.22944305771E+00  0.33020643263E+00  0.36768114865E+01  0.36987326360E+01  0.00000000000E+00 0. -1.
</event>
<event>
 5    1  0.6645559E+001  0.1599668E+01  0.7818608E-02  0.3353724E+00
         11   -1    0    0    0    0  0.00000000000E+00  0.00000000000E+00  0.39999999674E+01  0.40000000000E+01  0.51100000000E-03 0.  1.
    9000002   -1    0    0    0    0 -0.00000000000E+00 -0.00000000000E+00  0.00000000000E+00  0.93800000000E+00  0.93800000000E+00 0.  1.
         11    1    1    2    0    0 -0.57350639351E-01  0.24991787465E-01  0.68363833844E+00  0.68649495569E+00  0.51100000000E-03 0.  1.
    9000002    1    1    2    0    0  0.33970074947E+00 -0.13230659612E+00  0.89265942073E-01  0.10103039359E+01  0.93800000000E+00 0.  1.
         22    1    1    2    0    0 -0.28235011012E+00  0.10731480865E+00  0.32270956868E+01  0.32412011084E+01  0.00000000000E+00 0.  1.
</event>
<event>
 5    1  0.6645559E+001  0.1588799E+01  0.7818608E-02  0.3365611E+00
         11   -1    0    0    0    0  0.00000000000E+00  0.00000000000E+00  0.39999999674E+01  0.40000000000E+01  0.51100000000E-03 0.  1.
    9000002   -1    0    0    0    0 -0.00000000000E+00 -0.00000000000E+00  0.00000000000E+00  0.93800000000E+00  0.93800000000E+00 0.  1.
         11    1    1    2    0    0  0.46244759678E-02 -0.65188057047E-01  0.91325193238E+00  0.91558736430E+00  0.51100000000E-03 0.  1.
    9000002    1    1    2    0    0  0.23163190883E+00 -0.10037641003E+00  0.50710914209E-01  0.97269952282E+00  0.93800000000E+00 0.  1.
         22    1    1    2    0    0 -0.23625638480E+00  0.16556446708E+00  0.30360371208E+01  0.30497131129E+01  0.00000000000E+00 0.  1.
</event>
<event>
 5    1  0.6645559E+001  0.1580885E+01  0.7818608E-02  0.3374375E+00
         11   -1    0    0    0    0  0.00000000000E+00  0.00000000000E+00  0.39999999674E+01  0.40000000000E+01  0.51100000000E-03 0.  1.
    9000002   -1    0    0    0    0 -0.00000000000E+00 -0.00000000000E+00  0.00000000000E+00  0.93800000000E+00  0.93800000000E+00 0. -1.
         11    1    1    2    0    0 -0.65205144890E-01 -0.80393769705E-01  0.84444915119E+00  0.85076994492E+00  0.51100000000E-03 0.  1.
    9000002    1    1    2    0    0 -0.25880503915E+00  0.88731462338E-01  0.64478445615E-01  0.97921131052E+00  0.93800000000E+00 0. -1.
         22    1    1    2    0    0  0.32401018404E+00 -0.83376926329E-02  0.30910723706E+01  0.31080187446E+01  0.00000000000E+00 0.  1.
</event>
<event>
 5    1  0.6645559E+001  0.1460666E+01  0.7818608E-02  0.3520021E+00
         11   -1    0    0    0    0  0.00000000000E+00  0.00000000000E+00  0.39999999674E+01  0.40000000000E+01  0.51100000000E-03 0. -1.
    9000002   -1    0    0    0    0 -0.00000000000E+00 -0.00000000000E+00  0.00000000000E+00  0.93800000000E+00  0.93800000000E+00 0. -1.
         11    1    1    2    0    0  0.34393946278E+00  0.24088510790E+00  0.13151600086E+01  0.13805673104E+01  0.51100000000E-03 0. -1.
    9000002    1    1    2    0    0 -0.27911969746E-01  0.65814411320E-01  0.11221755759E+00  0.94738977988E+00  0.93800000000E+00 0. -1.
         22    1    1    2    0    0 -0.31602749303E+00 -0.30669951922E+00  0.25726224012E+01  0.26100429097E+01  0.00000000000E+00 0. -1.
</event>
<event>
 5    1  0.6645559E+001  0.1599670E+01  0.7818608E-02  0.3353722E+00
         11   -1    0    0    0    0  0.00000000000E+00  0.00000000000E+00  0.39999999674E+01  0.40000000000E+01  0.51100000000E-03 0.  1.
    9000002   -1    0    0    0    0 -0.00000000000E+00 -0.00000000000E+00  0.00000000000E+00  0.93800000000E+00  0.93800000000E+00 0. -1.
         11    1    1    2    0    0  0.59853880868E-01  0.77625867797E-01  0.61033849280E+00  0.61815984933E+00  0.51100000000E-03 0.  1.
    9000002    1    1    2    0    0 -0.37457936069E+00 -0.46435632000E+00  0.24816403408E+00  0.11390197001E+01  0.93800000000E+00 0. -1.
         22    1    1    2    0    0  0.31472547982E+00  0.38673045220E+00  0.31414974405E+01  0.31808204506E+01  0.00000000000E+00 0.  1.
</event>
<event>
 5    1  0.6645559E+001  0.1597497E+01  0.7818608E-02  0.3356085E+00
         11   -1    0    0    0    0  0.00000000000E+00  0.00000000000E+00  0.39999999674E+01  0.40000000000E+01  0.51100000000E-03 0.  1.
    9000002   -1    0    0    0    0 -0.00000000000E+00 -0.00000000000E+00  0.00000000000E+00  0.93800000000E+00  0.93800000000E+00 0.  1.
         11    1    1    2    0    0 -0.31942806298E-01  0.92142257562E-01  0.11123374079E+01  0.11166043653E+01  0.51100000000E-03 0.  1.
    9000002    1    1    2    0    0  0.27556527401E+00 -0.38210196356E+00  0.15313804518E+00  0.10607701880E+01  0.93800000000E+00 0.  1.
         22    1    1    2    0    0 -0.24362246771E+00  0.28995970600E+00  0.27345245143E+01  0.27606254467E+01  0.00000000000E+00 0.  1.
</event>
<event>
 5    1  0.6645559E+001  0.1591987E+01  0.7818608E-02  0.3362107E+00
         11   -1    0    0    0    0  0.00000000000E+00  0.00000000000E+00  0.39999999674E+01  0.40000000000E+01  0.51100000000E-03 0.  1.
    9000002   -1    0    0    0    0 -0.00000000000E+00 -0.00000000000E+00  0.00000000000E+00  0.93800000000E+00  0.93800000000E+00 0. -1.
         11    1    1    2    0    0 -0.78221223944E-01  0.11907335041E+00  0.80622162859E+00  0.81871276904E+00  0.51100000000E-03 0.  1.
    9000002    1    1    2    0    0 -0.76267909307E-02 -0.70083098840E+00  0.35982615805E+00  0.12249657572E+01  0.93800000000E+00 0. -1.
         22    1    1    2    0    0  0.85848014875E-01  0.58175763799E+00  0.28339521807E+01  0.28943214738E+01  0.00000000000E+00 0.  1.
</event>
<event>
 5    1  0.6645559E+001  0.1598988E+01  0.7818608E-02  0.3354463E+00
         11   -1    0    0    0    0  0.00000000000E+00  0.00000000000E+00  0.39999999674E+01  0.40000000000E+01  0.51100000000E-03 0. -1.
    9000002   -1    0    0    0    0 -0.00000000000E+00 -0.00000000000E+00  0.00000000000E+00  0.93800000000E+00  0.93800000000E+00 0. -1.
         11    1    1    2    0    0  0.33722952856E-02  0.16384423268E-02  0.80612734400E-01  0.80701492781E-01  0.51100000000E-03 0. -1.
    9000002    1    1    2    0    0 -0.31623198931E+00  0.32539820138E+00  0.14050981902E+00  0.10514150797E+01  0.93800000000E+00 0. -1.
         22    1    1    2    0    0  0.31285969403E+00 -0.32703664370E+00  0.37788774139E+01  0.38058834275E+01  0.00000000000E+00 0. -1.
</event>
<event>
 5    1  0.6645559E+001  0.1599004E+01  0.7818608E-02  0.3354445E+00
         11   -1    0    0    0    0  0.00000000000E+00  0.00000000000E+00  0.39999999674E+01  0.40000000000E+01  0.51100000000E-03 0. -1.
    9000002   -1    0    0    0    0 -0.00000000000E+00 -0.00000000000E+00  0.00000000000E+00  0.93800000000E+00  0.93800000000E+00 0.  1.
         11    1    1    2    0    0  0.28581436581E-01  0.68185819263E-01  0.67828884083E+00  0.68230654195E+00  0.51100000000E-03 0. -1.
    9000002    1    1    2    0    0 -0.26174173604E+00 -0.29682890027E+00  0.10614219448E+00  0.10235850223E+01  0.93800000000E+00 0.  1.
         22    1    1    2    0    0  0.23316029946E+00  0.22864308101E+00  0.32155689320E+01  0.32321084358E+01  0.00000000000E+00 0. -1.
</event>
<event>
 5    1  0.6645559E+001  0.1599675E+01  0.7818608E-02  0.3353716E+00
         11   -1    0    0    0    0  0.00000000000E+00  0.00000000000E+00  0.39999999674E+01  0.40000000000E+01  0.51100000000E-03 0.  1.
    9000002   -1    0    0    0    0 -0.00000000000E+00 -0.00000000000E+00  0.00000000000E+00  0.93800000000E+00  0.93800000000E+00 0.  1.
         11    1    1    2    0    0  0.74114011140E-01 -0.87759854716E-01  0.11446598671E+01  0.11504091234E+01  0.51100000000E-03 0.  1.
    9000002    1    1    2    0    0 -0.24810261668E+00  0.30171539851E+00  0.10280252093E+00  0.10212734445E+01  0.93800000000E+00 0.  1.
         22    1    1    2    0    0  0.17398860554E+00 -0.21395554379E+00  0.27525375794E+01  0.27663174321E+01  0.00000000000E+00 0.  1.
</event>
<event>
 5    1  0.6645559E+001  0.1599657E+01  0.7818608E-02  0.3353736E+00
         11   -1    0    0    0    0  0.00000000000E+00  0.00000000000E+00  0.39999999674E+01  0.40000000000E+01  0.51100000000E-03 0. -1.
    9000002   -1    0    0    0    0 -0.00000000000E+00 -0.00000000000E+00  0.00000000000E+00  0.93800000000E+00  0.93800000000E+00 0.  1.
         11    1    1    2    0    0 -0.52286259150E-01 -0.13897437547E-01  0.57695435583E+00  0.57948561802E+00  0.51100000000E-03 0. -1.
    9000002    1    1    2    0    0  0.37528623147E+00  0.10761959569E+00  0.10270360293E+00  0.10211825317E+01  0.93800000000E+00 0.  1.
         22    1    1    2    0    0 -0.32299997232E+00 -0.93722158141E-01  0.33203420086E+01  0.33373318503E+01  0.00000000000E+00 0. -1.
</event>
<event>
 5    1  0.6645559E+001  0.1566690E+01  0.7818608E-02  0.3390330E+00
         11   -1    0    0    0    0  0.00000000000E+00  0.00000000000E+00  0.39999999674E+01  0.40000000000E+01  0.51100000000E-03 0.  1.
    9000002   -1    0    0    0    0 -0.00000000000E+00 -0.00000000000E+00  0.00000000000E+00  0.93800000000E+00  0.93800000000E+00 0.  1.
         11    1    1    2    0    0  0.82587737618E-01  0.40487184989E+00  0.13235712435E+01  0.13865724096E+01  0.51100000000E-03 0.  1.
    9000002    1    1    2    0    0 -0.34819871967E+00 -0.54544121370E+00  0.33076341308E+00  0.11865904523E+01  0.93800000000E+00 0.  1.
         22    1    1    2    0    0  0.26561098205E+00  0.14056936382E+00  0.23456653108E+01  0.23648371382E+01  0.00000000000E+00 0.  1.
</event>
<event>
 5    1  0.6645559E+001  0.1596921E+01  0.7818608E-02  0.3356713E+00
         11   -1    0    0    0    0  0.00000000000E+00  0.00000000000E+00  0.39999999674E+01  0.40000000000E+01  0.51100000000E-03 0. -1.
    9000002   -1    0    0    0    0 -0.00000000000E+00 -0.00000000000E+00  0.00000000000E+00  0.93800000000E+00  0.93800000000E+00 0. -1.
         11    1    1    2    0    0 -0.21225383110E-01 -0.61263331483E-01  0.32553595128E+00  0.33193015736E+00  0.51100000000E-03 0. -1.
    9000002    1    1    2    0    0  0.28164785469E-02  0.39373369055E+00  0.10677740062E+00  0.10228780792E+01  0.93800000000E+00 0. -1.
         22    1    1    2    0    0  0.18408904564E-01 -0.33247035907E+00  0.35676866155E+01  0.35831917634E+01  0.00000000000E+00 0. -1.
</event>
<event>
 5    1  0.6645559E+001  0.1599676E+01  0.7818608E-02  0.3353715E+00
         11   -1    0    0    0    0  0.00000000000E+00  0.00000000000E+00  0.39999999674E+01  0.40000000000E+01  0.51100000000E-03 0. -1.
    9000002   -1    0    0    0    0 -0.00000000000E+00 -0.00000000000E+00  0.00000000000E+00  0.93800000000E+00  0.93800000000E+00 0. -1.
         11    1    1    2    0    0 -0.15749789476E-02 -0.83616551362E-01  0.70867156920E+00  0.71358942140E+00  0.51100000000E-03 0. -1.
    9000002    1    1    2    0    0  0.13273132717E-01  0.45780840299E+00  0.14263998455E+00  0.10535439597E+01  0.93800000000E+00 0. -1.
         22    1    1    2    0    0 -0.11698153769E-01 -0.37419185162E+00  0.31486884136E+01  0.31708666189E+01  0.00000000000E+00 0. -1.
</event>
<event>
 5    1  0.6645559E+001  0.1566585E+01  0.7818608E-02  0.3390449E+00
         11   -1    0    0    0    0  0.00000000000E+00  0.00000000000E+00  0.39999999674E+01  0.40000000000E+01  0.51100000000E-03 0.  1.
    9000002   -1    0    0    0    0 -0.00000000000E+00 -0.00000000000E+00  0.00000000000E+00  0.93800000000E+00  0.93800000000E+00 0.  1.
         11    1    1    2    0    0 -0.25581858525E-01 -0.50141264101E-02  0.44932449014E-02  0.26457953814E-01  0.51100000000E-03 0.  1.
    9000002    1    1    2    0    0 -0.34119177692E+00 -0.15967844967E+00  0.12306160207E+00  0.10182814905E+01  0.93800000000E+00 0.  1.
         22    1    1    2    0    0  0.36677363544E+00  0.16469257608E+00  0.38724451204E+01  0.38932605557E+01  0.00000000000E+00 0.  1.
</event>
<event>
 5    1  0.6645559E+001  0.1599676E+01  0.7818608E-02  0.3353715E+00
         11   -1    0    0    0    0  0.00000000000E+00  0.00000000000E+00  0.39999999674E+01  0.40000000000E+01  0.51100000000E-03 0.  1.
    9000002   -1    0    0    0    0 -0.00000000000E+00 -0.00000000000E+00  0.00000000000E+00  0.93800000000E+00  0.93800000000E+00 0.  1.
         11    1    1    2    0    0  0.34390690582E-02 -0.93012567784E-01  0.88414381762E+00  0.88902964873E+00  0.51100000000E-03 0.  1.
    9000002    1    1    2    0    0 -0.14355820790E-01  0.40582329444E+00  0.11131552771E+00  0.10281701137E+01  0.93800000000E+00 0.  1.
         22    1    1    2    0    0  0.10916751732E-01 -0.31281072666E+00  0.30045406220E+01  0.30208002376E+01  0.00000000000E+00 0.  1.
</event>
<event>
 5    1  0.6645559E+001  0.1599667E+01  0.7818608E-02  0.3353725E+00
         11   -1    0    0    0    0  0.00000000000E+00  0.00000000000E+00  0.39999999674E+01  0.40000000000E+01  0.51100000000E-03 0.  1.
    9000002   -1    0    0    0    0 -0.00000000000E+00 -0.00000000000E+00  0.00000000000E+00  0.93800000000E+00  0.93800000000E+00 0. -1.
         11    1    1    2    0    0  0.35343579134E-01 -0.20236772583E+00  0.14479434092E+01  0.14624439280E+01  0.51100000000E-03 0.  1.
    9000002    1    1    2    0    0 -0.83677305839E-01  0.52767070671E+00  0.19658511264E+00  0.10972365163E+01  0.93800000000E+00 0. -1.
         22    1    1    2    0    0  0.48333726705E-01 -0.32530298088E+00  0.23554714455E+01  0.23783195557E+01  0.00000000000E+00 0.  1.
</event>
<event>
 5    1  0.6645559E+001  0.1591049E+01  0.7818608E-02  0.3363136E+00
         11   -1    0    0    0    0  0.00000000000E+00  0.00000000000E+00  0.39999999674E+01  0.40000000000E+01  0.51100000000E-03 0.  1.
    9000002   -1    0    0    0    0 -0.00000000000E+00 -0.00000000000E+00  0.00000000000E+00  0.93800000000E+00  0.93800000000E+00 0.  1.
         11    1    1    2    0    0  0.14615292002E+00  0.30662440492E-01  0.11945337850E+01  0.12038322499E+01  0.51100000000E-03 0.  1.
    9000002    1    1    2    0    0 -0.55356578648E+00  0.21720812018E+00  0.25501393365E+00  0.11395132969E+01  0.93800000000E+00 0.  1.
         22    1    1    2    0    0  0.40741286645E+00 -0.24787056067E+00  0.25504522487E+01  0.25946544532E+01  0.00000000000E+00 0.  1.
</event>
<event>
 5    1  0.6645559E+001  0.1599677E+01  0.7818608E-02  0.3353715E+00
         11   -1    0    0    0    0  0.00000000000E+00  0.00000000000E+00  0.39999999674E+01  0.40000000000E+01  0.51100000000E-03 0.  1.
    9000002   -1    0    0    0    0 -0.00000000000E+00 -0.00000000000E+00  0.00000000000E+00  0.93800000000E+00  0.93800000000E+00 0. -1.
         11    1    1    2    0    0  0.78310207828E-01  0.11482074952E-01  0.81468559186E+00  0.81852135060E+00  0.51100000000E-03 0.  1.
    9000002    1    1    2    0    0 -0.37656909295E+00 -0.52472979897E-01  0.97267066427E-01  0.10167903312E+01  0.93800000000E+00 0. -1.
         22    1    1    2    0    0  0.29825888513E+00  0.40990904944E-01  0.30880473091E+01  0.31026883182E+01  0.00000000000E+00 0.  1.
</event>
<event>
 5    1  0.6645559E+001  0.1586668E+01  0.7818608E-02  0.3367961E+00
         11   -1    0    0    0    0  0.00000000000E+00  0.00000000000E+00  0.39999999674E+01  0.40000000000E+01  0.51100000000E-03 0. -1.
    9000002   -1    0    0    0    0 -0.00000000000E+00 -0.00000000000E+00  0.00000000000E+00  0.93800000000E+00  0.93800000000E+00 0. -1.
         11    1    1    2    0    0 -0.36785558286E-02 -0.47815539621E-01  0.14765152848E+00  0.15524526590E+00  0.51100000000E-03 0. -1.
    9000002    1    1    2    0    0 -0.32354521464E+00 -0.64711122844E-01  0.83265256062E-01  0.99782069442E+00  0.93800000000E+00 0. -1.
         22    1    1    2    0    0  0.32722377047E+00  0.11252666246E+00  0.37690831828E+01  0.37849340397E+01  0.00000000000E+00 0. -1.
</event>
<event>
 5    1  0.6645559E+001  0.1570196E+01  0.7818608E-02  0.3386360E+00
         11   -1    0    0    0    0  0.00000000000E+00  0.00000000000E+00  0.39999999674E+01  0.40000000000E+01  0.51100000000E-03 0.  1.
    9000002   -1    0    0    0    0 -0.00000000000E+00 -0.00000000000E+00  0.00000000000E+00  0.93800000000E+00  0.93800000000E+00 0. -1.
         11    1    1    2    0    0  0.37013501431E-01 -0.13746531475E+00  0.26376606625E+00  0.29973239877E+00  0.51100000000E-03 0.  1.
    9000002    1    1    2    0    0 -0.13465401687E+00  0.45441671385E+00  0.17956309843E+00  0.10661675105E+01  0.93800000000E+00 0. -1.
         22    1    1    2    0    0  0.97640515442E-01 -0.31695139910E+00  0.35566708027E+01  0.35721000907E+01  0.00000000000E+00 0.  1.
</event>
<event>
 5    1  0.6645559E+001  0.1599435E+01  0.7818608E-02  0.3353976E+00
         11   -1    0    0    0    0  0.00000000000E+00  0.00000000000E+00  0.39999999674E+01  0.40000000000E+01  0.51100000000E-03 0.  1.
    9000002   -1    0    0    0    0 -0.00000000000E+00 -0.00000000000E+00  0.00000000000E+00  0.93800000000E+00  0.93800000000E+00 0.  1.
         11    1    1    2    0    0  0.13047256359E-01 -0.14488418065E-02  0.17419006508E+00  0.17468477304E+00  0.51100000000E-03 0.  1.
    9000002    1    1    2    0    0 -0.33371361074E+00  0.20014603958E+00  0.10219738588E+00  0.10206426979E+01  0.93800000000E+00 0.  1.
         22    1    1    2    0    0  0.32066635438E+00 -0.19869719777E+00  0.37236125164E+01  0.37426725290E+01  0.00000000000E+00 0.  1.
</event>
<event>
 5    1  0.6645559E+001  0.1583110E+01  0.7818608E-02  0.3371902E+00
         11   -1    0    0    0    0  0.00000000000E+00  0.00000000000E+00  0.39999999674E+01  0.40000000000E+01  0.51100000000E-03 0. -1.
    9000002   -1    0    0    0    0 -0.00000000000E+00 -0.00000000000E+00  0.00000000000E+00  0.93800000000E+00  0.93800000000E+00 0.  1.
         11    1    1    2    0    0 -0.44297184918E-01 -0.11753429585E-01  0.62254690452E-01  0.77306476462E-01  0.51100000000E-03 0. -1.
    9000002    1    1    2    0    0  0.37155868460E+00 -0.30069786020E+00  0.17063308404E+00  0.10665058409E+01  0.93800000000E+00 0.  1.
         22    1    1    2    0    0 -0.32726149968E+00  0.31245128978E+00  0.37671121929E+01  0.37941876827E+01  0.00000000000E+00 0. -1.
</event>
<event>
 5    1  0.6645559E+001  0.1599655E+01  0.7818608E-02  0.3353738E+00
         11   -1    0    0    0    0  0.00000000000E+00  0.00000000000E+00  0.39999999674E+01  0.40000000000E+01  0.51100000000E-03 0. -1.
    9000002   -1    0    0    0    0 -0.00000000000E+00 -0.00000000000E+00  0.00000000000E+00  0.93800000000E+00  0.93800000000E+00 0.  1.
         11    1    1    2    0    0  0.74964572229E-01  0.13498529662E+00  0.81259812028E+00  0.82713764490E+00  0.51100000000E-03 0. -1.
    9000002    1    1    2    0    0 -0.32342619924E+00 -0.59537949160E+00  0.32619243423E+00  0.12022174302E+01  0.93800000000E+00 0.  1.
         22    1    1    2    0    0  0.24846162701E+00  0.46039419499E+00  0.28612094128E+01  0.29086449249E+01  0.00000000000E+00 0. -1.
</event>
<event>
 5    1  0.6645559E+001  0.1322206E+01  0.7818608E-02  0.3740312E+00
         11   -1    0    0    0    0  0.00000000000E+00  0.00000000000E+00  0.39999999674E+01  0.40000000000E+01  0.51100000000E-03 0.  1.
    9000002   -1    0    0    0    0 -0.00000000000E+00 -0.00000000000E+00  0.00000000000E+00  0.93800000000E+00  0.93800000000E+00 0.  1.
         11    1    1    2    0    0 -0.40053184707E-03 -0.66051612305E+00  0.12311331995E+01  0.13971295306E+01  0.51100000000E-03 0.  1.
    9000002    1    1    2    0    0 -0.54122832373E+00  0.22210097441E+00  0.58955960202E+00  0.12528692931E+01  0.93800000000E+00 0.  1.
         22    1    1    2    0    0  0.54162885557E+00  0.43841514863E+00  0.21793071658E+01  0.22880011763E+01  0.00000000000E+00 0.  1.
</event>
<event>
 5    1  0.6645559E+001  0.1599616E+01  0.7818608E-02  0.3353780E+00
         11   -1    0    0    0    0  0.00000000000E+00  0.00000000000E+00  0.39999999674E+01  0.40000000000E+01  0.51100000000E-03 0.  1.
    9000002   -1    0    0    0    0 -0.00000000000E+00 -0.00000000000E+00  0.00000000000E+00  0.93800000000E+00  0.93800000000E+00 0.  1.
         11    1    1    2    0    0  0.16067246938E+00 -0.15783943683E+00  0.12425443423E+01  0.12627927913E+01  0.51100000000E-03 0.  1.
    9000002    1    1    2    0    0 -0.47357030230E+00  0.49233766749E+00  0.33209891898E+00  0.12069792467E+01  0.93800000000E+00 0.  1.
         22    1    1    2    0    0  0.31289783292E+00 -0.33449823066E+00  0.24253567061E+01  0.24682279619E+01  0.00000000000E+00 0.  1.
</event>
<event>
 5    1  0.6645559E+001  0.1584583E+01  0.7818608E-02  0.3370269E+00
         11   -1    0    0    0    0  0.00000000000E+00  0.00000000000E+00  0.39999999674E+01  0.40000000000E+01  0.51100000000E-03 0. -1.
    9000002   -1    0    0    0    0 -0.00000000000E+00 -0.00000000000E+00  0.00000000000E+00  0.93800000000E+00  0.93800000000E+00 0.  1.
         11    1    1    2    0    0  0.13517157169E-01  0.53609318935E-01  0.15665130871E+00  0.16612214258E+00  0.51100000000E-03 0. -1.
    9000002    1    1    2    0    0 -0.32012661678E+00  0.12432370317E+00  0.91227347076E-01  0.10030472884E+01  0.93800000000E+00 0.  1.
         22    1    1    2    0    0  0.30660945961E+00 -0.17793302211E+00  0.37521213116E+01  0.37688305690E+01  0.00000000000E+00 0. -1.
</event>
<event>
 5    1  0.6645559E+001  0.1490037E+01  0.7818608E-02  0.3482103E+00
         11   -1    0    0    0    0  0.00000000000E+00  0.00000000000E+00  0.39999999674E+01  0.40000000000E+01  0.51100000000E-03 0.  1.
    9000002   -1    0    0    0    0 -0.00000000000E+00 -0.00000000000E+00  0.00000000000E+00  0.93800000000E+00  0.93800000000E+00 0. -1.
         11    1    1    2    0    0  0.86387785337E-01 -0.10042886340E+00 -0.19303586997E-02  0.13248695583E+00  0.51100000000E-03 0.  1.
    9000002    1    1    2    0    0  0.25532420613E+00 -0.11801690864E+00  0.22229432958E+00  0.10041798693E+01  0.93800000000E+00 0. -1.
         22    1    1    2    0    0 -0.34171199147E+00  0.21844577204E+00  0.37796359965E+01  0.38013331749E+01  0.00000000000E+00 0.  1.
</event>
<event>
 5    1  0.6645559E+001  0.1599677E+01  0.7818608E-02  0.3353715E+00
         11   -1    0    0    0    0  0.00000000000E+00  0.00000000000E+00  0.39999999674E+01  0.40000000000E+01  0.51100000000E-03 0.  1.
    9000002   -1    0    0    0    0 -0.00000000000E+00 -0.00000000000E+00  0.00000000000E+00  0.93800000000E+00  0.93800000000E+00 0. -1.
         11    1    1    2    0    0  0.11090674434E+00 -0.35742215734E-01  0.10492197571E+01  0.10556704845E+01  0.51100000000E-03 0.  1.
    9000002    1    1    2    0    0 -0.41174289975E+00  0.13311598514E+00  0.12686290060E+00  0.10407642752E+01  0.93800000000E+00 0. -1.
         22    1    1    2    0    0  0.30083615540E+00 -0.97373769409E-01  0.28239173096E+01  0.28415652403E+01  0.00000000000E+00 0.  1.
</event>
<event>
 5    1  0.6645559E+001  0.1599532E+01  0.7818608E-02  0.3353871E+00
         11   -1    0    0    0    0  0.00000000000E+00  0.00000000000E+00  0.39999999674E+01  0.40000000000E+01  0.51100000000E-03 0. -1.
    9000002   -1    0    0    0    0 -0.00000000000E+00 -0.00000000000E+00  0.00000000000E+00  0.93800000000E+00  0.93800000000E+00 0.  1.
         11    1    1    2    0    0 -0.11170398210E-01 -0.71389486137E-01  0.68015721699E+00  0.68398489565E+00  0.51100000000E-03 0. -1.
    9000002    1    1    2    0    0  0.24001660826E-02  0.42056962972E+00  0.11975932248E+00  0.10349255382E+01  0.93800000000E+00 0.  1.
         22    1    1    2    0    0  0.87702321271E-02 -0.34918014358E+00  0.32000834279E+01  0.32190895662E+01  0.00000000000E+00 0. -1.
</event>
<event>
 5    1  0.6645559E+001  0.1598607E+01  0.7818608E-02  0.3354876E+00
         11   -1    0    0    0    0  0.00000000000E+00  0.00000000000E+00  0.39999999674E+01  0.40000000000E+01  0.51100000000E-03 0. -1.
    9000002   -1    0    0    0    0 -0.00000000000E+00 -0.00000000000E+00  0.00000000000E+00  0.93800000000E+00  0.93800000000E+00 0.  1.
         11    1    1    2    0    0 -0.94313165777E-01 -0.77452029566E-01  0.12674736028E+01  0.12733355351E+01  0.51100000000E-03 0. -1.
    9000002    1    1    2    0    0  0.39075940453E+00  0.18933487525E+00  0.12867529594E+00  0.10416054623E+01  0.93800000000E+00 0.  1.
         22    1    1    2    0    0 -0.29644623875E+00 -0.11188284568E+00  0.26038510687E+01  0.26230590027E+01  0.00000000000E+00 0. -1.
</event>
<event>
 5    1  0.6645559E+001  0.1598547E+01  0.7818608E-02  0.3354942E+00
         11   -1    0    0    0    0  0.00000000000E+00  0.00000000000E+00  0.39999999674E+01  0.40000000000E+01  0.51100000000E-03 0.  1.
    9000002   -1    0    0    0    0 -0.00000000000E+00 -0.00000000000E+00  0.00000000000E+00  0.93800000000E+00  0.93800000000E+00 0. -1.
         11    1    1    2    0    0 -0.13297226203E-02  0.68324638642E-02  0.94266706733E-01  0.94524726098E-01  0.51100000000E-03 0.  1.
    9000002    1    1    2    0    0  0.37162732402E+00  0.12183218246E+00  0.10398656334E+00  0.10215709246E+01  0.93800000000E+00 0. -1.
         22    1    1    2    0    0 -0.37029760140E+00 -0.12866464633E+00  0.38017466973E+01  0.38219043493E+01  0.00000000000E+00 0.  1.
</event>
<event>
 5    1  0.6645559E+001  0.1592676E+01  0.7818608E-02  0.3361351E+00
         11   -1    0    0    0    0  0.00000000000E+00  0.00000000000E+00  0.39999999674E+01  0.40000000000E+01  0.51100000000E-03 0. -1.
    9000002   -1    0    0    0    0 -0.00000000000E+00 -0.00000000000E+00  0.00000000000E+00  0.93800000000E+00  0.93800000000E+00 0. -1.
         11    1    1    2    0    0  0.10226217577E+00 -0.37250584834E-01  0.13389993251E+01  0.13434152793E+01  0.51100000000E-03 0. -1.
    9000002    1    1    2    0    0 -0.34843635122E+00  0.37515035694E+00  0.18622298259E+00  0.10847436012E+01  0.93800000000E+00 0. -1.
         22    1    1    2    0    0  0.24617417546E+00 -0.33789977210E+00  0.24747776596E+01  0.25098411195E+01  0.00000000000E+00 0. -1.
</event>
<event>
 5    1  0.6645559E+001  0.1521437E+01  0.7818608E-02  0.3443311E+00
         11   -1    0    0    0    0  0.00000000000E+00  0.00000000000E+00  0.39999999674E+01  0.40000000000E+01  0.51100000000E-03 0. -1.
    9000002   -1    0    0    0    0 -0.00000000000E+00 -0.00000000000E+00  0.00000000000E+00  0.93800000000E+00  0.93800000000E+00 0.  1.
         11    1    1    2    0    0 -0.62122762230E-01  0.51217228344E-01  0.29123400706E-01  0.85620532911E-01  0.51100000000E-03 0. -1.
    9000002    1    1    2    0    0 -0.28523363701E+00 -0.27517999970E+00  0.17397569298E+00  0.10330507256E+01  0.93800000000E+00 0.  1.
         22    1    1    2    0    0  0.34735639924E+00  0.22396277136E+00  0.37969008737E+01  0.38193287415E+01  0.00000000000E+00 0. -1.
</event>
<event>
 5    1  0.6645559E+001  0.1599615E+01  0.7818608E-02  0.3353782E+00
         11   -1    0    0    0    0  0.00000000000E+00  0.00000000000E+00  0.39999999674E+01  0.40000000000E+01  0.51100000000E-03 0. -1.
    9000002   -1    0    0    0    0 -0.00000000000E+00 -0.00000000000E+00  0.00000000000E+00  0.93800000000E+00  0.93800000000E+00 0. -1.
         11    1    1    2    0    0  0.55033145700E-01 -0.16285471597E+00  0.13849050558E+01  0.13955330810E+01  0.51100000000E-03 0. -1.
    9000002    1    1    2    0    0 -0.14288534566E+00  0.43060491954E+00  0.13993160581E+00  0.10513142599E+01  0.93800000000E+00 0. -1.
         22    1    1    2    0    0  0.87852199963E-01 -0.26775020357E+00  0.24751633058E+01  0.24911526591E+01  0.00000000000E+00 0. -1.
</event>
<event>
 5    1  0.6645559E+001  0.1599674E+01  0.7818608E-02  0.3353717E+00
         11   -1    0    0    0    0  0.00000000000E+00  0.00000000000E+00  0.39999999674E+01  0.40000000000E+01  0.51100000000E-03 0. -1.
    9000002   -1    0    0    0    0 -0.00000000000E+00 -0.00000000000E+00  0.00000000000E+00  0.93800000000E+00  0.93800000000E+00 0.  1.
         11    1    1    2    0    0 -0.17015384930E-01 -0.84694640645E-01  0.93982901073E+00  0.94379104467E+00  0.51100000000E-03 0. -1.
    9000002    1    1    2    0    0  0.75931438316E-01  0.34748954042E+00  0.84885471315E-01  0.10067592102E+01  0.93800000000E+00 0.  1.
         22    1    1    2    0    0 -0.58916053386E-01 -0.26279489977E+00  0.29752854853E+01  0.29874497452E+01  0.00000000000E+00 0. -1.
</event>
<event>
 5    1  0.6645559E+001  0.1599199E+01  0.7818608E-02  0.3354233E+00
         11   -1    0    0    0    0  0.00000000000E+00  0.00000000000E+00  0.39999999674E+01  0.40000000000E+01  0.51100000000E-03 0. -1.
    9000002   -1    0    0    0    0 -0.00000000000E+00 -0.00000000000E+00  0.00000000000E+00  0.93800000000E+00  0.93800000000E+00 0. -1.
         11    1    1    2    0    0 -0.56444537762E-01  0.67428182202E-01  0.84737303731E+00  0.85192362984E+00  0.51100000000E-03 0. -1.
    9000002    1    1    2    0    0  0.34596825384E+00 -0.26194017794E+00  0.12800629543E+00  0.10414107264E+01  0.93800000000E+00 0. -1.
         22    1    1    2    0    0 -0.28952371608E+00  0.19451199574E+00  0.30246206346E+01  0.30446656437E+01  0.00000000000E+00 0. -1.
</event>
<event>
 5    1  0.6645559E+001  0.1593905E+01  0.7818608E-02  0.3360005E+00
         11   -1    0    0    0    0  0.00000000000E+00  0.00000000000E+00  0.39999999674E+01  0.40000000000E+01  0.51100000000E-03 0.  1.
    9000002   -1    0    0    0    0 -0.00000000000E+00 -0.00000000000E+00  0.00000000000E+00  0.93800000000E+00  0.93800000000E+00 0. -1.
         11    1    1    2    0    0  0.32650350076E+00  0.29929625760E-01  0.13784351591E+01  0.14168923980E+01  0.51100000000E-03 0.  1.
    9000002    1    1    2    0    0 -0.64165545022E+00 -0.27588388662E-01  0.29657533529E+00  0.11748547849E+01  0.93800000000E+00 0. -1.
         22    1    1    2    0    0  0.31515194946E+00 -0.23412370975E-02  0.23249894729E+01  0.23462528171E+01  0.00000000000E+00 0.  1.
</event>
<event>
 5    1  0.6645559E+001  0.1599650E+01  0.7818608E-02  0.3353743E+00
         11   -1    0    0    0    0  0.00000000000E+00  0.00000000000E+00  0.39999999674E+01  0.40000000000E+01  0.51100000000E-03 0. -1.
    9000002   -1    0    0    0    0 -0.00000000000E+00 -0.00000000000E+00  0.00000000000E+00  0.93800000000E+00  0.93800000000E+00 0. -1.
         11    1    1    2    0    0  0.28640111175E-02  0.25780432973E-01  0.21957668920E+00  0.22110408600E+00  0.51100000000E-03 0.  1.
    9000002    1    1    2    0    0 -0.76883330831E-02 -0.42832040473E+00  0.12427984897E+00  0.10386563245E+01  0.93800000000E+00 0. -1.
         22    1    1    2    0    0  0.48243219656E-02  0.40253997176E+00  0.36561434292E+01  0.36782395895E+01  0.00000000000E+00 0. -1.
</event>
<event>
 5    1  0.6645559E+001  0.1599667E+01  0.7818608E-02  0.3353725E+00
         11   -1    0    0    0    0  0.00000000000E+00  0.00000000000E+00  0.39999999674E+01  0.40000000000E+01  0.51100000000E-03 0. -1.
    9000002   -1    0    0    0    0 -0.00000000000E+00 -0.00000000000E+00  0.00000000000E+00  0.93800000000E+00  0.93800000000E+00 0. -1.
         11    1    1    2    0    0 -0.78525909628E-01  0.63228028694E-01  0.78229769628E+00  0.78876742378E+00  0.51100000000E-03 0. -1.
    9000002    1    1    2    0    0  0.37165485457E+00 -0.30508213669E+00  0.15778357557E+00  0.10658058443E+01  0.93800000000E+00 0. -1.
         22    1    1    2    0    0 -0.29312894494E+00  0.24185410799E+00  0.30599186955E+01  0.30834267319E+01  0.00000000000E+00 0. -1.
</event>
<event>
 5    1  0.6645559E+001  0.1594772E+01  0.7818608E-02  0.3359057E+00
         11   -1    0    0    0    0  0.00000000000E+00  0.00000000000E+00  0.39999999674E+01  0.40000000000E+01  0.51100000000E-03 0. -1.
    9000002   -1    0    0    0    0 -0.00000000000E+00 -0.00000000000E+00  0.00000000000E+00  0.93800000000E+00  0.93800000000E+00 0. -1.
         11    1    1    2    0    0 -0.67218355572E-01 -0.14745621834E+00  0.62440887238E+00  0.64509560895E+00  0.51100000000E-03 0. -1.
    9000002    1    1    2    0    0  0.17531862732E+00  0.57520007095E+00  0.25725241260E+00  0.11435097492E+01  0.93800000000E+00 0. -1.
         22    1    1    2    0    0 -0.10810027175E+00 -0.42774385261E+00  0.31183386824E+01  0.31493946419E+01  0.00000000000E+00 0. -1.
</event>
<event>
 5    1  0.6645559E+001  0.1599544E+01  0.7818608E-02  0.3353858E+00
         11   -1    0    0    0    0  0.00000000000E+00  0.00000000000E+00  0.39999999674E+01  0.40000000000E+01  0.51100000000E-03 0.  1.
    9000002   -1    0    0    0    0 -0.00000000000E+00 -0.00000000000E+00  0.00000000000E+00  0.93800000000E+00  0.93800000000E+00 0. -1.
         11    1    1    2    0    0  0.14315244824E-02 -0.54508342553E-02  0.32488774434E-01  0.32977908388E-01  0.51100000000E-03 0.  1.
    9000002    1    1    2    0    0 -0.13529484117E+00  0.35757316529E+00  0.98481341964E-01  0.10176963385E+01  0.93800000000E+00 0. -1.
         22    1    1    2    0    0  0.13386331669E+00 -0.35212233103E+00  0.38690298510E+01  0.38873257532E+01  0.00000000000E+00 0.  1.
</event>
<event>
 5    1  0.6645559E+001  0.1593342E+01  0.7818608E-02  0.3360622E+00
         11   -1    0    0    0    0  0.00000000000E+00  0.00000000000E+00  0.39999999674E+01  0.40000000000E+01  0.51100000000E-03 0. -1.
    9000002   -1    0    0    0    0 -0.00000000000E+00 -0.00000000000E+00  0.00000000000E+00  0.93800000000E+00  0.93800000000E+00 0.  1.
         11    1    1    2    0    0  0.10741290809E-01 -0.16339716945E-01  0.52338394045E-01  0.55874236373E-01  0.51100000000E-03 0. -1.
    9000002    1    1    2    0    0 -0.16338368380E+00 -0.31327544754E+00  0.88863432069E-01  0.10062685743E+01  0.93800000000E+00 0.  1.
         22    1    1    2    0    0  0.15264239299E+00  0.32961516448E+00  0.38587981412E+01  0.38758571893E+01  0.00000000000E+00 0. -1.
</event>
<event>
 5    1  0.6645559E+001  0.1599677E+01  0.7818608E-02  0.3353714E+00
         11   -1    0    0    0    0  0.00000000000E+00  0.00000000000E+00  0.39999999674E+01  0.40000000000E+01  0.51100000000E-03 0. -1.
    9000002   -1    0    0    0    0 -0.00000000000E+00 -0.00000000000E+00  0.00000000000E+00  0.93800000000E+00  0.93800000000E+00 0.  1.
         11    1    1    2    0    0 -0.13947682265E+00 -0.26433214063E-01  0.13401662262E+01  0.13476640063E+01  0.51100000000E-03 0. -1.
    9000002    1    1    2    0    0  0.40335858674E+00  0.77250298197E-01  0.11392718156E+00  0.10302859607E+01  0.93800000000E+00 0.  1.
         22    1    1    2    0    0 -0.26388176409E+00 -0.50817084134E-01  0.25459065596E+01  0.25600500330E+01  0.00000000000E+00 0.  1.
</event>
<event>
 5    1  0.6645559E+001  0.1599595E+01  0.7818608E-02  0.3353803E+00
         11   -1    0    0    0    0  0.00000000000E+00  0.00000000000E+00  0.39999999674E+01  0.40000000000E+01  0.51100000000E-03 0.  1.
    9000002   -1    0    0    0    0 -0.00000000000E+00 -0.00000000000E+00  0.00000000000E+00  0.93800000000E+00  0.93800000000E+00 0.  1.
         11    1    1    2    0    0 -0.30193468401E+00 -0.66436288685E-01  0.14275030204E+01  0.14605969562E+01  0.51100000000E-03 0.  1.
    9000002    1    1    2    0    0  0.73282803132E+00  0.17502113280E+00  0.41204982226E+00  0.12717304653E+01  0.93800000000E+00 0.  1.
         22    1    1    2    0    0 -0.43089334731E+00 -0.10858484412E+00  0.21604471247E+01  0.22056725785E+01  0.00000000000E+00 0.  1.
</event>
<event>
 5    1  0.6645559E+001  0.1576305E+01  0.7818608E-02  0.3379490E+00
         11   -1    0    0    0    0  0.00000000000E+00  0.00000000000E+00  0.39999999674E+01  0.40000000000E+01  0.51100000000E-03 0. -1.
    9000002   -1    0    0    0    0 -0.00000000000E+00 -0.00000000000E+00  0.00000000000E+00  0.93800000000E+00  0.93800000000E+00 0. -1.
         11    1    1    2    0    0  0.23153885278E-01  0.81449504061E-01  0.34024844790E+00  0.35062714033E+00  0.51100000000E-03 0. -1.
    9000002    1    1    2    0    0 -0.12797726532E+00  0.24971206295E+00  0.70773476058E-01  0.98162476524E+00  0.93800000000E+00 0. -1.
         22    1    1    2    0    0  0.10482338005E+00 -0.33116156701E+00  0.35889780434E+01  0.36057480944E+01  0.00000000000E+00 0. -1.
</event>
<event>
 5    1  0.6645559E+001  0.1599673E+01  0.7818608E-02  0.3353718E+00
         11   -1    0    0    0    0  0.00000000000E+00  0.00000000000E+00  0.39999999674E+01  0.40000000000E+01  0.51100000000E-03 0.  1.
    9000002   -1    0    0    0    0 -0.00000000000E+00 -0.00000000000E+00  0.00000000000E+00  0.93800000000E+00  0.93800000000E+00 0.  1.
         11    1    1    2    0    0  0.19902785019E+00  0.24786666766E+00  0.13445329919E+01  0.13816002307E+01  0.51100000000E-03 0.  1.
    9000002    1    1    2    0    0 -0.51605130926E+00 -0.64912766886E+00  0.51179176056E+00  0.13525718060E+01  0.93800000000E+00 0.  1.
         22    1    1    2    0    0  0.31702345907E+00  0.40126100120E+00  0.21436752149E+01  0.22038279633E+01  0.00000000000E+00 0.  1.
</event>
<event>
 5    1  0.6645559E+001  0.1477815E+01  0.7818608E-02  0.3497684E+00
         11   -1    0    0    0    0  0.00000000000E+00  0.00000000000E+00  0.39999999674E+01  0.40000000000E+01  0.51100000000E-03 0. -1.
    9000002   -1    0    0    0    0 -0.00000000000E+00 -0.00000000000E+00  0.00000000000E+00  0.93800000000E+00  0.93800000000E+00 0.  1.
         11    1    1    2    0    0  0.35152491181E+00  0.20304342096E+00  0.76904704546E+00  0.86961486514E+00  0.51100000000E-03 0. -1.
    9000002    1    1    2    0    0 -0.46014626739E+00  0.15820329531E+00  0.27965250757E+00  0.10930747436E+01  0.93800000000E+00 0.  1.
         22    1    1    2    0    0  0.10862135558E+00 -0.36124671627E+00  0.29513004143E+01  0.29753103913E+01  0.00000000000E+00 0.  1.
</event>
<event>
 5    1  0.6645559E+001  0.1494872E+01  0.7818608E-02  0.3476015E+00
         11   -1    0    0    0    0  0.00000000000E+00  0.00000000000E+00  0.39999999674E+01  0.40000000000E+01  0.51100000000E-03 0.  1.
    9000002   -1    0    0    0    0 -0.00000000000E+00 -0.00000000000E+00  0.00000000000E+00  0.93800000000E+00  0.93800000000E+00 0.  1.
         11    1    1    2    0    0  0.40858938297E+00  0.50596180520E-01  0.11321812210E+01  0.12047156659E+01  0.51100000000E-03 0.  1.
    9000002    1    1    2    0    0 -0.17655331760E+00 -0.29463078063E+00  0.16847573646E+00  0.10130184819E+01  0.93800000000E+00 0.  1.
         22    1    1    2    0    0 -0.23203606536E+00  0.24403460011E+00  0.26993430099E+01  0.27202658522E+01  0.00000000000E+00 0.  1.
</event>
<event>
 5    1  0.6645559E+001  0.1599660E+01  0.7818608E-02  0.3353732E+00
         11   -1    0    0    0    0  0.00000000000E+00  0.00000000000E+00  0.39999999674E+01  0.40000000000E+01  0.51100000000E-03 0.  1.
    9000002   -1    0    0    0    0 -0.00000000000E+00 -0.00000000000E+00  0.00000000000E+00  0.93800000000E+00  0.93800000000E+00 0. -1.
         11    1    1    2    0    0  0.19801140345E-01 -0.21199854286E-01  0.28035327511E+00  0.28185056141E+00  0.51100000000E-03 0.  1.
    9000002    1    1    2    0    0 -0.30277000565E+00  0.27381769683E+00  0.11253995672E+00  0.10291525879E+01  0.93800000000E+00 0. -1.
         22    1    1    2    0    0  0.28296886530E+00 -0.25261784255E+00  0.36071067355E+01  0.36269968506E+01  0.00000000000E+00 0.  1.
</event>
<event>
 5    1  0.6645559E+001  0.1599461E+01  0.7818608E-02  0.3353949E+00
         11   -1    0    0    0    0  0.00000000000E+00  0.00000000000E+00  0.39999999674E+01  0.40000000000E+01  0.51100000000E-03 0. -1.
    9000002   -1    0    0    0    0 -0.00000000000E+00 -0.00000000000E+00  0.00000000000E+00  0.93800000000E+00  0.93800000000E+00 0. -1.
         11    1    1    2    0    0  0.56699618643E-01  0.10805189774E-01  0.31912846329E+00  0.32430670064E+00  0.51100000000E-03 0. -1.
    9000002    1    1    2    0    0 -0.58727706792E+00 -0.42281974555E-01  0.24152119370E+00  0.11335160373E+01  0.93800000000E+00 0. -1.
         22    1    1    2    0    0  0.53057744928E+00  0.31476784780E-01  0.34393503104E+01  0.34801772620E+01  0.00000000000E+00 0. -1.
</event>
<event>
 5    1  0.7017206E+001  0.1572569E+01  0.7818608E-02  0.3383685E+00
         11   -1    0    0    0    0  0.00000000000E+00  0.00000000000E+00  0.39999999674E+01  0.40000000000E+01  0.51100000000E-03 0. -1.
    9000002   -1    0    0    0    0 -0.00000000000E+00 -0.00000000000E+00  0.00000000000E+00  0.93800000000E+00  0.93800000000E+00 0. -1.
         11    1    1    2    0    0  0.86063056433E-01 -0.15171839955E+00  0.13747139175E+01  0.13857358834E+01  0.51100000000E-03 0. -1.
    9000002    1    1    2    0    0 -0.15717660294E+00 -0.98776234483E-01  0.43291614710E-01  0.95717260351E+00  0.93800000000E+00 0. -1.
         22    1    1    2    0    0  0.71113546504E-01  0.25049463403E+00  0.25819944351E+01  0.25950915131E+01  0.00000000000E+00 0. -1.
</event>
<event>
 5    1  0.6645559E+001  0.1574278E+01  0.7818608E-02  0.3381764E+00
         11   -1    0    0    0    0  0.00000000000E+00  0.00000000000E+00  0.39999999674E+01  0.40000000000E+01  0.51100000000E-03 0. -1.
    9000002   -1    0    0    0    0 -0.00000000000E+00 -0.00000000000E+00  0.00000000000E+00  0.93800000000E+00  0.93800000000E+00 0.  1.
         11    1    1    2    0    0 -0.88796067718E-01 -0.56029185850E-01  0.75028065822E+00  0.75759180205E+00  0.51100000000E-03 0. -1.
    9000002    1    1    2    0    0 -0.23609970674E+00 -0.69220167407E-01  0.59834758410E-01  0.97157537094E+00  0.93800000000E+00 0.  1.
         22    1    1    2    0    0  0.32489577446E+00  0.12524935326E+00  0.31898845507E+01  0.32088328270E+01  0.00000000000E+00 0. -1.
</event>
<event>
 5    1  0.6645559E+001  0.1599643E+01  0.7818608E-02  0.3353750E+00
         11   -1    0    0    0    0  0.00000000000E+00  0.00000000000E+00  0.39999999674E+01  0.40000000000E+01  0.51100000000E-03 0.  1.
    9000002   -1    0    0    0    0 -0.00000000000E+00 -0.00000000000E+00  0.00000000000E+00  0.93800000000E+00  0.93800000000E+00 0.  1.
         11    1    1    2    0    0  0.37744321255E-01  0.55109129365E-01  0.48657055252E+00  0.49113421142E+00  0.51100000000E-03 0.  1.
    9000002    1    1    2    0    0 -0.27734249933E+00 -0.46222587903E+00  0.20031793332E+00  0.11002467449E+01  0.93800000000E+00 0.  1.
         22    1    1    2    0    0  0.23959817808E+00  0.40711674966E+00  0.33131114815E+01  0.33466190437E+01  0.00000000000E+00 0.  1.
</event>
<event>
 5    1  0.6645559E+001  0.1599676E+01  0.7818608E-02  0.3353715E+00
         11   -1    0    0    0    0  0.00000000000E+00  0.00000000000E+00  0.39999999674E+01  0.40000000000E+01  0.51100000000E-03 0.  1.
    9000002   -1    0    0    0    0 -0.00000000000E+00 -0.00000000000E+00  0.00000000000E+00  0.93800000000E+00  0.93800000000E+00 0.  1.
         11    1    1    2    0    0 -0.32309196534E-01  0.73026420164E-01  0.77728546451E+00  0.78137679558E+00  0.51100000000E-03 0.  1.
    9000002    1    1    2    0    0  0.15716035481E+00 -0.36803540680E+00  0.10802764420E+00  0.10255064162E+01  0.93800000000E+00 0.  1.
         22    1    1    2    0    0 -0.12485115828E+00  0.29500898663E+00  0.31146868587E+01  0.31311167882E+01  0.00000000000E+00 0.  1.
</event>
<event>
 5    1  0.6645559E+001  0.1568960E+01  0.7818608E-02  0.3387758E+00
         11   -1    0    0    0    0  0.00000000000E+00  0.00000000000E+00  0.39999999674E+01  0.40000000000E+01  0.51100000000E-03 0. -1.
    9000002   -1    0    0    0    0 -0.00000000000E+00 -0.00000000000E+00  0.00000000000E+00  0.93800000000E+00  0.93800000000E+00 0. -1.
         11    1    1    2    0    0  0.13721700023E+00 -0.16869362002E-02  0.11670746179E+01  0.11751147926E+01  0.51100000000E-03 0. -1.
    9000002    1    1    2    0    0  0.15383326042E+00 -0.19882730420E+00  0.65854046349E-01  0.97333330588E+00  0.93800000000E+00 0. -1.
         22    1    1    2    0    0 -0.29105026065E+00  0.20051424040E+00  0.27670713031E+01  0.27895519015E+01  0.00000000000E+00 0. -1.
</event>
<event>
 5    1  0.6645559E+001  0.1584484E+01  0.7818608E-02  0.3370378E+00
         11   -1    0    0    0    0  0.00000000000E+00  0.00000000000E+00  0.39999999674E+01  0.40000000000E+01  0.51100000000E-03 0. -1.
    9000002   -1    0    0    0    0 -0.00000000000E+00 -0.00000000000E+00  0.00000000000E+00  0.93800000000E+00  0.93800000000E+00 0. -1.
         11    1    1    2    0    0 -0.47404528899E-01 -0.64663512256E-01  0.13273653740E+01  0.13297848158E+01  0.51100000000E-03 0. -1.
    9000002    1    1    2    0    0 -0.26966128120E+00  0.12357206305E+00  0.70645559692E-01  0.98631742175E+00  0.93800000000E+00 0. -1.
         22    1    1    2    0    0  0.31706581010E+00 -0.58908550791E-01  0.26019890337E+01  0.26218977625E+01  0.00000000000E+00 0. -1.
</event>
<event>
 5    1  0.6645559E+001  0.1587054E+01  0.7818608E-02  0.3367536E+00
         11   -1    0    0    0    0  0.00000000000E+00  0.00000000000E+00  0.39999999674E+01  0.40000000000E+01  0.51100000000E-03 0.  1.
    9000002   -1    0    0    0    0 -0.00000000000E+00 -0.00000000000E+00  0.00000000000E+00  0.93800000000E+00  0.93800000000E+00 0.  1.
         11    1    1    2    0    0  0.15818662059E+00 -0.15328501675E+00  0.96076249469E+00  0.98568967511E+00  0.51100000000E-03 0.  1.
    9000002    1    1    2    0    0 -0.19838201042E+00  0.42605245154E+00  0.16163560958E+00  0.10615301144E+01  0.93800000000E+00 0.  1.
         22    1    1    2    0    0  0.40195389832E-01 -0.27276743480E+00  0.28776018631E+01  0.28907802105E+01  0.00000000000E+00 0.  1.
</event>
<event>
 5    1  0.6645559E+001  0.1599096E+01  0.7818608E-02  0.3354346E+00
         11   -1    0    0    0    0  0.00000000000E+00  0.00000000000E+00  0.39999999674E+01  0.40000000000E+01  0.51100000000E-03 0. -1.
    9000002   -1    0    0    0    0 -0.00000000000E+00 -0.00000000000E+00  0.00000000000E+00  0.93800000000E+00  0.93800000000E+00 0.  1.
         11    1    1    2    0    0  0.23646999927E-01  0.34447232726E-01  0.34912537878E+00  0.35161709810E+00  0.51100000000E-03 0. -1.
    9000002    1    1    2    0    0 -0.32433323974E+00 -0.20961832105E+00  0.10089701159E+00  0.10193900617E+01  0.93800000000E+00 0.  1.
         22    1    1    2    0    0  0.30068623982E+00  0.17517108833E+00  0.35499775770E+01  0.35669928402E+01  0.00000000000E+00 0. -1.
</event>
<event>
 5    1  0.6645559E+001  0.1599673E+01  0.7818608E-02  0.3353718E+00
         11   -1    0    0    0    0  0.00000000000E+00  0.00000000000E+00  0.39999999674E+01  0.40000000000E+01  0.51100000000E-03 0. -1.
    9000002   -1    0    0    0    0 -0.00000000000E+00 -0.00000000000E+00  0.00000000000E+00  0.93800000000E+00  0.93800000000E+00 0.  1.
         11    1    1    2    0    0  0.97466250782E-02  0.47323698679E-01  0.45572904218E+00  0.45828348232E+00  0.51100000000E-03 0. -1.
    9000002    1    1    2    0    0 -0.77485903284E-01 -0.41461724744E+00  0.12035524568E+00  0.10354906626E+01  0.93800000000E+00 0.  1.
         22    1    1    2    0    0  0.67739278205E-01  0.36729354877E+00  0.34239156795E+01  0.34442258551E+01  0.00000000000E+00 0. -1.
</event>
<event>
 5    1  0.6645559E+001  0.1596004E+01  0.7818608E-02  0.3357712E+00
         11   -1    0    0    0    0  0.00000000000E+00  0.00000000000E+00  0.39999999674E+01  0.40000000000E+01  0.51100000000E-03 0.  1.
    9000002   -1    0    0    0    0 -0.00000000000E+00 -0.00000000000E+00  0.00000000000E+00  0.93800000000E+00  0.93800000000E+00 0.  1.
         11    1    1    2    0    0 -0.81224032277E-01  0.11308793023E+00  0.93743418390E+00  0.94771796102E+00  0.51100000000E-03 0.  1.
    9000002    1    1    2    0    0  0.38331392510E+00 -0.21275772689E+00  0.13346691248E+00  0.10439601679E+01  0.93800000000E+00 0.  1.
         22    1    1    2    0    0 -0.30208989283E+00  0.99669796656E-01  0.29290988710E+01  0.29463218710E+01  0.00000000000E+00 0.  1.
</event>
<event>
 5    1  0.6645559E+001  0.1599285E+01  0.7818608E-02  0.3354140E+00
         11   -1    0    0    0    0  0.00000000000E+00  0.00000000000E+00  0.39999999674E+01  0.40000000000E+01  0.51100000000E-03 0.  1.
    9000002   -1    0    0    0    0 -0.00000000000E+00 -0.00000000000E+00  0.00000000000E+00  0.93800000000E+00  0.93800000000E+00 0.  1.
         11    1    1    2    0    0 -0.66067338110E-01  0.40463090834E-01  0.65362990003E+00  0.65820548631E+00  0.51100000000E-03 0.  1.
    9000002    1    1    2    0    0  0.35398846915E+00 -0.14289199154E+00  0.98393528089E-01  0.10174729696E+01  0.93800000000E+00 0.  1.
         22    1    1    2    0    0 -0.28792113104E+00  0.10242890070E+00  0.32479765392E+01  0.32623215441E+01  0.00000000000E+00 0.  1.
</event>
<event>
 5    1  0.6645559E+001  0.1599675E+01  0.7818608E-02  0.3353716E+00
         11   -1    0    0    0    0  0.00000000000E+00  0.00000000000E+00  0.39999999674E+01  0.40000000000E+01  0.51100000000E-03 0.  1.
    9000002   -1    0    0    0    0 -0.00000000000E+00 -0.00000000000E+00  0.00000000000E+00  0.93800000000E+00  0.93800000000E+00 0. -1.
         11    1    1    2    0    0  0.12061412909E+00  0.75294418858E-01  0.13592717032E+01  0.13666882753E+01  0.51100000000E-03 0.  1.
    9000002    1    1    2    0    0 -0.34189330412E+00 -0.21236236168E+00  0.10930120173E+00  0.10265376548E+01  0.93800000000E+00 0. -1.
         22    1    1    2    0    0  0.22127917503E+00  0.13706794282E+00  0.25314270624E+01  0.25447740699E+01  0.00000000000E+00 0. -1.
</event>
<event>
 5    1  0.6645559E+001  0.1599154E+01  0.7818608E-02  0.3354282E+00
         11   -1    0    0    0    0  0.00000000000E+00  0.00000000000E+00  0.39999999674E+01  0.40000000000E+01  0.51100000000E-03 0. -1.
    9000002   -1    0    0    0    0 -0.00000000000E+00 -0.00000000000E+00  0.00000000000E+00  0.93800000000E+00  0.93800000000E+00 0. -1.
         11    1    1    2    0    0 -0.28752763843E-01 -0.75611917008E-01  0.46743471530E+00  0.47438313378E+00  0.51100000000E-03 0. -1.
    9000002    1    1    2    0    0  0.12119429480E+00  0.51916169342E+00  0.19617904846E+00  0.10966071038E+01  0.93800000000E+00 0. -1.
         22    1    1    2    0    0 -0.92441530959E-01 -0.44354977641E+00  0.33363862036E+01  0.33670097624E+01  0.00000000000E+00 0. -1.
</event>
<event>
 5    1  0.6645559E+001  0.1599646E+01  0.7818608E-02  0.3353748E+00
         11   -1    0    0    0    0  0.00000000000E+00  0.00000000000E+00  0.39999999674E+01  0.40000000000E+01  0.51100000000E-03 0. -1.
    9000002   -1    0    0    0    0 -0.00000000000E+00 -0.00000000000E+00  0.00000000000E+00  0.93800000000E+00  0.93800000000E+00 0.  1.
         11    1    1    2    0    0  0.65170723589E-01  0.75603599374E-01  0.95961452035E+00  0.96479190308E+00  0.51100000000E-03 0. -1.
    9000002    1    1    2    0    0 -0.25477150304E+00 -0.32769602208E+00  0.11647168293E+00  0.10323288500E+01  0.93800000000E+00 0.  1.
         22    1    1    2    0    0  0.18960077945E+00  0.25209242271E+00  0.29239137641E+01  0.29408792469E+01  0.00000000000E+00 0. -1.
</event>
<event>
 5    1  0.6645559E+001  0.1594289E+01  0.7818608E-02  0.3359585E+00
         11   -1    0    0    0    0  0.00000000000E+00  0.00000000000E+00  0.39999999674E+01  0.40000000000E+01  0.51100000000E-03 0.  1.
    9000002   -1    0    0    0    0 -0.00000000000E+00 -0.00000000000E+00  0.00000000000E+00  0.93800000000E+00  0.93800000000E+00 0. -1.
         11    1    1    2    0    0 -0.11780385886E+00 -0.37967457179E-01  0.91289178978E+00  0.92124424445E+00  0.51100000000E-03 0.  1.
    9000002    1    1    2    0    0  0.36871147939E+00 -0.12815475579E+00  0.10711867267E+00  0.10216115732E+01  0.93800000000E+00 0. -1.
         22    1    1    2    0    0 -0.25090762052E+00  0.16612221297E+00  0.29799895049E+01  0.29951441823E+01  0.00000000000E+00 0.  1.
</event>
<event>
 5    1  0.6645559E+001  0.1599671E+01  0.7818608E-02  0.3353720E+00
         11   -1    0    0    0    0  0.00000000000E+00  0.00000000000E+00  0.39999999674E+01  0.40000000000E+01  0.51100000000E-03 0.  1.
    9000002   -1    0    0    0    0 -0.00000000000E+00 -0.00000000000E+00  0.00000000000E+00  0.93800000000E+00  0.93800000000E+00 0. -1.
         11    1    1    2    0    0  0.85710789942E-01  0.37797440394E-01  0.94503696713E+00  0.94966842444E+00  0.51100000000E-03 0.  1.
    9000002    1    1    2    0    0 -0.36105949310E+00 -0.14892414696E+00  0.10277494244E+00  0.10212487689E+01  0.93800000000E+00 0. -1.
         22    1    1    2    0    0  0.27534870316E+00  0.11112670657E+00  0.29521880578E+01  0.29670828067E+01  0.00000000000E+00 0.  1.
</event>
<event>
 5    1  0.6645559E+001  0.1599674E+01  0.7818608E-02  0.3353717E+00
         11   -1    0    0    0    0  0.00000000000E+00  0.00000000000E+00  0.39999999674E+01  0.40000000000E+01  0.51100000000E-03 0. -1.
    9000002   -1    0    0    0    0 -0.00000000000E+00 -0.00000000000E+00  0.00000000000E+00  0.93800000000E+00  0.93800000000E+00 0. -1.
         11    1    1    2    0    0  0.80875212446E-01 -0.70214112748E-02  0.74992318859E+00  0.75430441475E+00  0.51100000000E-03 0. -1.
    9000002    1    1    2    0    0 -0.41149487512E+00  0.40656082564E-01  0.11553661944E+00  0.10315879312E+01  0.93800000000E+00 0. -1.
         22    1    1    2    0    0  0.33061966268E+00 -0.33634671289E-01  0.31345401593E+01  0.31521076541E+01  0.00000000000E+00 0. -1.
</event>
<event>
 5    1  0.6645559E+001  0.1599425E+01  0.7818608E-02  0.3353987E+00
         11   -1    0    0    0    0  0.00000000000E+00  0.00000000000E+00  0.39999999674E+01  0.40000000000E+01  0.51100000000E-03 0. -1.
    9000002   -1    0    0    0    0 -0.00000000000E+00 -0.00000000000E+00  0.00000000000E+00  0.93800000000E+00  0.93800000000E+00 0. -1.
         11    1    1    2    0    0  0.12089495709E-01  0.63061231084E-01  0.70280350142E+00  0.70573075426E+00  0.51100000000E-03 0. -1.
    9000002    1    1    2    0    0 -0.17484287523E-01 -0.41326608839E+00  0.11582421152E+00  0.10316752435E+01  0.93800000000E+00 0. -1.
         22    1    1    2    0    0  0.53947918132E-02  0.35020485731E+00  0.31813722544E+01  0.32005940022E+01  0.00000000000E+00 0. -1.
</event>
<event>
 5    1  0.6645559E+001  0.1587914E+01  0.7818608E-02  0.3366586E+00
         11   -1    0    0    0    0  0.00000000000E+00  0.00000000000E+00  0.39999999674E+01  0.40000000000E+01  0.51100000000E-03 0. -1.
    9000002   -1    0    0    0    0 -0.00000000000E+00 -0.00000000000E+00  0.00000000000E+00  0.93800000000E+00  0.93800000000E+00 0.  1.
         11    1    1    2    0    0 -0.24227453362E-01 -0.76523305289E-01  0.63384241850E+00  0.63890473339E+00  0.51100000000E-03 0. -1.
    9000002    1    1    2    0    0  0.32159497513E+00 -0.95769116107E-01  0.84828219002E-01  0.99981742252E+00  0.93800000000E+00 0.  1.
         22    1    1    2    0    0 -0.29736752177E+00  0.17229242140E+00  0.32813293299E+01  0.32992778441E+01  0.00000000000E+00 0. -1.
</event>
<event>
 5    1  0.6645559E+001  0.1599668E+01  0.7818608E-02  0.3353723E+00
         11   -1    0    0    0    0  0.00000000000E+00  0.00000000000E+00  0.39999999674E+01  0.40000000000E+01  0.51100000000E-03 0. -1.
    9000002   -1    0    0    0    0 -0.00000000000E+00 -0.00000000000E+00  0.00000000000E+00  0.93800000000E+00  0.93800000000E+00 0. -1.
         11    1    1    2    0    0 -0.15104718242E-01  0.72275794345E-02  0.16185474635E+00  0.16271942248E+00  0.51100000000E-03 0. -1.
    9000002    1    1    2    0    0  0.36669686194E+00 -0.20490318192E+00  0.11934345895E+00  0.10346684318E+01  0.93800000000E+00 0. -1.
         22    1    1    2    0    0 -0.35159214370E+00  0.19767560248E+00  0.37188017621E+01  0.37406121457E+01  0.00000000000E+00 0. -1.
</event>
<event>
 5    1  0.6645559E+001  0.1449610E+01  0.7818608E-02  0.3534727E+00
         11   -1    0    0    0    0  0.00000000000E+00  0.00000000000E+00  0.39999999674E+01  0.40000000000E+01  0.51100000000E-03 0. -1.
    9000002   -1    0    0    0    0 -0.00000000000E+00 -0.00000000000E+00  0.00000000000E+00  0.93800000000E+00  0.93800000000E+00 0. -1.
         11    1    1    2    0    0  0.26162785392E+00 -0.44453903486E+00  0.29201079033E+00  0.59273489037E+00  0.51100000000E-03 0. -1.
    9000002    1    1    2    0    0 -0.92976105867E+00  0.56071761539E+00  0.16930354017E+01  0.22192504910E+01  0.93800000000E+00 0. -1.
         22    1    1    2    0    0  0.66813320475E+00 -0.11617858052E+00  0.20149537754E+01  0.21260146187E+01  0.00000000000E+00 0. -1.
</event>
<event>
 5    1  0.6645559E+001  0.1558637E+01  0.7818608E-02  0.3399519E+00
         11   -1    0    0    0    0  0.00000000000E+00  0.00000000000E+00  0.39999999674E+01  0.40000000000E+01  0.51100000000E-03 0. -1.
    9000002   -1    0    0    0    0 -0.00000000000E+00 -0.00000000000E+00  0.00000000000E+00  0.93800000000E+00  0.93800000000E+00 0. -1.
         11    1    1    2    0    0 -0.18506615321E+00  0.13283013182E+00  0.13479537869E+01  0.13670672982E+01  0.51100000000E-03 0. -1.
    9000002    1    1    2    0    0  0.11977589307E+00  0.14074080582E+00  0.53839263813E-01  0.95754733842E+00  0.93800000000E+00 0. -1.
         22    1    1    2    0    0  0.65290260146E-01 -0.27357093764E+00  0.25982069166E+01  0.26133853634E+01  0.00000000000E+00 0. -1.
</event>
<event>
 5    1  0.6645559E+001  0.1599163E+01  0.7818608E-02  0.3354273E+00
         11   -1    0    0    0    0  0.00000000000E+00  0.00000000000E+00  0.39999999674E+01  0.40000000000E+01  0.51100000000E-03 0.  1.
    9000002   -1    0    0    0    0 -0.00000000000E+00 -0.00000000000E+00  0.00000000000E+00  0.93800000000E+00  0.93800000000E+00 0.  1.
         11    1    1    2    0    0  0.82601450573E-01 -0.75554381707E-01  0.98600954171E+00  0.99234396339E+00  0.51100000000E-03 0.  1.
    9000002    1    1    2    0    0 -0.23874833298E+00  0.33292430876E+00  0.11378485458E+00  0.10298690960E+01  0.93800000000E+00 0.  1.
         22    1    1    2    0    0  0.15614688241E+00 -0.25736992705E+00  0.29002055711E+01  0.29157869406E+01  0.00000000000E+00 0.  1.
</event>
<event>
 5    1  0.6645559E+001  0.1599674E+01  0.7818608E-02  0.3353717E+00
         11   -1    0    0    0    0  0.00000000000E+00  0.00000000000E+00  0.39999999674E+01  0.40000000000E+01  0.51100000000E-03 0.  1.
    9000002   -1    0    0    0    0 -0.00000000000E+00 -0.00000000000E+00  0.00000000000E+00  0.93800000000E+00  0.93800000000E+00 0. -1.
         11    1    1    2    0    0 -0.48825516527E-01  0.84226558673E-01  0.97527397770E+00  0.98012123584E+00  0.51100000000E-03 0.  1.
    9000002    1    1    2    0    0  0.20055517069E+00 -0.33164113859E+00  0.10116241521E+00  0.10199441433E+01  0.93800000000E+00 0. -1.
         22    1    1    2    0    0 -0.15172965416E+00  0.24741457991E+00  0.29235635745E+01  0.29379346208E+01  0.00000000000E+00 0.  1.
</event>
<event>
 5    1  0.7030631E+001  0.1599676E+01  0.7818608E-02  0.3353715E+00
         11   -1    0    0    0    0  0.00000000000E+00  0.00000000000E+00  0.39999999674E+01  0.40000000000E+01  0.51100000000E-03 0.  1.
    9000002   -1    0    0    0    0 -0.00000000000E+00 -0.00000000000E+00  0.00000000000E+00  0.93800000000E+00  0.93800000000E+00 0. -1.
         11    1    1    2    0    0 -0.10072126192E+00  0.84712527190E-01  0.13982470793E+01  0.14044273355E+01  0.51100000000E-03 0.  1.
    9000002    1    1    2    0    0  0.27811416493E+00 -0.23606294877E+00  0.89377161513E-01  0.10103986745E+01  0.93800000000E+00 0. -1.
         22    1    1    2    0    0 -0.17739290301E+00  0.15135042158E+00  0.25123757266E+01  0.25231739900E+01  0.00000000000E+00 0.  1.
</event>
<event>
 5    1  0.6645559E+001  0.1599677E+01  0.7818608E-02  0.3353715E+00
         11   -1    0    0    0    0  0.00000000000E+00  0.00000000000E+00  0.39999999674E+01  0.40000000000E+01  0.51100000000E-03 0. -1.
    9000002   -1    0    0    0    0 -0.00000000000E+00 -0.00000000000E+00  0.00000000000E+00  0.93800000000E+00  0.93800000000E+00 0.  1.
         11    1    1    2    0    0 -0.37941916871E-01  0.82611131848E-01  0.92569627738E+00  0.93014947575E+00  0.51100000000E-03 0. -1.
    9000002    1    1    2    0    0  0.16082895139E+00 -0.34567409991E+00  0.97817003048E-01  0.10172358139E+01  0.93800000000E+00 0.  1.
         22    1    1    2    0    0 -0.12288703452E+00  0.26306296806E+00  0.29764866869E+01  0.29906147104E+01  0.00000000000E+00 0. -1.
</event>
<event>
 5    1  0.6645559E+001  0.1599577E+01  0.7818608E-02  0.3353822E+00
         11   -1    0    0    0    0  0.00000000000E+00  0.00000000000E+00  0.39999999674E+01  0.40000000000E+01  0.51100000000E-03 0.  1.
    9000002   -1    0    0    0    0 -0.00000000000E+00 -0.00000000000E+00  0.00000000000E+00  0.93800000000E+00  0.93800000000E+00 0.  1.
         11    1    1    2    0    0  0.63165339464E-02 -0.24340362576E-02  0.58731535375E-01  0.59122563393E-01  0.51100000000E-03 0.  1.
    9000002    1    1    2    0    0 -0.37729753083E+00 -0.25155892749E-01  0.96266954101E-01  0.10159220306E+01  0.93800000000E+00 0.  1.
         22    1    1    2    0    0  0.37098099688E+00  0.27589929007E-01  0.38450014779E+01  0.38629554061E+01  0.00000000000E+00 0.  1.
</event>
<event>
 5    1  0.6645559E+001  0.1599670E+01  0.7818608E-02  0.3353722E+00
         11   -1    0    0    0    0  0.00000000000E+00  0.00000000000E+00  0.39999999674E+01  0.40000000000E+01  0.51100000000E-03 0. -1.
    9000002   -1    0    0    0    0 -0.00000000000E+00 -0.00000000000E+00  0.00000000000E+00  0.93800000000E+00  0.93800000000E+00 0. -1.
         11    1    1    2    0    0  0.10757366194E+00  0.52686848413E-01  0.12971830290E+01  0.13027018341E+01  0.51100000000E-03 0.  1.
    9000002    1    1    2    0    0 -0.33268743112E+00 -0.16225116464E+00  0.92081138570E-01  0.10125854548E+01  0.93800000000E+00 0. -1.
         22    1    1    2    0    0  0.22511376918E+00  0.10956431623E+00  0.26107357998E+01  0.26227127111E+01  0.00000000000E+00 0. -1.
</event>
<event>
 5    1  0.6645559E+001  0.1590019E+01  0.7818608E-02  0.3364268E+00
         11   -1    0    0    0    0  0.00000000000E+00  0.00000000000E+00  0.39999999674E+01  0.40000000000E+01  0.51100000000E-03 0.  1.
    9000002   -1    0    0    0    0 -0.00000000000E+00 -0.00000000000E+00  0.00000000000E+00  0.93800000000E+00  0.93800000000E+00 0.  1.
         11    1    1    2    0    0 -0.91513101701E-01 -0.34298085564E+00  0.13397167557E+01  0.13859479650E+01  0.51100000000E-03 0.  1.
    9000002    1    1    2    0    0  0.29212182997E+00  0.62250861504E+00  0.34755984032E+00  0.12138756040E+01  0.93800000000E+00 0.  1.
         22    1    1    2    0    0 -0.20060872827E+00 -0.27952775940E+00  0.23127233713E+01  0.23381764310E+01  0.00000000000E+00 0.  1.
</event>
<event>
 5    1  0.6645559E+001  0.1569821E+01  0.7818608E-02  0.3386784E+00
         11   -1    0    0    0    0  0.00000000000E+00  0.00000000000E+00  0.39999999674E+01  0.40000000000E+01  0.51100000000E-03 0.  1.
    9000002   -1    0    0    0    0 -0.00000000000E+00 -0.00000000000E+00  0.00000000000E+00  0.93800000000E+00  0.93800000000E+00 0. -1.
         11    1    1    2    0    0  0.26569400860E-01 -0.12985458825E+00  0.92208247069E+00  0.93156024551E+00  0.51100000000E-03 0.  1.
    9000002    1    1    2    0    0  0.16340325561E+00 -0.14456687778E+00  0.54419165343E-01  0.96457537375E+00  0.93800000000E+00 0. -1.
         22    1    1    2    0    0 -0.18997265647E+00  0.27442146603E+00  0.30234983313E+01  0.30418643807E+01  0.00000000000E+00 0.  1.
</event>
<event>
 5    1  0.6645559E+001  0.1580216E+01  0.7818608E-02  0.3375121E+00
         11   -1    0    0    0    0  0.00000000000E+00  0.00000000000E+00  0.39999999674E+01  0.40000000000E+01  0.51100000000E-03 0.  1.
    9000002   -1    0    0    0    0 -0.00000000000E+00 -0.00000000000E+00  0.00000000000E+00  0.93800000000E+00  0.93800000000E+00 0. -1.
         11    1    1    2    0    0  0.10174486525E+00  0.65604309051E-02  0.18289564378E+00  0.20939468593E+00  0.51100000000E-03 0.  1.
    9000002    1    1    2    0    0 -0.53210901212E+00 -0.49441517806E+00  0.40278686156E+00  0.12528637695E+01  0.93800000000E+00 0. -1.
         22    1    1    2    0    0  0.43036414688E+00  0.48785474716E+00  0.34143174620E+01  0.34757415446E+01  0.00000000000E+00 0.  1.
</event>
<event>
 5    1  0.6645559E+001  0.1599656E+01  0.7818608E-02  0.3353737E+00
         11   -1    0    0    0    0  0.00000000000E+00  0.00000000000E+00  0.39999999674E+01  0.40000000000E+01  0.51100000000E-03 0. -1.
    9000002   -1    0    0    0    0 -0.00000000000E+00 -0.00000000000E+00  0.00000000000E+00  0.93800000000E+00  0.93800000000E+00 0. -1.
         11    1    1    2    0    0  0.26815538816E-01 -0.13512762696E+00  0.13468780356E+01  0.13539051860E+01  0.51100000000E-03 0. -1.
    9000002    1    1    2    0    0 -0.68085599744E-01  0.40203545542E+00  0.11228180352E+00  0.10289408922E+01  0.93800000000E+00 0. -1.
         22    1    1    2    0    0  0.41270060928E-01 -0.26690782845E+00  0.25408401282E+01  0.25551539218E+01  0.00000000000E+00 0. -1.
</event>
<event>
 5    1  0.6645559E+001  0.1598908E+01  0.7818608E-02  0.3354549E+00
         11   -1    0    0    0    0  0.00000000000E+00  0.00000000000E+00  0.39999999674E+01  0.40000000000E+01  0.51100000000E-03 0. -1.
    9000002   -1    0    0    0    0 -0.00000000000E+00 -0.00000000000E+00  0.00000000000E+00  0.93800000000E+00  0.93800000000E+00 0.  1.
         11    1    1    2    0    0 -0.16011633431E-03  0.15885522808E-02  0.15083714886E-02  0.22550922680E-02  0.51100000000E-03 0. -1.
    9000002    1    1    2    0    0 -0.41541390705E+00 -0.46586318792E+00  0.27405569000E+00  0.11595463532E+01  0.93800000000E+00 0.  1.
         22    1    1    2    0    0  0.41557402338E+00  0.46427463564E+00  0.37244359059E+01  0.37761985545E+01  0.00000000000E+00 0. -1.
</event>
<event>
 5    1  0.6645559E+001  0.1594905E+01  0.7818608E-02  0.3358911E+00
         11   -1    0    0    0    0  0.00000000000E+00  0.00000000000E+00  0.39999999674E+01  0.40000000000E+01  0.51100000000E-03 0. -1.
    9000002   -1    0    0    0    0 -0.00000000000E+00 -0.00000000000E+00  0.00000000000E+00  0.93800000000E+00  0.93800000000E+00 0. -1.
         11    1    1    2    0    0  0.67174886693E-01  0.96041337435E-02  0.83332241103E+00  0.83608086130E+00  0.51100000000E-03 0. -1.
    9000002    1    1    2    0    0 -0.38501689453E+00  0.26340193442E+00  0.15235924628E+00  0.10586198222E+01  0.93800000000E+00 0. -1.
         22    1    1    2    0    0  0.31784200784E+00 -0.27300606816E+00  0.30143183100E+01  0.30432993164E+01  0.00000000000E+00 0. -1.
</event>
<event>
 5    1  0.6645559E+001  0.1599515E+01  0.7818608E-02  0.3353890E+00
         11   -1    0    0    0    0  0.00000000000E+00  0.00000000000E+00  0.39999999674E+01  0.40000000000E+01  0.51100000000E-03 0. -1.
    9000002   -1    0    0    0    0 -0.00000000000E+00 -0.00000000000E+00  0.00000000000E+00  0.93800000000E+00  0.93800000000E+00 0.  1.
         11    1    1    2    0    0 -0.28718578009E-02 -0.15380329515E+00  0.10155529320E+01  0.10271376344E+01  0.51100000000E-03 0. -1.
    9000002    1    1    2    0    0  0.58562702687E-01  0.55634364009E+00  0.21669937405E+00  0.11134408178E+01  0.93800000000E+00 0.  1.
         22    1    1    2    0    0 -0.55690844886E-01 -0.40254034494E+00  0.27677476613E+01  0.27974215478E+01  0.00000000000E+00 0. -1.
</event>
<event>
 5    1  0.6645559E+001  0.1596963E+01  0.7818608E-02  0.3356666E+00
         11   -1    0    0    0    0  0.00000000000E+00  0.00000000000E+00  0.39999999674E+01  0.40000000000E+01  0.51100000000E-03 0.  1.
    9000002   -1    0    0    0    0 -0.00000000000E+00 -0.00000000000E+00  0.00000000000E+00  0.93800000000E+00  0.93800000000E+00 0.  1.
         11    1    1    2    0    0 -0.11315363466E+00 -0.41508836704E-01  0.12201109930E+01  0.12260496829E+01  0.51100000000E-03 0.  1.
    9000002    1    1    2    0    0  0.30658586920E+00  0.30897282429E+00  0.13072440107E+00  0.10423012858E+01  0.93800000000E+00 0.  1.
         22    1    1    2    0    0 -0.19343223454E+00 -0.26746398759E+00  0.26491645733E+01  0.26696490313E+01  0.00000000000E+00 0.  1.
</event>
<event>
 5    1  0.6645559E+001  0.1583563E+01  0.7818608E-02  0.3371399E+00
         11   -1    0    0    0    0  0.00000000000E+00  0.00000000000E+00  0.39999999674E+01  0.40000000000E+01  0.51100000000E-03 0. -1.
    9000002   -1    0    0    0    0 -0.00000000000E+00 -0.00000000000E+00  0.00000000000E+00  0.93800000000E+00  0.93800000000E+00 0. -1.
         11    1    1    2    0    0 -0.67973110405E-01 -0.55944263517E-01  0.10523906900E+01  0.10560665367E+01  0.51100000000E-03 0. -1.
    9000002    1    1    2    0    0 -0.23107270383E+00  0.66582814339E-01  0.50753513731E-01  0.96966374830E+00  0.93800000000E+00 0. -1.
         22    1    1    2    0    0  0.29904581423E+00 -0.10638550821E-01  0.28968557636E+01  0.29122697150E+01  0.00000000000E+00 0. -1.
</event>
<event>
 5    1  0.6645559E+001  0.1599601E+01  0.7818608E-02  0.3353797E+00
         11   -1    0    0    0    0  0.00000000000E+00  0.00000000000E+00  0.39999999674E+01  0.40000000000E+01  0.51100000000E-03 0.  1.
    9000002   -1    0    0    0    0 -0.00000000000E+00 -0.00000000000E+00  0.00000000000E+00  0.93800000000E+00  0.93800000000E+00 0. -1.
         11    1    1    2    0    0  0.81940436049E-02  0.41969874062E-01  0.24292247921E+00  0.24665807245E+00  0.51100000000E-03 0.  1.
    9000002    1    1    2    0    0 -0.17309727381E+00 -0.58194016725E+00  0.25765579913E+00  0.11466680144E+01  0.93800000000E+00 0.  1.
         22    1    1    2    0    0  0.16490323020E+00  0.53997029319E+00  0.34994216890E+01  0.35446739131E+01  0.00000000000E+00 0.  1.
</event>
<event>
 5    1  0.6645559E+001  0.1545154E+01  0.7818608E-02  0.3415130E+00
         11   -1    0    0    0    0  0.00000000000E+00  0.00000000000E+00  0.39999999674E+01  0.40000000000E+01  0.51100000000E-03 0.  1.
    9000002   -1    0    0    0    0 -0.00000000000E+00 -0.00000000000E+00  0.00000000000E+00  0.93800000000E+00  0.93800000000E+00 0. -1.
         11    1    1    2    0    0 -0.12231636041E+00 -0.14979163792E+00  0.13534248167E+01  0.13671714678E+01  0.51100000000E-03 0.  1.
    9000002    1    1    2    0    0 -0.10585751614E+00 -0.18836744795E+00  0.73227031765E-01  0.96534672908E+00  0.93800000000E+00 0. -1.
         22    1    1    2    0    0  0.22817387655E+00  0.33815908587E+00  0.25733481189E+01  0.26054818031E+01  0.00000000000E+00 0.  1.
</event>
<event>
 5    1  0.6645559E+001  0.1599628E+01  0.7818608E-02  0.3353768E+00
         11   -1    0    0    0    0  0.00000000000E+00  0.00000000000E+00  0.39999999674E+01  0.40000000000E+01  0.51100000000E-03 0.  1.
    9000002   -1    0    0    0    0 -0.00000000000E+00 -0.00000000000E+00  0.00000000000E+00  0.93800000000E+00  0.93800000000E+00 0. -1.
         11    1    1    2    0    0  0.11145465893E-01  0.15078067010E-01  0.14773709893E+00  0.14892307087E+00  0.51100000000E-03 0.  1.
    9000002    1    1    2    0    0 -0.22287493302E+00 -0.34909855143E+00  0.11596580655E+00  0.10319084759E+01  0.93800000000E+00 0. -1.
         22    1    1    2    0    0  0.21172946712E+00  0.33402048442E+00  0.37362970619E+01  0.37571684532E+01  0.00000000000E+00 0.  1.
</event>
<event>
 5    1  0.6645559E+001  0.1599665E+01  0.7818608E-02  0.3353727E+00
         11   -1    0    0    0    0  0.00000000000E+00  0.00000000000E+00  0.39999999674E+01  0.40000000000E+01  0.51100000000E-03 0. -1.
    9000002   -1    0    0    0    0 -0.00000000000E+00 -0.00000000000E+00  0.00000000000E+00  0.93800000000E+00  0.93800000000E+00 0.  1.
         11    1    1    2    0    0  0.16535906746E-01 -0.10131881506E+00  0.11007108932E+01  0.11054879782E+01  0.51100000000E-03 0. -1.
    9000002    1    1    2    0    0 -0.54636635392E-01  0.37228402164E+00  0.95228391462E-01  0.10151320117E+01  0.93800000000E+00 0.  1.
         22    1    1    2    0    0  0.38100728646E-01 -0.27096520658E+00  0.28040606827E+01  0.28173800101E+01  0.00000000000E+00 0. -1.
</event>
<event>
 5    1  0.6645559E+001  0.1588574E+01  0.7818608E-02  0.3365859E+00
         11   -1    0    0    0    0  0.00000000000E+00  0.00000000000E+00  0.39999999674E+01  0.40000000000E+01  0.51100000000E-03 0.  1.
    9000002   -1    0    0    0    0 -0.00000000000E+00 -0.00000000000E+00  0.00000000000E+00  0.93800000000E+00  0.93800000000E+00 0.  1.
         11    1    1    2    0    0 -0.12317064418E+00  0.22467147053E-01  0.10985497077E+01  0.11056615675E+01  0.51100000000E-03 0.  1.
    9000002    1    1    2    0    0  0.21496992279E+00  0.25858181193E+00  0.84627221534E-01  0.10000411930E+01  0.93800000000E+00 0.  1.
         22    1    1    2    0    0 -0.91799278612E-01 -0.28104895898E+00  0.28168230381E+01  0.28322972395E+01  0.00000000000E+00 0.  1.
</event>
<event>
 5    1  0.6645559E+001  0.1598836E+01  0.7818608E-02  0.3354627E+00
         11   -1    0    0    0    0  0.00000000000E+00  0.00000000000E+00  0.39999999674E+01  0.40000000000E+01  0.51100000000E-03 0. -1.
    9000002   -1    0    0    0    0 -0.00000000000E+00 -0.00000000000E+00  0.00000000000E+00  0.93800000000E+00  0.93800000000E+00 0.  1.
         11    1    1    2    0    0 -0.13688928081E+00 -0.57780414485E-01  0.10894034750E+01  0.10994896289E+01  0.51100000000E-03 0. -1.
    9000002    1    1    2    0    0  0.44192290385E+00  0.10174976793E+00  0.14047404243E+00  0.10512972105E+01  0.93800000000E+00 0.  1.
         22    1    1    2    0    0 -0.30503362304E+00 -0.43969353446E-01  0.27701224499E+01  0.27872131606E+01  0.00000000000E+00 0. -1.
</event>
<event>
 5    1  0.6645559E+001  0.1599613E+01  0.7818608E-02  0.3353783E+00
         11   -1    0    0    0    0  0.00000000000E+00  0.00000000000E+00  0.39999999674E+01  0.40000000000E+01  0.51100000000E-03 0.  1.
    9000002   -1    0    0    0    0 -0.00000000000E+00 -0.00000000000E+00  0.00000000000E+00  0.93800000000E+00  0.93800000000E+00 0. -1.
         11    1    1    2    0    0  0.60599550168E-01  0.58346836365E-01  0.96749314970E+00  0.97114361175E+00  0.51100000000E-03 0.  1.
    9000002    1    1    2    0    0 -0.22963429577E+00 -0.26586678469E+00  0.82815734178E-01  0.10050470152E+01  0.93800000000E+00 0. -1.
         22    1    1    2    0    0  0.16903474560E+00  0.20751994833E+00  0.29496910835E+01  0.29618093730E+01  0.00000000000E+00 0.  1.
</event>
<event>
 5    1  0.6645559E+001  0.1599627E+01  0.7818608E-02  0.3353769E+00
         11   -1    0    0    0    0  0.00000000000E+00  0.00000000000E+00  0.39999999674E+01  0.40000000000E+01  0.51100000000E-03 0. -1.
    9000002   -1    0    0    0    0 -0.00000000000E+00 -0.00000000000E+00  0.00000000000E+00  0.93800000000E+00  0.93800000000E+00 0.  1.
         11    1    1    2    0    0  0.51308713697E-01 -0.20711861700E+00  0.14434748639E+01  0.14591609403E+01  0.51100000000E-03 0. -1.
    9000002    1    1    2    0    0 -0.12301640986E+00  0.52657156924E+00  0.20166489227E+00  0.11013280090E+01  0.93800000000E+00 0.  1.
         22    1    1    2    0    0  0.71707696163E-01 -0.31945295224E+00  0.23548602111E+01  0.23775110507E+01  0.00000000000E+00 0. -1.
</event>
<event>
 5    1  0.6645559E+001  0.1599667E+01  0.7818608E-02  0.3353725E+00
         11   -1    0    0    0    0  0.00000000000E+00  0.00000000000E+00  0.39999999674E+01  0.40000000000E+01  0.51100000000E-03 0. -1.
    9000002   -1    0    0    0    0 -0.00000000000E+00 -0.00000000000E+00  0.00000000000E+00  0.93800000000E+00  0.93800000000E+00 0.  1.
         11    1    1    2    0    0 -0.12121722373E+00  0.14111984474E+00  0.11428659562E+01  0.11579081487E+01  0.51100000000E-03 0. -1.
    9000002    1    1    2    0    0  0.40632628752E+00 -0.46544557413E+00  0.26738936318E+00  0.11545915754E+01  0.93800000000E+00 0.  1.
         22    1    1    2    0    0 -0.28510906379E+00  0.32432572939E+00  0.25897446480E+01  0.26255002759E+01  0.00000000000E+00 0. -1.
</event>
<event>
 5    1  0.6645559E+001  0.1599551E+01  0.7818608E-02  0.3353851E+00
         11   -1    0    0    0    0  0.00000000000E+00  0.00000000000E+00  0.39999999674E+01  0.40000000000E+01  0.51100000000E-03 0. -1.
    9000002   -1    0    0    0    0 -0.00000000000E+00 -0.00000000000E+00  0.00000000000E+00  0.93800000000E+00  0.93800000000E+00 0.  1.
         11    1    1    2    0    0 -0.81052608714E-02  0.51875825006E-01  0.47143208305E+00  0.47434720040E+00  0.51100000000E-03 0. -1.
    9000002    1    1    2    0    0 -0.43457919309E-02 -0.44095784191E+00  0.13201069574E+00  0.10448605304E+01  0.93800000000E+00 0.  1.
         22    1    1    2    0    0  0.12451052802E-01  0.38908201690E+00  0.33965571886E+01  0.34187922692E+01  0.00000000000E+00 0. -1.
</event>
<event>
 5    1  0.6645559E+001  0.1582622E+01  0.7818608E-02  0.3372443E+00
         11   -1    0    0    0    0  0.00000000000E+00  0.00000000000E+00  0.39999999674E+01  0.40000000000E+01  0.51100000000E-03 0.  1.
    9000002   -1    0    0    0    0 -0.00000000000E+00 -0.00000000000E+00  0.00000000000E+00  0.93800000000E+00  0.93800000000E+00 0. -1.
         11    1    1    2    0    0 -0.16989761287E+00  0.67965075254E-01  0.14395666721E+01  0.14511502041E+01  0.51100000000E-03 0.  1.
    9000002    1    1    2    0    0  0.63519294222E-01 -0.28904685207E+00  0.71847351991E-01  0.98619918141E+00  0.93800000000E+00 0. -1.
         22    1    1    2    0    0  0.10637831864E+00  0.22108177681E+00  0.24885859432E+01  0.25006506145E+01  0.00000000000E+00 0.  1.
</event>
<event>
 5    1  0.6645559E+001  0.1599677E+01  0.7818608E-02  0.3353714E+00
         11   -1    0    0    0    0  0.00000000000E+00  0.00000000000E+00  0.39999999674E+01  0.40000000000E+01  0.51100000000E-03 0.  1.
    9000002   -1    0    0    0    0 -0.00000000000E+00 -0.00000000000E+00  0.00000000000E+00  0.93800000000E+00  0.93800000000E+00 0. -1.
         11    1    1    2    0    0 -0.86121125242E-01  0.21031110107E-01  0.90982284392E+00  0.91413184183E+00  0.51100000000E-03 0.  1.
    9000002    1    1    2    0    0  0.37051364263E+00 -0.89931175494E-01  0.97824618838E-01  0.10172421697E+01  0.93800000000E+00 0. -1.
         22    1    1    2    0    0 -0.28439251738E+00  0.68900065387E-01  0.29923525046E+01  0.30066259885E+01  0.00000000000E+00 0.  1.
</event>
<event>
 5    1  0.6645559E+001  0.1599669E+01  0.7818608E-02  0.3353723E+00
         11   -1    0    0    0    0  0.00000000000E+00  0.00000000000E+00  0.39999999674E+01  0.40000000000E+01  0.51100000000E-03 0.  1.
    9000002   -1    0    0    0    0 -0.00000000000E+00 -0.00000000000E+00  0.00000000000E+00  0.93800000000E+00  0.93800000000E+00 0. -1.
         11    1    1    2    0    0  0.46003021289E-03 -0.69150579975E-01  0.64506485674E+00  0.64876108458E+00  0.51100000000E-03 0.  1.
    9000002    1    1    2    0    0  0.11073572030E-01  0.41015325783E+00  0.11371365857E+00  0.10301083026E+01  0.93800000000E+00 0. -1.
         22    1    1    2    0    0 -0.11533602242E-01 -0.34100267786E+00  0.32412214521E+01  0.32591306128E+01  0.00000000000E+00 0.  1.
</event>
<event>
 5    1  0.6645559E+001  0.1558816E+01  0.7818608E-02  0.3399313E+00
         11   -1    0    0    0    0  0.00000000000E+00  0.00000000000E+00  0.39999999674E+01  0.40000000000E+01  0.51100000000E-03 0. -1.
    9000002   -1    0    0    0    0 -0.00000000000E+00 -0.00000000000E+00  0.00000000000E+00  0.93800000000E+00  0.93800000000E+00 0. -1.
         11    1    1    2    0    0 -0.11988067265E+00 -0.56050891347E-01  0.12371201436E+01  0.12441782786E+01  0.51100000000E-03 0. -1.
    9000002    1    1    2    0    0 -0.99744650064E-01 -0.35299133634E+00  0.12442316469E+00  0.10148285583E+01  0.93800000000E+00 0. -1.
         22    1    1    2    0    0  0.21962532271E+00  0.40904222769E+00  0.26384566590E+01  0.26789931631E+01  0.00000000000E+00 0. -1.
</event>
<event>
 5    1  0.6645559E+001  0.1599635E+01  0.7818608E-02  0.3353759E+00
         11   -1    0    0    0    0  0.00000000000E+00  0.00000000000E+00  0.39999999674E+01  0.40000000000E+01  0.51100000000E-03 0. -1.
    9000002   -1    0    0    0    0 -0.00000000000E+00 -0.00000000000E+00  0.00000000000E+00  0.93800000000E+00  0.93800000000E+00 0. -1.
         11    1    1    2    0    0 -0.14786958076E-01 -0.80157225338E-02  0.11455774094E+00  0.11578705915E+00  0.51100000000E-03 0.  1.
    9000002    1    1    2    0    0  0.44867049943E+00  0.19402452570E+00  0.16331018540E+00  0.10702639629E+01  0.93800000000E+00 0. -1.
         22    1    1    2    0    0 -0.43388354135E+00 -0.18600880316E+00  0.37221320410E+01  0.37519489779E+01  0.00000000000E+00 0. -1.
</event>
<event>
 5    1  0.6645559E+001  0.1598338E+01  0.7818608E-02  0.3355169E+00
         11   -1    0    0    0    0  0.00000000000E+00  0.00000000000E+00  0.39999999674E+01  0.40000000000E+01  0.51100000000E-03 0. -1.
    9000002   -1    0    0    0    0 -0.00000000000E+00 -0.00000000000E+00  0.00000000000E+00  0.93800000000E+00  0.93800000000E+00 0.  1.
         11    1    1    2    0    0  0.81981448939E-01 -0.15014064553E-01  0.12490934782E+01  0.12518710631E+01  0.51100000000E-03 0. -1.
    9000002    1    1    2    0    0 -0.36212877348E+00  0.11987620018E+00  0.99021546306E-01  0.10174265667E+01  0.93800000000E+00 0.  1.
         22    1    1    2    0    0  0.28014732454E+00 -0.10486213563E+00  0.26518849428E+01  0.26687023702E+01  0.00000000000E+00 0. -1.
</event>
<event>
 5    1  0.6645559E+001  0.1599674E+01  0.7818608E-02  0.3353718E+00
         11   -1    0    0    0    0  0.00000000000E+00  0.00000000000E+00  0.39999999674E+01  0.40000000000E+01  0.51100000000E-03 0.  1.
    9000002   -1    0    0    0    0 -0.00000000000E+00 -0.00000000000E+00  0.00000000000E+00  0.93800000000E+00  0.93800000000E+00 0.  1.
         11    1    1    2    0    0 -0.79707669824E-01  0.11556033800E+00  0.87490951280E+00  0.88610068336E+00  0.51100000000E-03 0.  1.
    9000002    1    1    2    0    0  0.34796841555E+00 -0.49803503119E+00  0.25795833123E+00  0.11469557146E+01  0.93800000000E+00 0.  1.
         22    1    1    2    0    0 -0.26826074573E+00  0.38247469319E+00  0.28671321233E+01  0.29049436021E+01  0.00000000000E+00 0.  1.
</event>
<event>
 5    1  0.6645559E+001  0.1599582E+01  0.7818608E-02  0.3353817E+00
         11   -1    0    0    0    0  0.00000000000E+00  0.00000000000E+00  0.39999999674E+01  0.40000000000E+01  0.51100000000E-03 0.  1.
    9000002   -1    0    0    0    0 -0.00000000000E+00 -0.00000000000E+00  0.00000000000E+00  0.93800000000E+00  0.93800000000E+00 0.  1.
         11    1    1    2    0    0  0.13031169115E+00  0.96719402734E-01  0.82426873226E+00  0.84009224721E+00  0.51100000000E-03 0.  1.
    9000002    1    1    2    0    0 -0.53866395851E+00 -0.41569859146E+00  0.32927223980E+00  0.12046694099E+01  0.93800000000E+00 0.  1.
         22    1    1    2    0    0  0.40835226737E+00  0.31897918872E+00  0.28464589953E+01  0.28932383429E+01  0.00000000000E+00 0.  1.
</event>
<event>
 5    1  0.6645559E+001  0.1599677E+01  0.7818608E-02  0.3353714E+00
         11   -1    0    0    0    0  0.00000000000E+00  0.00000000000E+00  0.39999999674E+01  0.40000000000E+01  0.51100000000E-03 0.  1.
    9000002   -1    0    0    0    0 -0.00000000000E+00 -0.00000000000E+00  0.00000000000E+00  0.93800000000E+00  0.93800000000E+00 0.  1.
         11    1    1    2    0    0  0.10513392350E+00 -0.46587251126E-01  0.10901315942E+01  0.10961800343E+01  0.51100000000E-03 0.  1.
    9000002    1    1    2    0    0 -0.37431073619E+00  0.16559796587E+00  0.11314010238E+00  0.10296484333E+01  0.93800000000E+00 0.  1.
         22    1    1    2    0    0  0.26917681269E+00 -0.11901071474E+00  0.27967282708E+01  0.28121715323E+01  0.00000000000E+00 0.  1.
</event>
<event>
 5    1  0.6645559E+001  0.1598479E+01  0.7818608E-02  0.3355016E+00
         11   -1    0    0    0    0  0.00000000000E+00  0.00000000000E+00  0.39999999674E+01  0.40000000000E+01  0.51100000000E-03 0. -1.
    9000002   -1    0    0    0    0 -0.00000000000E+00 -0.00000000000E+00  0.00000000000E+00  0.93800000000E+00  0.93800000000E+00 0. -1.
         11    1    1    2    0    0 -0.73585839396E-02 -0.11902532262E-01  0.18064592506E+00  0.18118783180E+00  0.51100000000E-03 0. -1.
    9000002    1    1    2    0    0  0.41353802057E+00 -0.21656973889E-01  0.11688992703E+00  0.10319835144E+01  0.93800000000E+00 0. -1.
         22    1    1    2    0    0 -0.40617943663E+00  0.33559506150E-01  0.37024641153E+01  0.37248286538E+01  0.00000000000E+00 0. -1.
</event>
<event>
 5    1  0.6645559E+001  0.1582145E+01  0.7818608E-02  0.3372973E+00
         11   -1    0    0    0    0  0.00000000000E+00  0.00000000000E+00  0.39999999674E+01  0.40000000000E+01  0.51100000000E-03 0. -1.
    9000002   -1    0    0    0    0 -0.00000000000E+00 -0.00000000000E+00  0.00000000000E+00  0.93800000000E+00  0.93800000000E+00 0. -1.
         11    1    1    2    0    0  0.37790529006E-01  0.11522629452E+00  0.93028247138E+00  0.93815295166E+00  0.51100000000E-03 0. -1.
    9000002    1    1    2    0    0 -0.42994847240E+00  0.17006004351E-01  0.14045863851E+00  0.10414977303E+01  0.93800000000E+00 0. -1.
         22    1    1    2    0    0  0.39215794339E+00 -0.13223229887E+00  0.29292588575E+01  0.29583493180E+01  0.00000000000E+00 0. -1.
</event>
<event>
 5    1  0.6645559E+001  0.1547839E+01  0.7818608E-02  0.3411998E+00
         11   -1    0    0    0    0  0.00000000000E+00  0.00000000000E+00  0.39999999674E+01  0.40000000000E+01  0.51100000000E-03 0.  1.
    9000002   -1    0    0    0    0 -0.00000000000E+00 -0.00000000000E+00  0.00000000000E+00  0.93800000000E+00  0.93800000000E+00 0.  1.
         11    1    1    2    0    0 -0.11094423839E+00 -0.85573907598E-01  0.27588862641E+00  0.30942901124E+00  0.51100000000E-03 0.  1.
    9000002    1    1    2    0    0 -0.28759058979E+00  0.35158853834E+00  0.18661304456E+00  0.10587687547E+01  0.93800000000E+00 0.  1.
         22    1    1    2    0    0  0.39853482817E+00 -0.26601463074E+00  0.35374982964E+01  0.35698022340E+01  0.00000000000E+00 0.  1.
</event>
<event>
 5    1  0.6645559E+001  0.1599676E+01  0.7818608E-02  0.3353715E+00
         11   -1    0    0    0    0  0.00000000000E+00  0.00000000000E+00  0.39999999674E+01  0.40000000000E+01  0.51100000000E-03 0.  1.
    9000002   -1    0    0    0    0 -0.00000000000E+00 -0.00000000000E+00  0.00000000000E+00  0.93800000000E+00  0.93800000000E+00 0.  1.
         11    1    1    2    0    0 -0.30630275583E-01 -0.14440635665E+00  0.10486738189E+01  0.10590129599E+01  0.51100000000E-03 0.  1.
    9000002    1    1    2    0    0  0.11112146559E+00  0.52724045286E+00  0.20011312692E+00  0.11000998767E+01  0.93800000000E+00 0.  1.
         22    1    1    2    0    0 -0.80491190005E-01 -0.38283409622E+00  0.27512130215E+01  0.27788871634E+01  0.00000000000E+00 0.  1.
</event>
<event>
 5    1  0.6645559E+001  0.1599677E+01  0.7818608E-02  0.3353715E+00
         11   -1    0    0    0    0  0.00000000000E+00  0.00000000000E+00  0.39999999674E+01  0.40000000000E+01  0.51100000000E-03 0. -1.
    9000002   -1    0    0    0    0 -0.00000000000E+00 -0.00000000000E+00  0.00000000000E+00  0.93800000000E+00  0.93800000000E+00 0.  1.
         11    1    1    2    0    0 -0.21542381621E-01  0.58042869842E-01  0.63451470845E+00  0.63752821530E+00  0.51100000000E-03 0. -1.
    9000002    1    1    2    0    0  0.13326798265E+00 -0.35412287377E+00  0.96307493063E-01  0.10160130403E+01  0.93800000000E+00 0.  1.
         22    1    1    2    0    0 -0.11172560103E+00  0.29608000393E+00  0.32691777658E+01  0.32844587444E+01  0.00000000000E+00 0. -1.
</event>
<event>
 5    1  0.6645559E+001  0.1599622E+01  0.7818608E-02  0.3353774E+00
         11   -1    0    0    0    0  0.00000000000E+00  0.00000000000E+00  0.39999999674E+01  0.40000000000E+01  0.51100000000E-03 0.  1.
    9000002   -1    0    0    0    0 -0.00000000000E+00 -0.00000000000E+00  0.00000000000E+00  0.93800000000E+00  0.93800000000E+00 0. -1.
         11    1    1    2    0    0 -0.78195202370E-01  0.79921609544E-01  0.24616381654E+00  0.27036796970E+00  0.51100000000E-03 0.  1.
    9000002    1    1    2    0    0  0.83457114900E+00 -0.88413214251E+00  0.14457078584E+01  0.21090552056E+01  0.93800000000E+00 0. -1.
         22    1    1    2    0    0 -0.75637594663E+00  0.80421053297E+00  0.23081282924E+01  0.25585768247E+01  0.00000000000E+00 0.  1.
</event>
<event>
 5    1  0.6645559E+001  0.1567437E+01  0.7818608E-02  0.3389483E+00
         11   -1    0    0    0    0  0.00000000000E+00  0.00000000000E+00  0.39999999674E+01  0.40000000000E+01  0.51100000000E-03 0.  1.
    9000002   -1    0    0    0    0 -0.00000000000E+00 -0.00000000000E+00  0.00000000000E+00  0.93800000000E+00  0.93800000000E+00 0. -1.
         11    1    1    2    0    0 -0.80775814007E-01  0.10969871985E+00  0.11174566732E+01  0.11257300826E+01  0.51100000000E-03 0.  1.
    9000002    1    1    2    0    0  0.24043912711E+00  0.29734394889E+00  0.12541182804E+00  0.10206843412E+01  0.93800000000E+00 0. -1.
         22    1    1    2    0    0 -0.15966331310E+00 -0.40704266874E+00  0.27571314661E+01  0.27915855762E+01  0.00000000000E+00 0.  1.
</event>
<event>
 5    1  0.6645559E+001  0.1599654E+01  0.7818608E-02  0.3353739E+00
         11   -1    0    0    0    0  0.00000000000E+00  0.00000000000E+00  0.39999999674E+01  0.40000000000E+01  0.51100000000E-03 0.  1.
    9000002   -1    0    0    0    0 -0.00000000000E+00 -0.00000000000E+00  0.00000000000E+00  0.93800000000E+00  0.93800000000E+00 0. -1.
         11    1    1    2    0    0 -0.16386326481E+00 -0.25490433798E-01  0.14329503040E+01  0.14425143904E+01  0.51100000000E-03 0.  1.
    9000002    1    1    2    0    0  0.45457717787E+00  0.62090786157E-01  0.14317300136E+00  0.10539630851E+01  0.93800000000E+00 0. -1.
         22    1    1    2    0    0 -0.29071391306E+00 -0.36600352359E-01  0.24238766620E+01  0.24415225245E+01  0.00000000000E+00 0.  1.
</event>
<event>
 5    1  0.6645559E+001  0.1475710E+01  0.7818608E-02  0.3500395E+00
         11   -1    0    0    0    0  0.00000000000E+00  0.00000000000E+00  0.39999999674E+01  0.40000000000E+01  0.51100000000E-03 0.  1.
    9000002   -1    0    0    0    0 -0.00000000000E+00 -0.00000000000E+00  0.00000000000E+00  0.93800000000E+00  0.93800000000E+00 0.  1.
         11    1    1    2    0    0 -0.40684559959E+00 -0.20703434217E+00  0.97774924408E+00  0.10790645978E+01  0.51100000000E-03 0.  1.
    9000002    1    1    2    0    0 -0.24070598425E-01  0.11619021917E+00  0.15504186223E+00  0.95810309455E+00  0.93800000000E+00 0.  1.
         22    1    1    2    0    0  0.43091619802E+00  0.90844122995E-01  0.28672088610E+01  0.29008323077E+01  0.00000000000E+00 0.  1.
</event>
<event>
 5    1  0.6645559E+001  0.1505776E+01  0.7818608E-02  0.3462441E+00
         11   -1    0    0    0    0  0.00000000000E+00  0.00000000000E+00  0.39999999674E+01  0.40000000000E+01  0.51100000000E-03 0. -1.
    9000002   -1    0    0    0    0 -0.00000000000E+00 -0.00000000000E+00  0.00000000000E+00  0.93800000000E+00  0.93800000000E+00 0.  1.
         11    1    1    2    0    0  0.38311138686E+00  0.77384150280E-01  0.70645327417E+00  0.80736554990E+00  0.51100000000E-03 0. -1.
    9000002    1    1    2    0    0  0.23761917915E+00  0.30459094244E-01  0.21948858211E+00  0.99267812930E+00  0.93800000000E+00 0.  1.
         22    1    1    2    0    0 -0.62073056600E+00 -0.10784324452E+00  0.30740581111E+01  0.31379563208E+01  0.00000000000E+00 0. -1.
</event>
<event>
 5    1  0.6645559E+001  0.1597909E+01  0.7818608E-02  0.3355636E+00
         11   -1    0    0    0    0  0.00000000000E+00  0.00000000000E+00  0.39999999674E+01  0.40000000000E+01  0.51100000000E-03 0. -1.
    9000002   -1    0    0    0    0 -0.00000000000E+00 -0.00000000000E+00  0.00000000000E+00  0.93800000000E+00  0.93800000000E+00 0.  1.
         11    1    1    2    0    0 -0.29247369947E-01 -0.50336067649E-01  0.75617860096E+00  0.75841641994E+00  0.51100000000E-03 0. -1.
    9000002    1    1    2    0    0  0.23909455644E+00  0.43861917999E+00  0.17241345349E+00  0.10766259290E+01  0.93800000000E+00 0.  1.
         22    1    1    2    0    0 -0.20984718650E+00 -0.38828311234E+00  0.30714079129E+01  0.31029576511E+01  0.00000000000E+00 0. -1.
</event>
<event>
 5    1  0.6645559E+001  0.1578889E+01  0.7818608E-02  0.3376600E+00
         11   -1    0    0    0    0  0.00000000000E+00  0.00000000000E+00  0.39999999674E+01  0.40000000000E+01  0.51100000000E-03 0.  1.
    9000002   -1    0    0    0    0 -0.00000000000E+00 -0.00000000000E+00  0.00000000000E+00  0.93800000000E+00  0.93800000000E+00 0.  1.
         11    1    1    2    0    0 -0.78266667594E-01  0.30431170074E-01  0.26910017005E+00  0.28189872297E+00  0.51100000000E-03 0.  1.
    9000002    1    1    2    0    0  0.16489727852E+00  0.40735333505E+00  0.14899698222E+00  0.10465046358E+01  0.93800000000E+00 0.  1.
         22    1    1    2    0    0 -0.86630610922E-01 -0.43778450513E+00  0.35819028151E+01  0.36095966412E+01  0.00000000000E+00 0.  1.
</event>
<event>
 5    1  0.6645559E+001  0.1476272E+01  0.7818608E-02  0.3499670E+00
         11   -1    0    0    0    0  0.00000000000E+00  0.00000000000E+00  0.39999999674E+01  0.40000000000E+01  0.51100000000E-03 0. -1.
    9000002   -1    0    0    0    0 -0.00000000000E+00 -0.00000000000E+00  0.00000000000E+00  0.93800000000E+00  0.93800000000E+00 0. -1.
         11    1    1    2    0    0  0.15430359386E+00 -0.45119790953E+00  0.12001797878E+01  0.12914414183E+01  0.51100000000E-03 0. -1.
    9000002    1    1    2    0    0 -0.19956982631E+00  0.21036066983E+00  0.15923311231E+00  0.99462501026E+00  0.93800000000E+00 0. -1.
         22    1    1    2    0    0  0.45266232450E-01  0.24083723970E+00  0.26405870672E+01  0.26519335714E+01  0.00000000000E+00 0. -1.
</event>
<event>
 5    1  0.6645559E+001  0.1599106E+01  0.7818608E-02  0.3354335E+00
         11   -1    0    0    0    0  0.00000000000E+00  0.00000000000E+00  0.39999999674E+01  0.40000000000E+01  0.51100000000E-03 0.  1.
    9000002   -1    0    0    0    0 -0.00000000000E+00 -0.00000000000E+00  0.00000000000E+00  0.93800000000E+00  0.93800000000E+00 0.  1.
         11    1    1    2    0    0 -0.19019298354E+00 -0.65572305181E-02  0.13477520916E+01  0.13611217175E+01  0.51100000000E-03 0.  1.
    9000002    1    1    2    0    0  0.47255107988E+00 -0.16840646019E-01  0.15288888489E+00  0.10615117247E+01  0.93800000000E+00 0.  1.
         22    1    1    2    0    0 -0.28235809634E+00  0.23397876537E-01  0.24993589908E+01  0.25153665578E+01  0.00000000000E+00 0.  1.
</event>
<event>
 5    1  0.6645559E+001  0.1599616E+01  0.7818608E-02  0.3353780E+00
         11   -1    0    0    0    0  0.00000000000E+00  0.00000000000E+00  0.39999999674E+01  0.40000000000E+01  0.51100000000E-03 0.  1.
    9000002   -1    0    0    0    0 -0.00000000000E+00 -0.00000000000E+00  0.00000000000E+00  0.93800000000E+00  0.93800000000E+00 0. -1.
         11    1    1    2    0    0  0.13845718195E-01  0.37976580539E-02  0.98031501607E-01  0.99078567548E-01  0.51100000000E-03 0.  1.
    9000002    1    1    2    0    0 -0.43204856223E+00 -0.12681822583E+00  0.13776197994E+00  0.10495576143E+01  0.93800000000E+00 0. -1.
         22    1    1    2    0    0  0.41820284403E+00  0.12302056778E+00  0.37642064858E+01  0.37893638182E+01  0.00000000000E+00 0.  1.
</event>
<event>
 5    1  0.6645559E+001  0.1598262E+01  0.7818608E-02  0.3355252E+00
         11   -1    0    0    0    0  0.00000000000E+00  0.00000000000E+00  0.39999999674E+01  0.40000000000E+01  0.51100000000E-03 0.  1.
    9000002   -1    0    0    0    0 -0.00000000000E+00 -0.00000000000E+00  0.00000000000E+00  0.93800000000E+00  0.93800000000E+00 0. -1.
         11    1    1    2    0    0 -0.28761050568E-02 -0.43978646890E-02  0.11010610769E-01  0.12210973124E-01  0.51100000000E-03 0.  1.
    9000002    1    1    2    0    0  0.50053486573E+00 -0.11832002084E+00  0.18282485905E+00  0.10852666531E+01  0.93800000000E+00 0. -1.
         22    1    1    2    0    0 -0.49765876067E+00  0.12271788553E+00  0.38061644975E+01  0.38405223738E+01  0.00000000000E+00 0.  1.
</event>
<event>
 5    1  0.6645559E+001  0.1599630E+01  0.7818608E-02  0.3353765E+00
         11   -1    0    0    0    0  0.00000000000E+00  0.00000000000E+00  0.39999999674E+01  0.40000000000E+01  0.51100000000E-03 0. -1.
    9000002   -1    0    0    0    0 -0.00000000000E+00 -0.00000000000E+00  0.00000000000E+00  0.93800000000E+00  0.93800000000E+00 0.  1.
         11    1    1    2    0    0 -0.19107739143E-01 -0.45465438180E-01  0.35408791362E+00  0.35750625653E+00  0.51100000000E-03 0. -1.
    9000002    1    1    2    0    0  0.24556709290E+00  0.51432287580E+00  0.22527778901E+00  0.11204576297E+01  0.93800000000E+00 0.  1.
         22    1    1    2    0    0 -0.22645935376E+00 -0.46885743762E+00  0.34206342647E+01  0.34600361138E+01  0.00000000000E+00 0. -1.
</event>
<event>
 5    1  0.6645559E+001  0.1598964E+01  0.7818608E-02  0.3354488E+00
         11   -1    0    0    0    0  0.00000000000E+00  0.00000000000E+00  0.39999999674E+01  0.40000000000E+01  0.51100000000E-03 0. -1.
    9000002   -1    0    0    0    0 -0.00000000000E+00 -0.00000000000E+00  0.00000000000E+00  0.93800000000E+00  0.93800000000E+00 0.  1.
         11    1    1    2    0    0  0.36844787572E-01 -0.60926094085E-02  0.65280638906E+00  0.65387391826E+00  0.51100000000E-03 0. -1.
    9000002    1    1    2    0    0 -0.35968826083E+00  0.73499074772E-01  0.91125636229E-01  0.10113978646E+01  0.93800000000E+00 0.  1.
         22    1    1    2    0    0  0.32284347325E+00 -0.67406465363E-01  0.32560679421E+01  0.32727282171E+01  0.00000000000E+00 0. -1.
</event>
<event>
 5    1  0.6645559E+001  0.1544794E+01  0.7818608E-02  0.3415552E+00
         11   -1    0    0    0    0  0.00000000000E+00  0.00000000000E+00  0.39999999674E+01  0.40000000000E+01  0.51100000000E-03 0.  1.
    9000002   -1    0    0    0    0 -0.00000000000E+00 -0.00000000000E+00  0.00000000000E+00  0.93800000000E+00  0.93800000000E+00 0. -1.
         11    1    1    2    0    0  0.27953665307E+00  0.93348899842E-01  0.95608822832E+00  0.10004797444E+01  0.51100000000E-03 0.  1.
    9000002    1    1    2    0    0 -0.13737946225E+00 -0.37336532569E+00  0.15383134412E+00  0.10304284864E+01  0.93800000000E+00 0. -1.
         22    1    1    2    0    0 -0.14215719082E+00  0.28001642585E+00  0.28900803949E+01  0.29070917692E+01  0.00000000000E+00 0.  1.
</event>
<event>
 5    1  0.6645559E+001  0.1593315E+01  0.7818608E-02  0.3360651E+00
         11   -1    0    0    0    0  0.00000000000E+00  0.00000000000E+00  0.39999999674E+01  0.40000000000E+01  0.51100000000E-03 0. -1.
    9000002   -1    0    0    0    0 -0.00000000000E+00 -0.00000000000E+00  0.00000000000E+00  0.93800000000E+00  0.93800000000E+00 0. -1.
         11    1    1    2    0    0 -0.71418765451E-01 -0.73358863638E-01  0.14916235554E+01  0.14951331898E+01  0.51100000000E-03 0. -1.
    9000002    1    1    2    0    0  0.36622268561E+00  0.25866798538E-01  0.95748099476E-01  0.10118299488E+01  0.93800000000E+00 0. -1.
         22    1    1    2    0    0 -0.29480392016E+00  0.47492065100E-01  0.24126283125E+01  0.24310368614E+01  0.00000000000E+00 0. -1.
</event>
<event>
 5    1  0.6645559E+001  0.1598799E+01  0.7818608E-02  0.3354668E+00
         11   -1    0    0    0    0  0.00000000000E+00  0.00000000000E+00  0.39999999674E+01  0.40000000000E+01  0.51100000000E-03 0.  1.
    9000002   -1    0    0    0    0 -0.00000000000E+00 -0.00000000000E+00  0.00000000000E+00  0.93800000000E+00  0.93800000000E+00 0. -1.
         11    1    1    2    0    0 -0.16568522321E+00 -0.81478715951E-01  0.14596746458E+01  0.14713057830E+01  0.51100000000E-03 0.  1.
    9000002    1    1    2    0    0  0.37428876883E+00  0.15350960260E+00  0.11118788211E+00  0.10275524443E+01  0.93800000000E+00 0. -1.
         22    1    1    2    0    0 -0.20860354563E+00 -0.72030886648E-01  0.24291374394E+01  0.24391417727E+01  0.00000000000E+00 0.  1.
</event>
<event>
 5    1  0.6645559E+001  0.1597150E+01  0.7818608E-02  0.3356462E+00
         11   -1    0    0    0    0  0.00000000000E+00  0.00000000000E+00  0.39999999674E+01  0.40000000000E+01  0.51100000000E-03 0. -1.
    9000002   -1    0    0    0    0 -0.00000000000E+00 -0.00000000000E+00  0.00000000000E+00  0.93800000000E+00  0.93800000000E+00 0. -1.
         11    1    1    2    0    0  0.29294766706E+00  0.27748278330E+00  0.14338690708E+01  0.14895622861E+01  0.51100000000E-03 0. -1.
    9000002    1    1    2    0    0 -0.76287984432E+00 -0.53248612911E+00  0.67578044929E+00  0.14839307094E+01  0.93800000000E+00 0. -1.
         22    1    1    2    0    0  0.46993217726E+00  0.25500334581E+00  0.18903504472E+01  0.19645070046E+01  0.00000000000E+00 0. -1.
</event>
<event>
 5    1  0.6645559E+001  0.1599671E+01  0.7818608E-02  0.3353720E+00
         11   -1    0    0    0    0  0.00000000000E+00  0.00000000000E+00  0.39999999674E+01  0.40000000000E+01  0.51100000000E-03 0.  1.
    9000002   -1    0    0    0    0 -0.00000000000E+00 -0.00000000000E+00  0.00000000000E+00  0.93800000000E+00  0.93800000000E+00 0.  1.
         11    1    1    2    0    0  0.20546262568E-01 -0.88375774048E-01  0.94588958859E+00  0.95023144616E+00  0.51100000000E-03 0.  1.
    9000002    1    1    2    0    0 -0.90097974175E-01  0.35632539925E+00  0.90761317026E-01  0.10115172029E+01  0.93800000000E+00 0.  1.
         22    1    1    2    0    0  0.69551711608E-01 -0.26794962520E+00  0.29633490617E+01  0.29762513509E+01  0.00000000000E+00 0.  1.
</event>
<event>
 5    1  0.7389275E+001  0.1579962E+01  0.7818608E-02  0.3375403E+00
         11   -1    0    0    0    0  0.00000000000E+00  0.00000000000E+00  0.39999999674E+01  0.40000000000E+01  0.51100000000E-03 0. -1.
    9000002   -1    0    0    0    0 -0.00000000000E+00 -0.00000000000E+00  0.00000000000E+00  0.93800000000E+00  0.93800000000E+00 0.  1.
         11    1    1    2    0    0 -0.93217510052E-01 -0.99184923480E-01  0.97821422539E+00  0.98763884345E+00  0.51100000000E-03 0. -1.
    9000002    1    1    2    0    0  0.18444532546E+00 -0.15661576649E+00  0.54037703743E-01  0.97021268278E+00  0.93800000000E+00 0.  1.
         22    1    1    2    0    0 -0.91227815410E-01  0.25580068997E+00  0.29677480382E+01  0.29801484738E+01  0.00000000000E+00 0. -1.
</event>
<event>
 5    1  0.6645559E+001  0.1587502E+01  0.7818608E-02  0.3367041E+00
         11   -1    0    0    0    0  0.00000000000E+00  0.00000000000E+00  0.39999999674E+01  0.40000000000E+01  0.51100000000E-03 0.  1.
    9000002   -1    0    0    0    0 -0.00000000000E+00 -0.00000000000E+00  0.00000000000E+00  0.93800000000E+00  0.93800000000E+00 0. -1.
         11    1    1    2    0    0 -0.90660353940E-02 -0.48816445162E-01  0.54227853013E+00  0.54454706287E+00  0.51100000000E-03 0.  1.
    9000002    1    1    2    0    0 -0.31173995097E+00 -0.19164437845E+00  0.99917610225E-01  0.10117988405E+01  0.93800000000E+00 0. -1.
         22    1    1    2    0    0  0.32080598636E+00  0.24046082361E+00  0.33578038270E+01  0.33816540966E+01  0.00000000000E+00 0.  1.
</event>
<event>
 5    1  0.6645559E+001  0.1535285E+01  0.7818608E-02  0.3426744E+00
         11   -1    0    0    0    0  0.00000000000E+00  0.00000000000E+00  0.39999999674E+01  0.40000000000E+01  0.51100000000E-03 0. -1.
    9000002   -1    0    0    0    0 -0.00000000000E+00 -0.00000000000E+00  0.00000000000E+00  0.93800000000E+00  0.93800000000E+00 0. -1.
         11    1    1    2    0    0  0.16875817853E+00 -0.31738137037E-01  0.93655016744E+00  0.95216233354E+00  0.51100000000E-03 0. -1.
    9000002    1    1    2    0    0  0.37548214463E+00  0.89689975682E-03  0.14952836711E+00  0.10213669164E+01  0.93800000000E+00 0. -1.
         22    1    1    2    0    0 -0.54424032316E+00  0.30841237281E-01  0.29139214328E+01  0.29644707501E+01  0.00000000000E+00 0. -1.
</event>
<event>
 5    1  0.6645559E+001  0.1599677E+01  0.7818608E-02  0.3353714E+00
         11   -1    0    0    0    0  0.00000000000E+00  0.00000000000E+00  0.39999999674E+01  0.40000000000E+01  0.51100000000E-03 0. -1.
    9000002   -1    0    0    0    0 -0.00000000000E+00 -0.00000000000E+00  0.00000000000E+00  0.93800000000E+00  0.93800000000E+00 0. -1.
         11    1    1    2    0    0 -0.10000093077E+00  0.43339550274E-01  0.11905121704E+01  0.11954906908E+01  0.51100000000E-03 0. -1.
    9000002    1    1    2    0    0  0.33072919595E+00 -0.14230551062E+00  0.87018219398E-01  0.10084883886E+01  0.93800000000E+00 0. -1.
         22    1    1    2    0    0 -0.23072826518E+00  0.98965960341E-01  0.27224695776E+01  0.27340209206E+01  0.00000000000E+00 0.  1.
</event>
<event>
 5    1  0.6645559E+001  0.1599677E+01  0.7818608E-02  0.3353715E+00
         11   -1    0    0    0    0  0.00000000000E+00  0.00000000000E+00  0.39999999674E+01  0.40000000000E+01  0.51100000000E-03 0. -1.
    9000002   -1    0    0    0    0 -0.00000000000E+00 -0.00000000000E+00  0.00000000000E+00  0.93800000000E+00  0.93800000000E+00 0. -1.
         11    1    1    2    0    0 -0.15752379732E+00 -0.23049059227E-02  0.10440503887E+01  0.10558695632E+01  0.51100000000E-03 0. -1.
    9000002    1    1    2    0    0  0.56777571681E+00  0.98719726860E-02  0.22350150745E+00  0.11190458633E+01  0.93800000000E+00 0. -1.
         22    1    1    2    0    0 -0.41025191949E+00 -0.75670667633E-02  0.27324480712E+01  0.27630845734E+01  0.00000000000E+00 0. -1.
</event>
<event>
 5    1  0.6645559E+001  0.1599671E+01  0.7818608E-02  0.3353720E+00
         11   -1    0    0    0    0  0.00000000000E+00  0.00000000000E+00  0.39999999674E+01  0.40000000000E+01  0.51100000000E-03 0. -1.
    9000002   -1    0    0    0    0 -0.00000000000E+00 -0.00000000000E+00  0.00000000000E+00  0.93800000000E+00  0.93800000000E+00 0.  1.
         11    1    1    2    0    0  0.15253445395E+00 -0.43436526964E-04  0.84725354564E+00  0.86087489989E+00  0.51100000000E-03 0. -1.
    9000002    1    1    2    0    0 -0.66403621853E+00 -0.10259526832E-01  0.31230514185E+00  0.11909776904E+01  0.93800000000E+00 0.  1.
         22    1    1    2    0    0  0.51150176457E+00  0.10302963359E-01  0.28404412799E+01  0.28861474097E+01  0.00000000000E+00 0. -1.
</event>
<event>
 5    1  0.6645559E+001  0.1599381E+01  0.7818608E-02  0.3354036E+00
         11   -1    0    0    0    0  0.00000000000E+00  0.00000000000E+00  0.39999999674E+01  0.40000000000E+01  0.51100000000E-03 0.  1.
    9000002   -1    0    0    0    0 -0.00000000000E+00 -0.00000000000E+00  0.00000000000E+00  0.93800000000E+00  0.93800000000E+00 0.  1.
         11    1    1    2    0    0  0.21781013482E-01 -0.16379951187E+00  0.13414019368E+01  0.13515413829E+01  0.51100000000E-03 0.  1.
    9000002    1    1    2    0    0 -0.72258503611E-01  0.41709473295E+00  0.12149180809E+00  0.10362401107E+01  0.93800000000E+00 0.  1.
         22    1    1    2    0    0  0.50477490129E-01 -0.25329522109E+00  0.25371062225E+01  0.25502185064E+01  0.00000000000E+00 0.  1.
</event>
<event>
 5    1  0.6645559E+001  0.1556431E+01  0.7818608E-02  0.3402053E+00
         11   -1    0    0    0    0  0.00000000000E+00  0.00000000000E+00  0.39999999674E+01  0.40000000000E+01  0.51100000000E-03 0. -1.
    9000002   -1    0    0    0    0 -0.00000000000E+00 -0.00000000000E+00  0.00000000000E+00  0.93800000000E+00  0.93800000000E+00 0. -1.
         11    1    1    2    0    0 -0.23396572144E-02  0.11380899310E+00  0.26552041966E+00  0.28889325933E+00  0.51100000000E-03 0. -1.
    9000002    1    1    2    0    0  0.32306030577E+00  0.18521576608E+00  0.12942350802E+00  0.10174808527E+01  0.93800000000E+00 0. -1.
         22    1    1    2    0    0 -0.32072064856E+00 -0.29902475918E+00  0.36050560397E+01  0.36316258880E+01  0.00000000000E+00 0. -1.
</event>
<event>
 5    1  0.6645559E+001  0.1599677E+01  0.7818608E-02  0.3353714E+00
         11   -1    0    0    0    0  0.00000000000E+00  0.00000000000E+00  0.39999999674E+01  0.40000000000E+01  0.51100000000E-03 0.  1.
    9000002   -1    0    0    0    0 -0.00000000000E+00 -0.00000000000E+00  0.00000000000E+00  0.93800000000E+00  0.93800000000E+00 0.  1.
         11    1    1    2    0    0 -0.83291318474E-01 -0.28934901302E-01  0.77784793945E+00  0.78282970707E+00  0.51100000000E-03 0.  1.
    9000002    1    1    2    0    0  0.41459534006E+00  0.14618465243E+00  0.13106076612E+00  0.10441648208E+01  0.93800000000E+00 0.  1.
         22    1    1    2    0    0 -0.33130402158E+00 -0.11724975112E+00  0.30910912618E+01  0.31110054721E+01  0.00000000000E+00 0.  1.
</event>
<event>
 5    1  0.6645559E+001  0.1599643E+01  0.7818608E-02  0.3353751E+00
         11   -1    0    0    0    0  0.00000000000E+00  0.00000000000E+00  0.39999999674E+01  0.40000000000E+01  0.51100000000E-03 0.  1.
    9000002   -1    0    0    0    0 -0.00000000000E+00 -0.00000000000E+00  0.00000000000E+00  0.93800000000E+00  0.93800000000E+00 0.  1.
         11    1    1    2    0    0  0.51552527006E-01  0.99946419176E-01  0.12505891610E+01  0.12556354807E+01  0.51100000000E-03 0.  1.
    9000002    1    1    2    0    0 -0.14863531177E+00 -0.32884233312E+00  0.87454645150E-01  0.10088221106E+01  0.93800000000E+00 0.  1.
         22    1    1    2    0    0  0.97082784768E-01  0.22889591394E+00  0.26619561612E+01  0.26735424086E+01  0.00000000000E+00 0.  1.
</event>
<event>
 5    1  0.6645559E+001  0.1599664E+01  0.7818608E-02  0.3353728E+00
         11   -1    0    0    0    0  0.00000000000E+00  0.00000000000E+00  0.39999999674E+01  0.40000000000E+01  0.51100000000E-03 0.  1.
    9000002   -1    0    0    0    0 -0.00000000000E+00 -0.00000000000E+00  0.00000000000E+00  0.93800000000E+00  0.93800000000E+00 0. -1.
         11    1    1    2    0    0 -0.11050834893E+00  0.11944083055E-01  0.98494096672E+00  0.99119308177E+00  0.51100000000E-03 0.  1.
    9000002    1    1    2    0    0  0.43702560368E+00 -0.32521339790E-01  0.13022497949E+00  0.10434805035E+01  0.93800000000E+00 0. -1.
         22    1    1    2    0    0 -0.32651725475E+00  0.20577256736E-01  0.28848340211E+01  0.29033264148E+01  0.00000000000E+00 0.  1.
</event>
<event>
 5    1  0.6645559E+001  0.1599610E+01  0.7818608E-02  0.3353787E+00
         11   -1    0    0    0    0  0.00000000000E+00  0.00000000000E+00  0.39999999674E+01  0.40000000000E+01  0.51100000000E-03 0.  1.
    9000002   -1    0    0    0    0 -0.00000000000E+00 -0.00000000000E+00  0.00000000000E+00  0.93800000000E+00  0.93800000000E+00 0.  1.
         11    1    1    2    0    0  0.13903655491E-01 -0.24144975593E-01  0.30927838332E+00  0.31053127217E+00  0.51100000000E-03 0.  1.
    9000002    1    1    2    0    0 -0.15465572150E+00  0.36790726766E+00  0.10747711110E+00  0.10250216969E+01  0.93800000000E+00 0.  1.
         22    1    1    2    0    0  0.14075206601E+00 -0.34376229207E+00  0.35832444729E+01  0.36024470309E+01  0.00000000000E+00 0.  1.
</event>
<event>
 5    1  0.6645559E+001  0.1598235E+01  0.7818608E-02  0.3355282E+00
         11   -1    0    0    0    0  0.00000000000E+00  0.00000000000E+00  0.39999999674E+01  0.40000000000E+01  0.51100000000E-03 0.  1.
    9000002   -1    0    0    0    0 -0.00000000000E+00 -0.00000000000E+00  0.00000000000E+00  0.93800000000E+00  0.93800000000E+00 0. -1.
         11    1    1    2    0    0 -0.30996393025E-01 -0.79551034813E-02  0.25285907103E+00  0.25487650142E+00  0.51100000000E-03 0.  1.
    9000002    1    1    2    0    0  0.55055742067E+00  0.43537201567E+00  0.35389528283E+00  0.12238252068E+01  0.93800000000E+00 0. -1.
         22    1    1    2    0    0 -0.51956102765E+00 -0.42741691219E+00  0.33932456135E+01  0.34592982918E+01  0.00000000000E+00 0.  1.
</event>
<event>
 5    1  0.6645559E+001  0.1598983E+01  0.7818608E-02  0.3354468E+00
         11   -1    0    0    0    0  0.00000000000E+00  0.00000000000E+00  0.39999999674E+01  0.40000000000E+01  0.51100000000E-03 0.  1.
    9000002   -1    0    0    0    0 -0.00000000000E+00 -0.00000000000E+00  0.00000000000E+00  0.93800000000E+00  0.93800000000E+00 0. -1.
         11    1    1    2    0    0  0.78222812912E-01  0.79496418296E-02  0.65165187108E+00  0.65637826553E+00  0.51100000000E-03 0.  1.
    9000002    1    1    2    0    0 -0.35780151927E+00 -0.13656889217E+00  0.99294083154E-01  0.10180256895E+01  0.93800000000E+00 0. -1.
         22    1    1    2    0    0  0.27957870635E+00  0.12861925035E+00  0.32490540131E+01  0.32635960450E+01  0.00000000000E+00 0.  1.
</event>
<event>
 5    1  0.6645559E+001  0.1599667E+01  0.7818608E-02  0.3353725E+00
         11   -1    0    0    0    0  0.00000000000E+00  0.00000000000E+00  0.39999999674E+01  0.40000000000E+01  0.51100000000E-03 0. -1.
    9000002   -1    0    0    0    0 -0.00000000000E+00 -0.00000000000E+00  0.00000000000E+00  0.93800000000E+00  0.93800000000E+00 0.  1.
         11    1    1    2    0    0  0.26196806381E-01  0.12836026572E+00  0.77754109560E+00  0.78850050535E+00  0.51100000000E-03 0. -1.
    9000002    1    1    2    0    0 -0.11995103991E+00 -0.62717172757E+00  0.28694701926E+00  0.11704337742E+01  0.93800000000E+00 0.  1.
         22    1    1    2    0    0  0.93754233526E-01  0.49881146186E+00  0.29355118525E+01  0.29790657205E+01  0.00000000000E+00 0. -1.
</event>
<event>
 5    1  0.6645559E+001  0.1566286E+01  0.7818608E-02  0.3390788E+00
         11   -1    0    0    0    0  0.00000000000E+00  0.00000000000E+00  0.39999999674E+01  0.40000000000E+01  0.51100000000E-03 0. -1.
    9000002   -1    0    0    0    0 -0.00000000000E+00 -0.00000000000E+00  0.00000000000E+00  0.93800000000E+00  0.93800000000E+00 0.  1.
         11    1    1    2    0    0 -0.14551142005E+00  0.63321093720E-01  0.68204288218E+00  0.70026130018E+00  0.51100000000E-03 0. -1.
    9000002    1    1    2    0    0  0.34963447799E+00  0.46978552231E+00  0.27200966820E+00  0.11387607144E+01  0.93800000000E+00 0.  1.
         22    1    1    2    0    0 -0.20412305794E+00 -0.53310661603E+00  0.30459474170E+01  0.30989779854E+01  0.00000000000E+00 0. -1.
</event>
<event>
 5    1  0.6645559E+001  0.1598665E+01  0.7818608E-02  0.3354814E+00
         11   -1    0    0    0    0  0.00000000000E+00  0.00000000000E+00  0.39999999674E+01  0.40000000000E+01  0.51100000000E-03 0. -1.
    9000002   -1    0    0    0    0 -0.00000000000E+00 -0.00000000000E+00  0.00000000000E+00  0.93800000000E+00  0.93800000000E+00 0. -1.
         11    1    1    2    0    0  0.18473139906E-01 -0.42985759919E-01  0.22029496444E+00  0.22520915819E+00  0.51100000000E-03 0. -1.
    9000002    1    1    2    0    0 -0.41558095814E+00  0.43967916542E+00  0.25666253163E+00  0.11453143483E+01  0.93800000000E+00 0. -1.
         22    1    1    2    0    0  0.39710781823E+00 -0.39669340551E+00  0.35230424713E+01  0.35674764935E+01  0.00000000000E+00 0. -1.
</event>
<event>
 5    1  0.6645559E+001  0.1596777E+01  0.7818608E-02  0.3356868E+00
         11   -1    0    0    0    0  0.00000000000E+00  0.00000000000E+00  0.39999999674E+01  0.40000000000E+01  0.51100000000E-03 0. -1.
    9000002   -1    0    0    0    0 -0.00000000000E+00 -0.00000000000E+00  0.00000000000E+00  0.93800000000E+00  0.93800000000E+00 0.  1.
         11    1    1    2    0    0  0.12871432052E+00  0.35567029064E-01  0.92755334602E+00  0.93711678071E+00  0.51100000000E-03 0. -1.
    9000002    1    1    2    0    0 -0.39056073067E+00  0.28409213886E-01  0.10572614274E+00  0.10219426525E+01  0.93800000000E+00 0.  1.
         22    1    1    2    0    0  0.26184641015E+00 -0.63976242951E-01  0.29667204786E+01  0.29789405668E+01  0.00000000000E+00 0. -1.
</event>
<event>
 5    1  0.6645559E+001  0.1599665E+01  0.7818608E-02  0.3353727E+00
         11   -1    0    0    0    0  0.00000000000E+00  0.00000000000E+00  0.39999999674E+01  0.40000000000E+01  0.51100000000E-03 0.  1.
    9000002   -1    0    0    0    0 -0.00000000000E+00 -0.00000000000E+00  0.00000000000E+00  0.93800000000E+00  0.93800000000E+00 0. -1.
         11    1    1    2    0    0 -0.45656214126E-01 -0.51350982581E-01  0.51593954163E+00  0.52049523056E+00  0.51100000000E-03 0.  1.
    9000002    1    1    2    0    0  0.34236327574E+00  0.39946965446E+00  0.19034841249E+00  0.10921836547E+01  0.93800000000E+00 0. -1.
         22    1    1    2    0    0 -0.29670706161E+00 -0.34811867188E+00  0.32937120132E+01  0.33253211148E+01  0.00000000000E+00 0.  1.
</event>
<event>
 5    1  0.6645559E+001  0.1584593E+01  0.7818608E-02  0.3370257E+00
         11   -1    0    0    0    0  0.00000000000E+00  0.00000000000E+00  0.39999999674E+01  0.40000000000E+01  0.51100000000E-03 0.  1.
    9000002   -1    0    0    0    0 -0.00000000000E+00 -0.00000000000E+00  0.00000000000E+00  0.93800000000E+00  0.93800000000E+00 0.  1.
         11    1    1    2    0    0 -0.15437605877E+00 -0.60944115384E-01  0.83712873535E+00  0.85342306823E+00  0.51100000000E-03 0.  1.
    9000002    1    1    2    0    0  0.43655795936E+00 -0.21196589628E+00  0.17436959616E+00  0.10704023305E+01  0.93800000000E+00 0.  1.
         22    1    1    2    0    0 -0.28218190060E+00  0.27291001166E+00  0.29885016358E+01  0.30141746013E+01  0.00000000000E+00 0.  1.
</event>
<event>
 5    1  0.6645559E+001  0.1599675E+01  0.7818608E-02  0.3353716E+00
         11   -1    0    0    0    0  0.00000000000E+00  0.00000000000E+00  0.39999999674E+01  0.40000000000E+01  0.51100000000E-03 0.  1.
    9000002   -1    0    0    0    0 -0.00000000000E+00 -0.00000000000E+00  0.00000000000E+00  0.93800000000E+00  0.93800000000E+00 0. -1.
         11    1    1    2    0    0 -0.78515615111E-01 -0.23655550628E+00  0.13694035740E+01  0.13919014401E+01  0.51100000000E-03 0.  1.
    9000002    1    1    2    0    0  0.21472497417E+00  0.63818524034E+00  0.32178025714E+00  0.11986549751E+01  0.93800000000E+00 0. -1.
         22    1    1    2    0    0 -0.13620935906E+00 -0.40162973406E+00  0.23088161363E+01  0.23474435848E+01  0.00000000000E+00 0.  1.
</event>
<event>
 5    1  0.6645559E+001  0.1599675E+01  0.7818608E-02  0.3353716E+00
         11   -1    0    0    0    0  0.00000000000E+00  0.00000000000E+00  0.39999999674E+01  0.40000000000E+01  0.51100000000E-03 0.  1.
    9000002   -1    0    0    0    0 -0.00000000000E+00 -0.00000000000E+00  0.00000000000E+00  0.93800000000E+00  0.93800000000E+00 0.  1.
         11    1    1    2    0    0 -0.72992512750E-01  0.32676420310E-01  0.57708559581E+00  0.58260080791E+00  0.51100000000E-03 0.  1.
    9000002    1    1    2    0    0  0.48211070907E+00 -0.22222723022E+00  0.19396195003E+00  0.10951168503E+01  0.93800000000E+00 0.  1.
         22    1    1    2    0    0 -0.40911819632E+00  0.18955080991E+00  0.32289524215E+01  0.32602823418E+01  0.00000000000E+00 0.  1.
</event>
<event>
 5    1  0.6645559E+001  0.1599544E+01  0.7818608E-02  0.3353859E+00
         11   -1    0    0    0    0  0.00000000000E+00  0.00000000000E+00  0.39999999674E+01  0.40000000000E+01  0.51100000000E-03 0.  1.
    9000002   -1    0    0    0    0 -0.00000000000E+00 -0.00000000000E+00  0.00000000000E+00  0.93800000000E+00  0.93800000000E+00 0. -1.
         11    1    1    2    0    0 -0.12358027763E+00 -0.24754852439E-01  0.11912691896E+01  0.11979179567E+01  0.51100000000E-03 0.  1.
    9000002    1    1    2    0    0  0.37344800723E+00  0.10931092024E+00  0.10210027070E+00  0.10206276288E+01  0.93800000000E+00 0. -1.
         22    1    1    2    0    0 -0.24986772960E+00 -0.84556067799E-01  0.27066305070E+01  0.27194544145E+01  0.00000000000E+00 0. -1.
</event>
<event>
 5    1  0.7392068E+001  0.1564638E+01  0.7818608E-02  0.3392661E+00
         11   -1    0    0    0    0  0.00000000000E+00  0.00000000000E+00  0.39999999674E+01  0.40000000000E+01  0.51100000000E-03 0. -1.
    9000002   -1    0    0    0    0 -0.00000000000E+00 -0.00000000000E+00  0.00000000000E+00  0.93800000000E+00  0.93800000000E+00 0. -1.
         11    1    1    2    0    0  0.16059070045E+00  0.81703924706E-01  0.12037470245E+01  0.12171573704E+01  0.51100000000E-03 0. -1.
    9000002    1    1    2    0    0  0.87523148150E-01  0.23406456042E-01  0.31398046060E-01  0.94288811687E+00  0.93800000000E+00 0. -1.
         22    1    1    2    0    0 -0.24811384860E+00 -0.10511038075E+00  0.27648548968E+01  0.27779545127E+01  0.00000000000E+00 0. -1.
</event>
<event>
 5    1  0.6645559E+001  0.1599642E+01  0.7818608E-02  0.3353752E+00
         11   -1    0    0    0    0  0.00000000000E+00  0.00000000000E+00  0.39999999674E+01  0.40000000000E+01  0.51100000000E-03 0. -1.
    9000002   -1    0    0    0    0 -0.00000000000E+00 -0.00000000000E+00  0.00000000000E+00  0.93800000000E+00  0.93800000000E+00 0.  1.
         11    1    1    2    0    0 -0.52054377430E-01 -0.46583761896E-01  0.49770352632E+00  0.50258209908E+00  0.51100000000E-03 0. -1.
    9000002    1    1    2    0    0  0.39659685531E+00  0.32112859191E+00  0.17861133812E+00  0.10826627583E+01  0.93800000000E+00 0.  1.
         22    1    1    2    0    0 -0.34454247788E+00 -0.27454483001E+00  0.33236851029E+01  0.33527551426E+01  0.00000000000E+00 0. -1.
</event>
<event>
 5    1  0.6645559E+001  0.1538055E+01  0.7818608E-02  0.3423468E+00
         11   -1    0    0    0    0  0.00000000000E+00  0.00000000000E+00  0.39999999674E+01  0.40000000000E+01  0.51100000000E-03 0.  1.
    9000002   -1    0    0    0    0 -0.00000000000E+00 -0.00000000000E+00  0.00000000000E+00  0.93800000000E+00  0.93800000000E+00 0. -1.
         11    1    1    2    0    0  0.93836831994E-01 -0.13142616546E+00  0.55844231906E+00  0.58132286454E+00  0.51100000000E-03 0.  1.
    9000002    1    1    2    0    0  0.23511535454E+00 -0.24749381460E+00  0.12918360282E+00  0.10065112128E+01  0.93800000000E+00 0. -1.
         22    1    1    2    0    0 -0.32895218653E+00  0.37891998005E+00  0.33123740455E+01  0.33501659227E+01  0.00000000000E+00 0.  1.
</event>
<event>
 5    1  0.6645559E+001  0.1599672E+01  0.7818608E-02  0.3353720E+00
         11   -1    0    0    0    0  0.00000000000E+00  0.00000000000E+00  0.39999999674E+01  0.40000000000E+01  0.51100000000E-03 0. -1.
    9000002   -1    0    0    0    0 -0.00000000000E+00 -0.00000000000E+00  0.00000000000E+00  0.93800000000E+00  0.93800000000E+00 0.  1.
         11    1    1    2    0    0 -0.45337800433E-01 -0.26496850222E-01  0.38164593014E+00  0.38524210094E+00  0.51100000000E-03 0. -1.
    9000002    1    1    2    0    0  0.46694194672E+00  0.25907011699E+00  0.19637349188E+00  0.10970682091E+01  0.93800000000E+00 0.  1.
         22    1    1    2    0    0 -0.42160414628E+00 -0.23257326677E+00  0.34219805453E+01  0.34556896900E+01  0.00000000000E+00 0. -1.
</event>
<event>
 5    1  0.6645559E+001  0.1598165E+01  0.7818608E-02  0.3355357E+00
         11   -1    0    0    0    0  0.00000000000E+00  0.00000000000E+00  0.39999999674E+01  0.40000000000E+01  0.51100000000E-03 0.  1.
    9000002   -1    0    0    0    0 -0.00000000000E+00 -0.00000000000E+00  0.00000000000E+00  0.93800000000E+00  0.93800000000E+00 0.  1.
         11    1    1    2    0    0  0.14684855175E+00  0.22326071567E-01  0.95751692463E+00  0.96896949007E+00  0.51100000000E-03 0.  1.
    9000002    1    1    2    0    0 -0.51904859045E+00  0.59075053247E-01  0.18893103067E+00  0.10901560602E+01  0.93800000000E+00 0.  1.
         22    1    1    2    0    0  0.37220003870E+00 -0.81401124815E-01  0.28535520121E+01  0.28788744498E+01  0.00000000000E+00 0. -1.
</event>
<event>
 5    1  0.6645559E+001  0.1576089E+01  0.7818608E-02  0.3379732E+00
         11   -1    0    0    0    0  0.00000000000E+00  0.00000000000E+00  0.39999999674E+01  0.40000000000E+01  0.51100000000E-03 0. -1.
    9000002   -1    0    0    0    0 -0.00000000000E+00 -0.00000000000E+00  0.00000000000E+00  0.93800000000E+00  0.93800000000E+00 0.  1.
         11    1    1    2    0    0 -0.74298772478E-01  0.17744573867E+00  0.13361923371E+01  0.13499694517E+01  0.51100000000E-03 0. -1.
    9000002    1    1    2    0    0  0.56135942932E-01 -0.89208963053E+00  0.64695199293E+00  0.14482285849E+01  0.93800000000E+00 0.  1.
         22    1    1    2    0    0  0.18162829546E-01  0.71464389186E+00  0.20168556374E+01  0.21398019634E+01  0.00000000000E+00 0. -1.
</event>
<event>
 5    1  0.6645559E+001  0.1599676E+01  0.7818608E-02  0.3353715E+00
         11   -1    0    0    0    0  0.00000000000E+00  0.00000000000E+00  0.39999999674E+01  0.40000000000E+01  0.51100000000E-03 0.  1.
    9000002   -1    0    0    0    0 -0.00000000000E+00 -0.00000000000E+00  0.00000000000E+00  0.93800000000E+00  0.93800000000E+00 0.  1.
         11    1    1    2    0    0  0.53097049580E-01 -0.14547181511E+00  0.11238438174E+01  0.11344631032E+01  0.51100000000E-03 0.  1.
    9000002    1    1    2    0    0 -0.18110541714E+00  0.49602365083E+00  0.19181484967E+00  0.10933780549E+01  0.93800000000E+00 0.  1.
         22    1    1    2    0    0  0.12800836756E+00 -0.35055183572E+00  0.26843413003E+01  0.27101588419E+01  0.00000000000E+00 0.  1.
</event>
<event>
 5    1  0.6645559E+001  0.1599523E+01  0.7818608E-02  0.3353881E+00
         11   -1    0    0    0    0  0.00000000000E+00  0.00000000000E+00  0.39999999674E+01  0.40000000000E+01  0.51100000000E-03 0. -1.
    9000002   -1    0    0    0    0 -0.00000000000E+00 -0.00000000000E+00  0.00000000000E+00  0.93800000000E+00  0.93800000000E+00 0. -1.
         11    1    1    2    0    0  0.20837459976E+00 -0.13567750877E+00  0.83581366911E+00  0.87201669182E+00  0.51100000000E-03 0. -1.
    9000002    1    1    2    0    0 -0.83436249065E+00  0.48332964256E+00  0.73386847184E+00  0.15323756860E+01  0.93800000000E+00 0. -1.
         22    1    1    2    0    0  0.62598789089E+00 -0.34765213379E+00  0.24303178264E+01  0.25336076222E+01  0.00000000000E+00 0. -1.
</event>
<event>
 5    1  0.6645559E+001  0.1513524E+01  0.7818608E-02  0.3452924E+00
         11   -1    0    0    0    0  0.00000000000E+00  0.00000000000E+00  0.39999999674E+01  0.40000000000E+01  0.51100000000E-03 0. -1.
    9000002   -1    0    0    0    0 -0.00000000000E+00 -0.00000000000E+00  0.00000000000E+00  0.93800000000E+00  0.93800000000E+00 0.  1.
         11    1    1    2    0    0 -0.17563494888E+00 -0.24110244613E+00  0.95363592564E+00  0.99919956195E+00  0.51100000000E-03 0. -1.
    9000002    1    1    2    0    0 -0.19453290244E+00  0.13573786347E+00  0.10595801348E+00  0.97331337109E+00  0.93800000000E+00 0.  1.
         22    1    1    2    0    0  0.37016785132E+00  0.10536458266E+00  0.29404060282E+01  0.29654870670E+01  0.00000000000E+00 0. -1.
</event>
<event>
 5    1  0.6645559E+001  0.1580025E+01  0.7818608E-02  0.3375333E+00
         11   -1    0    0    0    0  0.00000000000E+00  0.00000000000E+00  0.39999999674E+01  0.40000000000E+01  0.51100000000E-03 0.  1.
    9000002   -1    0    0    0    0 -0.00000000000E+00 -0.00000000000E+00  0.00000000000E+00  0.93800000000E+00  0.93800000000E+00 0.  1.
         11    1    1    2    0    0 -0.18739254481E+00  0.49372300120E-01  0.45768835945E+00  0.49702362657E+00  0.51100000000E-03 0.  1.
    9000002    1    1    2    0    0  0.58995123481E+00 -0.26220783802E+00  0.31468028686E+00  0.11813818573E+01  0.93800000000E+00 0.  1.
         22    1    1    2    0    0 -0.40255869000E+00  0.21283553790E+00  0.32276313210E+01  0.32595945161E+01  0.00000000000E+00 0.  1.
</event>
<event>
 5    1  0.6645559E+001  0.1473915E+01  0.7818608E-02  0.3502713E+00
         11   -1    0    0    0    0  0.00000000000E+00  0.00000000000E+00  0.39999999674E+01  0.40000000000E+01  0.51100000000E-03 0. -1.
    9000002   -1    0    0    0    0 -0.00000000000E+00 -0.00000000000E+00  0.00000000000E+00  0.93800000000E+00  0.93800000000E+00 0. -1.
         11    1    1    2    0    0  0.22786717967E+00 -0.18392200838E+00  0.39339736595E+00  0.49042074324E+00  0.51100000000E-03 0. -1.
    9000002    1    1    2    0    0  0.40641917418E+00  0.82187312866E-01  0.28499572604E+00  0.10644237236E+01  0.93800000000E+00 0. -1.
         22    1    1    2    0    0 -0.63428635385E+00  0.10173469552E+00  0.33216068754E+01  0.33831555331E+01  0.00000000000E+00 0. -1.
</event>
<event>
 5    1  0.6645559E+001  0.1592786E+01  0.7818608E-02  0.3361231E+00
         11   -1    0    0    0    0  0.00000000000E+00  0.00000000000E+00  0.39999999674E+01  0.40000000000E+01  0.51100000000E-03 0. -1.
    9000002   -1    0    0    0    0 -0.00000000000E+00 -0.00000000000E+00  0.00000000000E+00  0.93800000000E+00  0.93800000000E+00 0. -1.
         11    1    1    2    0    0 -0.14775466341E+00  0.18880823674E+00  0.59318535620E+00  0.63980396900E+00  0.51100000000E-03 0. -1.
    9000002    1    1    2    0    0  0.59044321953E+00 -0.68853667763E+00  0.64253691038E+00  0.14544427225E+01  0.93800000000E+00 0. -1.
         22    1    1    2    0    0 -0.44268855613E+00  0.49972844090E+00  0.27642777008E+01  0.28437533085E+01  0.00000000000E+00 0. -1.
</event>
<event>
 5    1  0.6645559E+001  0.1599184E+01  0.7818608E-02  0.3354250E+00
         11   -1    0    0    0    0  0.00000000000E+00  0.00000000000E+00  0.39999999674E+01  0.40000000000E+01  0.51100000000E-03 0. -1.
    9000002   -1    0    0    0    0 -0.00000000000E+00 -0.00000000000E+00  0.00000000000E+00  0.93800000000E+00  0.93800000000E+00 0. -1.
         11    1    1    2    0    0  0.19571622468E+00 -0.11457934736E+00  0.12482314085E+01  0.12686666929E+01  0.51100000000E-03 0. -1.
    9000002    1    1    2    0    0 -0.51413016405E+00  0.32002892294E+00  0.25668130143E+00  0.11456341596E+01  0.93800000000E+00 0. -1.
         22    1    1    2    0    0  0.31841393937E+00 -0.20544957558E+00  0.24950872574E+01  0.25236991475E+01  0.00000000000E+00 0. -1.
</event>
<event>
 5    1  0.6645559E+001  0.1599644E+01  0.7818608E-02  0.3353750E+00
         11   -1    0    0    0    0  0.00000000000E+00  0.00000000000E+00  0.39999999674E+01  0.40000000000E+01  0.51100000000E-03 0. -1.
    9000002   -1    0    0    0    0 -0.00000000000E+00 -0.00000000000E+00  0.00000000000E+00  0.93800000000E+00  0.93800000000E+00 0.  1.
         11    1    1    2    0    0 -0.45072490145E-01 -0.87707336999E-01  0.88385770674E+00  0.88934178650E+00  0.51100000000E-03 0. -1.
    9000002    1    1    2    0    0  0.21875728164E+00  0.37026335616E+00  0.12528405620E+00  0.10394661110E+01  0.93800000000E+00 0.  1.
         22    1    1    2    0    0 -0.17368479150E+00 -0.28255601916E+00  0.29908582044E+01  0.30091921025E+01  0.00000000000E+00 0. -1.
</event>
<event>
 5    1  0.6645559E+001  0.1321340E+01  0.7818608E-02  0.3741904E+00
         11   -1    0    0    0    0  0.00000000000E+00  0.00000000000E+00  0.39999999674E+01  0.40000000000E+01  0.51100000000E-03 0. -1.
    9000002   -1    0    0    0    0 -0.00000000000E+00 -0.00000000000E+00  0.00000000000E+00  0.93800000000E+00  0.93800000000E+00 0. -1.
         11    1    1    2    0    0 -0.25640059945E-01 -0.52150584903E+00  0.22478011240E+00  0.56846470717E+00  0.51100000000E-03 0. -1.
    9000002    1    1    2    0    0  0.98080597708E-02  0.80413999369E+00  0.10266366348E+01  0.16064134298E+01  0.93800000000E+00 0. -1.
         22    1    1    2    0    0  0.15832000175E-01 -0.28263414466E+00  0.27485832201E+01  0.27631218630E+01  0.00000000000E+00 0. -1.
</event>
<event>
 5    1  0.6645559E+001  0.1599671E+01  0.7818608E-02  0.3353721E+00
         11   -1    0    0    0    0  0.00000000000E+00  0.00000000000E+00  0.39999999674E+01  0.40000000000E+01  0.51100000000E-03 0.  1.
    9000002   -1    0    0    0    0 -0.00000000000E+00 -0.00000000000E+00  0.00000000000E+00  0.93800000000E+00  0.93800000000E+00 0. -1.
         11    1    1    2    0    0 -0.77871248871E-01  0.21017934993E+00  0.14468637924E+01  0.14641223943E+01  0.51100000000E-03 0.  1.
    9000002    1    1    2    0    0  0.19842953211E+00 -0.54137773781E+00  0.23083947096E+00  0.11249866646E+01  0.93800000000E+00 0. -1.
         22    1    1    2    0    0 -0.12055828324E+00  0.33119838788E+00  0.23222967040E+01  0.23488909411E+01  0.00000000000E+00 0.  1.
</event>
<event>
 5    1  0.6645559E+001  0.1599677E+01  0.7818608E-02  0.3353714E+00
         11   -1    0    0    0    0  0.00000000000E+00  0.00000000000E+00  0.39999999674E+01  0.40000000000E+01  0.51100000000E-03 0. -1.
    9000002   -1    0    0    0    0 -0.00000000000E+00 -0.00000000000E+00  0.00000000000E+00  0.93800000000E+00  0.93800000000E+00 0.  1.
         11    1    1    2    0    0 -0.21959544569E-01 -0.18509279830E+00  0.13681299321E+01  0.13807683867E+01  0.51100000000E-03 0. -1.
    9000002    1    1    2    0    0  0.60449396857E-01  0.51579127744E+00  0.18523586662E+00  0.10880492166E+01  0.93800000000E+00 0.  1.
         22    1    1    2    0    0 -0.38489852287E-01 -0.33069847914E+00  0.24466341687E+01  0.24691823967E+01  0.00000000000E+00 0. -1.
</event>
<event>
 5    1  0.6645559E+001  0.1599651E+01  0.7818608E-02  0.3353742E+00
         11   -1    0    0    0    0  0.00000000000E+00  0.00000000000E+00  0.39999999674E+01  0.40000000000E+01  0.51100000000E-03 0.  1.
    9000002   -1    0    0    0    0 -0.00000000000E+00 -0.00000000000E+00  0.00000000000E+00  0.93800000000E+00  0.93800000000E+00 0. -1.
         11    1    1    2    0    0  0.39873436128E-01  0.65738676570E-01  0.56331143470E+00  0.56853451794E+00  0.51100000000E-03 0.  1.
    9000002    1    1    2    0    0 -0.28815780134E+00 -0.46463497943E+00  0.20636155001E+00  0.11051469006E+01  0.93800000000E+00 0. -1.
         22    1    1    2    0    0  0.24828436521E+00  0.39889630286E+00  0.32303269826E+01  0.32643185815E+01  0.00000000000E+00 0.  1.
</event>
<event>
 5    1  0.6645559E+001  0.1599674E+01  0.7818608E-02  0.3353718E+00
         11   -1    0    0    0    0  0.00000000000E+00  0.00000000000E+00  0.39999999674E+01  0.40000000000E+01  0.51100000000E-03 0.  1.
    9000002   -1    0    0    0    0 -0.00000000000E+00 -0.00000000000E+00  0.00000000000E+00  0.93800000000E+00  0.93800000000E+00 0. -1.
         11    1    1    2    0    0  0.14569985884E+00  0.28915611171E-01  0.12581721486E+01  0.12669104065E+01  0.51100000000E-03 0.  1.
    9000002    1    1    2    0    0 -0.44293782054E+00 -0.93489769097E-01  0.13924655989E+00  0.10507939162E+01  0.93800000000E+00 0. -1.
         22    1    1    2    0    0  0.29723796170E+00  0.64574157925E-01  0.26025812589E+01  0.26202956774E+01  0.00000000000E+00 0.  1.
</event>
<event>
 5    1  0.6645559E+001  0.1599652E+01  0.7818608E-02  0.3353741E+00
         11   -1    0    0    0    0  0.00000000000E+00  0.00000000000E+00  0.39999999674E+01  0.40000000000E+01  0.51100000000E-03 0. -1.
    9000002   -1    0    0    0    0 -0.00000000000E+00 -0.00000000000E+00  0.00000000000E+00  0.93800000000E+00  0.93800000000E+00 0. -1.
         11    1    1    2    0    0 -0.40288144032E-02 -0.13693372181E+00  0.13929819364E+01  0.13997021154E+01  0.51100000000E-03 0. -1.
    9000002    1    1    2    0    0  0.78124245444E-02  0.36831258891E+00  0.91209258522E-01  0.10118687296E+01  0.93800000000E+00 0. -1.
         22    1    1    2    0    0 -0.37836101412E-02 -0.23137886710E+00  0.25158087724E+01  0.25264291550E+01  0.00000000000E+00 0. -1.
</event>
<event>
 5    1  0.6645559E+001  0.1596021E+01  0.7818608E-02  0.3357694E+00
         11   -1    0    0    0    0  0.00000000000E+00  0.00000000000E+00  0.39999999674E+01  0.40000000000E+01  0.51100000000E-03 0. -1.
    9000002   -1    0    0    0    0 -0.00000000000E+00 -0.00000000000E+00  0.00000000000E+00  0.93800000000E+00  0.93800000000E+00 0.  1.
         11    1    1    2    0    0  0.34752084984E-01  0.19085967887E-01  0.13714700610E+00  0.14276394498E+00  0.51100000000E-03 0. -1.
    9000002    1    1    2    0    0 -0.22695220640E+00 -0.37634911183E+00  0.13411981188E+00  0.10444989621E+01  0.93800000000E+00 0.  1.
         22    1    1    2    0    0  0.19220012142E+00  0.35726314394E+00  0.37287331494E+01  0.37507370929E+01  0.00000000000E+00 0. -1.
</event>
<event>
 5    1  0.6645559E+001  0.1595726E+01  0.7818608E-02  0.3358016E+00
         11   -1    0    0    0    0  0.00000000000E+00  0.00000000000E+00  0.39999999674E+01  0.40000000000E+01  0.51100000000E-03 0.  1.
    9000002   -1    0    0    0    0 -0.00000000000E+00 -0.00000000000E+00  0.00000000000E+00  0.93800000000E+00  0.93800000000E+00 0. -1.
         11    1    1    2    0    0 -0.19832267950E+00  0.70104241854E-01  0.10871306976E+01  0.11072939558E+01  0.51100000000E-03 0.  1.
    9000002    1    1    2    0    0  0.46407120465E+00 -0.18202079554E+00  0.17362756145E+00  0.10763290311E+01  0.93800000000E+00 0. -1.
         22    1    1    2    0    0 -0.26574852515E+00  0.11191655369E+00  0.27392417083E+01  0.27543770131E+01  0.00000000000E+00 0.  1.
</event>
<event>
 5    1  0.6645559E+001  0.1597565E+01  0.7818608E-02  0.3356010E+00
         11   -1    0    0    0    0  0.00000000000E+00  0.00000000000E+00  0.39999999674E+01  0.40000000000E+01  0.51100000000E-03 0. -1.
    9000002   -1    0    0    0    0 -0.00000000000E+00 -0.00000000000E+00  0.00000000000E+00  0.93800000000E+00  0.93800000000E+00 0. -1.
         11    1    1    2    0    0  0.36389200186E-01  0.92436054561E-01  0.10352982652E+01  0.10400535357E+01  0.51100000000E-03 0. -1.
    9000002    1    1    2    0    0  0.38764712200E-01 -0.40141075347E+00  0.11150875627E+00  0.10270888465E+01  0.93800000000E+00 0. -1.
         22    1    1    2    0    0 -0.75153912385E-01  0.30897469891E+00  0.28531929458E+01  0.28708576177E+01  0.00000000000E+00 0. -1.
</event>
<event>
 5    1  0.6645559E+001  0.1599559E+01  0.7818608E-02  0.3353842E+00
         11   -1    0    0    0    0  0.00000000000E+00  0.00000000000E+00  0.39999999674E+01  0.40000000000E+01  0.51100000000E-03 0.  1.
    9000002   -1    0    0    0    0 -0.00000000000E+00 -0.00000000000E+00  0.00000000000E+00  0.93800000000E+00  0.93800000000E+00 0. -1.
         11    1    1    2    0    0  0.10723274960E-01  0.27032343182E-01  0.28741311792E+00  0.28888111340E+00  0.51100000000E-03 0.  1.
    9000002    1    1    2    0    0 -0.70535341414E-01 -0.41978316434E+00  0.12273711572E+00  0.10373531409E+01  0.93800000000E+00 0. -1.
         22    1    1    2    0    0  0.59812066454E-01  0.39275082116E+00  0.35898497337E+01  0.36117657457E+01  0.00000000000E+00 0.  1.
</event>
<event>
 5    1  0.6645559E+001  0.1598875E+01  0.7818608E-02  0.3354586E+00
         11   -1    0    0    0    0  0.00000000000E+00  0.00000000000E+00  0.39999999674E+01  0.40000000000E+01  0.51100000000E-03 0.  1.
    9000002   -1    0    0    0    0 -0.00000000000E+00 -0.00000000000E+00  0.00000000000E+00  0.93800000000E+00  0.93800000000E+00 0.  1.
         11    1    1    2    0    0  0.74447887124E-01  0.65636304096E-01  0.56278042288E+00  0.57146537762E+00  0.51100000000E-03 0.  1.
    9000002    1    1    2    0    0 -0.33721256382E+00 -0.46302728257E+00  0.22840932992E+00  0.11225512904E+01  0.93800000000E+00 0.  1.
         22    1    1    2    0    0  0.26276467669E+00  0.39739097848E+00  0.32088102146E+01  0.32439833320E+01  0.00000000000E+00 0.  1.
</event>
<event>
 5    1  0.6645559E+001  0.1599269E+01  0.7818608E-02  0.3354157E+00
         11   -1    0    0    0    0  0.00000000000E+00  0.00000000000E+00  0.39999999674E+01  0.40000000000E+01  0.51100000000E-03 0. -1.
    9000002   -1    0    0    0    0 -0.00000000000E+00 -0.00000000000E+00  0.00000000000E+00  0.93800000000E+00  0.93800000000E+00 0. -1.
         11    1    1    2    0    0  0.34198334787E-01  0.44278045948E-01  0.56647856832E+00  0.56923483813E+00  0.51100000000E-03 0. -1.
    9000002    1    1    2    0    0 -0.13752008895E+00 -0.37044368614E+00  0.10559320412E+00  0.10232957658E+01  0.93800000000E+00 0. -1.
         22    1    1    2    0    0  0.10332175416E+00  0.32616564019E+00  0.33279281949E+01  0.33454693961E+01  0.00000000000E+00 0. -1.
</event>
<event>
 5    1  0.6645559E+001  0.1598572E+01  0.7818608E-02  0.3354915E+00
         11   -1    0    0    0    0  0.00000000000E+00  0.00000000000E+00  0.39999999674E+01  0.40000000000E+01  0.51100000000E-03 0.  1.
    9000002   -1    0    0    0    0 -0.00000000000E+00 -0.00000000000E+00  0.00000000000E+00  0.93800000000E+00  0.93800000000E+00 0. -1.
         11    1    1    2    0    0  0.17612471857E+00  0.11038054220E+00  0.13757845117E+01  0.13913975220E+01  0.51100000000E-03 0.  1.
    9000002    1    1    2    0    0 -0.38319964057E+00 -0.31222801163E+00  0.16808873819E+00  0.10735111176E+01  0.93800000000E+00 0. -1.
         22    1    1    2    0    0  0.20707492200E+00  0.20184746943E+00  0.24561267175E+01  0.24730913604E+01  0.00000000000E+00 0.  1.
</event>
<event>
 5    1  0.6645559E+001  0.1549647E+01  0.7818608E-02  0.3409897E+00
         11   -1    0    0    0    0  0.00000000000E+00  0.00000000000E+00  0.39999999674E+01  0.40000000000E+01  0.51100000000E-03 0.  1.
    9000002   -1    0    0    0    0 -0.00000000000E+00 -0.00000000000E+00  0.00000000000E+00  0.93800000000E+00  0.93800000000E+00 0.  1.
         11    1    1    2    0    0  0.91454925277E-01  0.23454726839E+00  0.95379199750E+00  0.98645621296E+00  0.51100000000E-03 0.  1.
    9000002    1    1    2    0    0  0.17745929628E+00 -0.18717204125E+00  0.83623686904E-01  0.97640263000E+00  0.93800000000E+00 0.  1.
         22    1    1    2    0    0 -0.26891422156E+00 -0.47375227136E-01  0.29625842830E+01  0.29751411570E+01  0.00000000000E+00 0.  1.
</event>
<event>
 5    1  0.6645559E+001  0.1594854E+01  0.7818608E-02  0.3358967E+00
         11   -1    0    0    0    0  0.00000000000E+00  0.00000000000E+00  0.39999999674E+01  0.40000000000E+01  0.51100000000E-03 0. -1.
    9000002   -1    0    0    0    0 -0.00000000000E+00 -0.00000000000E+00  0.00000000000E+00  0.93800000000E+00  0.93800000000E+00 0. -1.
         11    1    1    2    0    0  0.60239067583E-01  0.12898159816E+00  0.87519518594E+00  0.88669717070E+00  0.51100000000E-03 0. -1.
    9000002    1    1    2    0    0  0.30303431116E-01 -0.64089422614E+00  0.29495375415E+00  0.11740977064E+01  0.93800000000E+00 0. -1.
         22    1    1    2    0    0 -0.90542498698E-01  0.51191262798E+00  0.28298510273E+01  0.28772051229E+01  0.00000000000E+00 0. -1.
</event>
<event>
 5    1  0.6645559E+001  0.1598421E+01  0.7818608E-02  0.3355079E+00
         11   -1    0    0    0    0  0.00000000000E+00  0.00000000000E+00  0.39999999674E+01  0.40000000000E+01  0.51100000000E-03 0. -1.
    9000002   -1    0    0    0    0 -0.00000000000E+00 -0.00000000000E+00  0.00000000000E+00  0.93800000000E+00  0.93800000000E+00 0.  1.
         11    1    1    2    0    0 -0.63759685427E-02  0.17985790781E+00  0.82374095681E+00  0.84317195460E+00  0.51100000000E-03 0. -1.
    9000002    1    1    2    0    0  0.13142882156E+00 -0.67714676950E+00  0.34051113015E+00  0.12130923758E+01  0.93800000000E+00 0.  1.
         22    1    1    2    0    0 -0.12505285301E+00  0.49728886169E+00  0.28357478804E+01  0.28817356696E+01  0.00000000000E+00 0. -1.
</event>
<event>
 5    1  0.6645559E+001  0.1594739E+01  0.7818608E-02  0.3359093E+00
         11   -1    0    0    0    0  0.00000000000E+00  0.00000000000E+00  0.39999999674E+01  0.40000000000E+01  0.51100000000E-03 0.  1.
    9000002   -1    0    0    0    0 -0.00000000000E+00 -0.00000000000E+00  0.00000000000E+00  0.93800000000E+00  0.93800000000E+00 0.  1.
         11    1    1    2    0    0 -0.11072511690E+00 -0.20377274936E+00  0.14790168812E+01  0.14970887017E+01  0.51100000000E-03 0.  1.
    9000002    1    1    2    0    0  0.45239020705E+00  0.39670166686E+00  0.25761252748E+00  0.11437820274E+01  0.93800000000E+00 0.  1.
         22    1    1    2    0    0 -0.34166509015E+00 -0.19292891750E+00  0.22633705587E+01  0.22971292709E+01  0.00000000000E+00 0.  1.
</event>
<event>
 5    1  0.6645559E+001  0.1599655E+01  0.7818608E-02  0.3353738E+00
         11   -1    0    0    0    0  0.00000000000E+00  0.00000000000E+00  0.39999999674E+01  0.40000000000E+01  0.51100000000E-03 0.  1.
    9000002   -1    0    0    0    0 -0.00000000000E+00 -0.00000000000E+00  0.00000000000E+00  0.93800000000E+00  0.93800000000E+00 0.  1.
         11    1    1    2    0    0  0.21817766537E-01 -0.44588527432E-02  0.19788948314E+00  0.19913915980E+00  0.51100000000E-03 0.  1.
    9000002    1    1    2    0    0 -0.39130503918E+00  0.11859041464E+00  0.11291755354E+00  0.10294550471E+01  0.93800000000E+00 0.  1.
         22    1    1    2    0    0  0.36948727265E+00 -0.11413156189E+00  0.36891929307E+01  0.37094057931E+01  0.00000000000E+00 0.  1.
</event>
<event>
 5    1  0.6645559E+001  0.1590133E+01  0.7818608E-02  0.3364143E+00
         11   -1    0    0    0    0  0.00000000000E+00  0.00000000000E+00  0.39999999674E+01  0.40000000000E+01  0.51100000000E-03 0.  1.
    9000002   -1    0    0    0    0 -0.00000000000E+00 -0.00000000000E+00  0.00000000000E+00  0.93800000000E+00  0.93800000000E+00 0.  1.
         11    1    1    2    0    0 -0.49844935248E-01  0.21749126907E-01  0.43238241893E+00  0.43578935211E+00  0.51100000000E-03 0.  1.
    9000002    1    1    2    0    0 -0.21293365740E+00 -0.26010809553E+00  0.83313451774E-01  0.99989104159E+00  0.93800000000E+00 0.  1.
         22    1    1    2    0    0  0.26277859265E+00  0.23835896862E+00  0.34843040967E+01  0.35023196063E+01  0.00000000000E+00 0.  1.
</event>
<event>
 5    1  0.6645559E+001  0.1598897E+01  0.7818608E-02  0.3354562E+00
         11   -1    0    0    0    0  0.00000000000E+00  0.00000000000E+00  0.39999999674E+01  0.40000000000E+01  0.51100000000E-03 0.  1.
    9000002   -1    0    0    0    0 -0.00000000000E+00 -0.00000000000E+00  0.00000000000E+00  0.93800000000E+00  0.93800000000E+00 0. -1.
         11    1    1    2    0    0 -0.88650454211E-03  0.26607282827E-01  0.48901727801E+00  0.48974165915E+00  0.51100000000E-03 0.  1.
    9000002    1    1    2    0    0  0.16179746813E+00 -0.30205341278E+00  0.79290663053E-01  0.10017712783E+01  0.93800000000E+00 0. -1.
         22    1    1    2    0    0 -0.16091096359E+00  0.27544612995E+00  0.34316920263E+01  0.34464870625E+01  0.00000000000E+00 0.  1.
</event>
<event>
 5    1  0.6645559E+001  0.1587099E+01  0.7818608E-02  0.3367486E+00
         11   -1    0    0    0    0  0.00000000000E+00  0.00000000000E+00  0.39999999674E+01  0.40000000000E+01  0.51100000000E-03 0. -1.
    9000002   -1    0    0    0    0 -0.00000000000E+00 -0.00000000000E+00  0.00000000000E+00  0.93800000000E+00  0.93800000000E+00 0.  1.
         11    1    1    2    0    0  0.81867745284E-01  0.23251225294E-01  0.80830746915E+00  0.81277559819E+00  0.51100000000E-03 0. -1.
    9000002    1    1    2    0    0 -0.71704986493E+00  0.25314777023E+00  0.43602621803E+00  0.12838252082E+01  0.93800000000E+00 0.  1.
         22    1    1    2    0    0  0.63518211965E+00 -0.27639899552E+00  0.27556662802E+01  0.28413991936E+01  0.00000000000E+00 0. -1.
</event>
<event>
 5    1  0.6645559E+001  0.1591411E+01  0.7818608E-02  0.3362738E+00
         11   -1    0    0    0    0  0.00000000000E+00  0.00000000000E+00  0.39999999674E+01  0.40000000000E+01  0.51100000000E-03 0.  1.
    9000002   -1    0    0    0    0 -0.00000000000E+00 -0.00000000000E+00  0.00000000000E+00  0.93800000000E+00  0.93800000000E+00 0. -1.
         11    1    1    2    0    0 -0.18906244456E+00  0.64006959779E-01  0.79454843167E+00  0.81923682183E+00  0.51100000000E-03 0.  1.
    9000002    1    1    2    0    0  0.47058794711E+00 -0.28270857047E+00  0.21595665939E+00  0.11080877359E+01  0.93800000000E+00 0. -1.
         22    1    1    2    0    0 -0.28152550255E+00  0.21870161069E+00  0.29894948763E+01  0.30106754422E+01  0.00000000000E+00 0.  1.
</event>
<event>
 5    1  0.6802332E+001  0.1599431E+01  0.7818608E-02  0.3353981E+00
         11   -1    0    0    0    0  0.00000000000E+00  0.00000000000E+00  0.39999999674E+01  0.40000000000E+01  0.51100000000E-03 0.  1.
    9000002   -1    0    0    0    0 -0.00000000000E+00 -0.00000000000E+00  0.00000000000E+00  0.93800000000E+00  0.93800000000E+00 0. -1.
         11    1    1    2    0    0  0.98487980284E-01 -0.37035044751E-01  0.13411122505E+01  0.13452337367E+01  0.51100000000E-03 0.  1.
    9000002    1    1    2    0    0 -0.33389326081E+00  0.13230497161E+00  0.86776358412E-01  0.10081485265E+01  0.93800000000E+00 0. -1.
         22    1    1    2    0    0  0.23540528052E+00 -0.95269926863E-01  0.25721113584E+01  0.25846177368E+01  0.00000000000E+00 0.  1.
</event>
<event>
 5    1  0.6645559E+001  0.1596989E+01  0.7818608E-02  0.3356638E+00
         11   -1    0    0    0    0  0.00000000000E+00  0.00000000000E+00  0.39999999674E+01  0.40000000000E+01  0.51100000000E-03 0.  1.
    9000002   -1    0    0    0    0 -0.00000000000E+00 -0.00000000000E+00  0.00000000000E+00  0.93800000000E+00  0.93800000000E+00 0. -1.
         11    1    1    2    0    0  0.42336508075E-01  0.15916621274E-01  0.46175803577E+00  0.46396817075E+00  0.51100000000E-03 0.  1.
    9000002    1    1    2    0    0 -0.94633488786E-01 -0.35071635563E+00  0.90796863176E-01  0.10099730341E+01  0.93800000000E+00 0. -1.
         22    1    1    2    0    0  0.52296980711E-01  0.33479973436E+00  0.34474450684E+01  0.34640587951E+01  0.00000000000E+00 0.  1.
</event>
<event>
 5    1  0.6645559E+001  0.1599460E+01  0.7818608E-02  0.3353950E+00
         11   -1    0    0    0    0  0.00000000000E+00  0.00000000000E+00  0.39999999674E+01  0.40000000000E+01  0.51100000000E-03 0. -1.
    9000002   -1    0    0    0    0 -0.00000000000E+00 -0.00000000000E+00  0.00000000000E+00  0.93800000000E+00  0.93800000000E+00 0. -1.
         11    1    1    2    0    0  0.22933547844E-01 -0.17035110836E+00  0.12537914769E+01  0.12655191727E+01  0.51100000000E-03 0. -1.
    9000002    1    1    2    0    0 -0.33888779631E-01  0.48549097455E+00  0.16197377524E+00  0.10690787808E+01  0.93800000000E+00 0. -1.
         22    1    1    2    0    0  0.10955231787E-01 -0.31513986619E+00  0.25842347152E+01  0.26034020465E+01  0.00000000000E+00 0. -1.
</event>
<event>
 5    1  0.6645559E+001  0.1573620E+01  0.7818608E-02  0.3382503E+00
         11   -1    0    0    0    0  0.00000000000E+00  0.00000000000E+00  0.39999999674E+01  0.40000000000E+01  0.51100000000E-03 0.  1.
    9000002   -1    0    0    0    0 -0.00000000000E+00 -0.00000000000E+00  0.00000000000E+00  0.93800000000E+00  0.93800000000E+00 0.  1.
         11    1    1    2    0    0 -0.12507681597E+00  0.30189348117E-02  0.85628633240E+00  0.86537845364E+00  0.51100000000E-03 0.  1.
    9000002    1    1    2    0    0 -0.94078794051E-01  0.29546175548E+00  0.84998259256E-01  0.99157307977E+00  0.93800000000E+00 0.  1.
         22    1    1    2    0    0  0.21915561002E+00 -0.29848069029E+00  0.30587153757E+01  0.30810484666E+01  0.00000000000E+00 0.  1.
</event>
<event>
 5    1  0.6645559E+001  0.1599670E+01  0.7818608E-02  0.3353722E+00
         11   -1    0    0    0    0  0.00000000000E+00  0.00000000000E+00  0.39999999674E+01  0.40000000000E+01  0.51100000000E-03 0. -1.
    9000002   -1    0    0    0    0 -0.00000000000E+00 -0.00000000000E+00  0.00000000000E+00  0.93800000000E+00  0.93800000000E+00 0.  1.
         11    1    1    2    0    0 -0.27646665979E-01  0.14097712672E-01  0.34150594752E+00  0.34291348319E+00  0.51100000000E-03 0. -1.
    9000002    1    1    2    0    0  0.33692460676E+00 -0.16151728504E+00  0.93867032471E-01  0.10140320724E+01  0.93800000000E+00 0.  1.
         22    1    1    2    0    0 -0.30927794078E+00  0.14741957237E+00  0.35646269874E+01  0.35810544444E+01  0.00000000000E+00 0. -1.
</event>
<event>
 5    1  0.6645559E+001  0.1599671E+01  0.7818608E-02  0.3353721E+00
         11   -1    0    0    0    0  0.00000000000E+00  0.00000000000E+00  0.39999999674E+01  0.40000000000E+01  0.51100000000E-03 0. -1.
    9000002   -1    0    0    0    0 -0.00000000000E+00 -0.00000000000E+00  0.00000000000E+00  0.93800000000E+00  0.93800000000E+00 0.  1.
         11    1    1    2    0    0 -0.13307888799E-01 -0.78322147915E-01  0.72614432554E+00  0.73047744756E+00  0.51100000000E-03 0. -1.
    9000002    1    1    2    0    0  0.72515118474E-01  0.42968678290E+00  0.12870946213E+00  0.10422568299E+01  0.93800000000E+00 0.  1.
         22    1    1    2    0    0 -0.59207229676E-01 -0.35136463499E+00  0.31451461797E+01  0.31652657226E+01  0.00000000000E+00 0. -1.
</event>
<event>
 5    1  0.6645559E+001  0.1598723E+01  0.7818608E-02  0.3354750E+00
         11   -1    0    0    0    0  0.00000000000E+00  0.00000000000E+00  0.39999999674E+01  0.40000000000E+01  0.51100000000E-03 0.  1.
    9000002   -1    0    0    0    0 -0.00000000000E+00 -0.00000000000E+00  0.00000000000E+00  0.93800000000E+00  0.93800000000E+00 0.  1.
         11    1    1    2    0    0  0.15596002601E+00  0.17100821741E-01  0.14481701675E+01  0.14566444532E+01  0.51100000000E-03 0.  1.
    9000002    1    1    2    0    0 -0.42566864737E+00 -0.14116179580E+00  0.13738998316E+00  0.10487327865E+01  0.93800000000E+00 0.  1.
         22    1    1    2    0    0  0.26970862136E+00  0.12406097406E+00  0.24144398167E+01  0.24326227603E+01  0.00000000000E+00 0.  1.
</event>
<event>
 5    1  0.6645559E+001  0.1575413E+01  0.7818608E-02  0.3380489E+00
         11   -1    0    0    0    0  0.00000000000E+00  0.00000000000E+00  0.39999999674E+01  0.40000000000E+01  0.51100000000E-03 0.  1.
    9000002   -1    0    0    0    0 -0.00000000000E+00 -0.00000000000E+00  0.00000000000E+00  0.93800000000E+00  0.93800000000E+00 0. -1.
         11    1    1    2    0    0  0.28924733449E+00  0.33976865382E+00  0.14109803108E+01  0.14798555528E+01  0.51100000000E-03 0.  1.
    9000002    1    1    2    0    0 -0.49745898969E+00 -0.46575528255E+00  0.35733431480E+00  0.12132292620E+01  0.93800000000E+00 0. -1.
         22    1    1    2    0    0  0.20821165520E+00  0.12598662873E+00  0.22316853418E+01  0.22449151852E+01  0.00000000000E+00 0.  1.
</event>
<event>
 5    1  0.6645559E+001  0.1599675E+01  0.7818608E-02  0.3353716E+00
         11   -1    0    0    0    0  0.00000000000E+00  0.00000000000E+00  0.39999999674E+01  0.40000000000E+01  0.51100000000E-03 0. -1.
    9000002   -1    0    0    0    0 -0.00000000000E+00 -0.00000000000E+00  0.00000000000E+00  0.93800000000E+00  0.93800000000E+00 0.  1.
         11    1    1    2    0    0 -0.49248440440E-01  0.72755778609E-01  0.67082653549E+00  0.67655547743E+00  0.51100000000E-03 0. -1.
    9000002    1    1    2    0    0  0.27460073801E+00 -0.41435923304E+00  0.16907253361E+00  0.10749551902E+01  0.93800000000E+00 0.  1.
         22    1    1    2    0    0 -0.22535229757E+00  0.34160345443E+00  0.31601008983E+01  0.31864893324E+01  0.00000000000E+00 0. -1.
</event>
<event>
 5    1  0.6645559E+001  0.1598502E+01  0.7818608E-02  0.3354991E+00
         11   -1    0    0    0    0  0.00000000000E+00  0.00000000000E+00  0.39999999674E+01  0.40000000000E+01  0.51100000000E-03 0.  1.
    9000002   -1    0    0    0    0 -0.00000000000E+00 -0.00000000000E+00  0.00000000000E+00  0.93800000000E+00  0.93800000000E+00 0. -1.
         11    1    1    2    0    0  0.94057305701E-01 -0.39789741866E-01  0.14124940236E+01  0.14161813543E+01  0.51100000000E-03 0.  1.
    9000002    1    1    2    0    0 -0.33471836645E+00  0.28492355753E-01  0.76490172764E-01  0.99927120728E+00  0.93800000000E+00 0. -1.
         22    1    1    2    0    0  0.24066106075E+00  0.11297386113E-01  0.25110157710E+01  0.25225474384E+01  0.00000000000E+00 0.  1.
</event>
<event>
 5    1  0.6645559E+001  0.1599605E+01  0.7818608E-02  0.3353792E+00
         11   -1    0    0    0    0  0.00000000000E+00  0.00000000000E+00  0.39999999674E+01  0.40000000000E+01  0.51100000000E-03 0.  1.
    9000002   -1    0    0    0    0 -0.00000000000E+00 -0.00000000000E+00  0.00000000000E+00  0.93800000000E+00  0.93800000000E+00 0. -1.
         11    1    1    2    0    0 -0.57210859394E-01 -0.45020619157E-01  0.79279896922E+00  0.79613466530E+00  0.51100000000E-03 0.  1.
    9000002    1    1    2    0    0  0.31827633726E+00  0.20445701916E+00  0.96324142601E-01  0.10159846652E+01  0.93800000000E+00 0. -1.
         22    1    1    2    0    0 -0.26106547787E+00 -0.15943640000E+00  0.31108768555E+01  0.31258806695E+01  0.00000000000E+00 0.  1.
</event>
<event>
 5    1  0.6645559E+001  0.1599676E+01  0.7818608E-02  0.3353715E+00
         11   -1    0    0    0    0  0.00000000000E+00  0.00000000000E+00  0.39999999674E+01  0.40000000000E+01  0.51100000000E-03 0. -1.
    9000002   -1    0    0    0    0 -0.00000000000E+00 -0.00000000000E+00  0.00000000000E+00  0.93800000000E+00  0.93800000000E+00 0. -1.
         11    1    1    2    0    0  0.18800113339E-01 -0.21121206638E-01  0.28239954708E+00  0.28381211205E+00  0.51100000000E-03 0.  1.
    9000002    1    1    2    0    0 -0.26380253484E+00  0.29245614050E+00  0.10455203726E+00  0.10226913024E+01  0.93800000000E+00 0. -1.
         22    1    1    2    0    0  0.24500242150E+00 -0.27133493386E+00  0.36130483830E+01  0.36314965856E+01  0.00000000000E+00 0. -1.
</event>
<event>
 5    1  0.6645559E+001  0.1594727E+01  0.7818608E-02  0.3359107E+00
         11   -1    0    0    0    0  0.00000000000E+00  0.00000000000E+00  0.39999999674E+01  0.40000000000E+01  0.51100000000E-03 0.  1.
    9000002   -1    0    0    0    0 -0.00000000000E+00 -0.00000000000E+00  0.00000000000E+00  0.93800000000E+00  0.93800000000E+00 0. -1.
         11    1    1    2    0    0 -0.70572737256E-02 -0.15934590232E+00  0.13116591252E+01  0.13213216276E+01  0.51100000000E-03 0.  1.
    9000002    1    1    2    0    0 -0.16811186139E+00  0.32953188933E+00  0.96016856937E-01  0.10128751655E+01  0.93800000000E+00 0. -1.
         22    1    1    2    0    0  0.17516913511E+00 -0.17018598701E+00  0.25923239852E+01  0.26038032069E+01  0.00000000000E+00 0.  1.
</event>
<event>
 5    1  0.6645559E+001  0.1599656E+01  0.7818608E-02  0.3353737E+00
         11   -1    0    0    0    0  0.00000000000E+00  0.00000000000E+00  0.39999999674E+01  0.40000000000E+01  0.51100000000E-03 0. -1.
    9000002   -1    0    0    0    0 -0.00000000000E+00 -0.00000000000E+00  0.00000000000E+00  0.93800000000E+00  0.93800000000E+00 0. -1.
         11    1    1    2    0    0 -0.52437218842E-02 -0.11662839394E+00  0.11706942476E+01  0.11765011523E+01  0.51100000000E-03 0. -1.
    9000002    1    1    2    0    0  0.69371594154E-03  0.38820087514E+00  0.10151644242E+00  0.10202205589E+01  0.93800000000E+00 0. -1.
         22    1    1    2    0    0  0.45500059427E-02 -0.27157248120E+00  0.27277892774E+01  0.27412782888E+01  0.00000000000E+00 0. -1.
</event>
<event>
 5    1  0.6645559E+001  0.1572635E+01  0.7818608E-02  0.3383610E+00
         11   -1    0    0    0    0  0.00000000000E+00  0.00000000000E+00  0.39999999674E+01  0.40000000000E+01  0.51100000000E-03 0.  1.
    9000002   -1    0    0    0    0 -0.00000000000E+00 -0.00000000000E+00  0.00000000000E+00  0.93800000000E+00  0.93800000000E+00 0. -1.
         11    1    1    2    0    0  0.14665707151E+00 -0.68175855854E-02  0.10382223295E+01  0.10485516881E+01  0.51100000000E-03 0.  1.
    9000002    1    1    2    0    0  0.75278226196E-01  0.22222383919E+00  0.57348546013E-01  0.96859852456E+00  0.93800000000E+00 0. -1.
         22    1    1    2    0    0 -0.22193529771E+00 -0.21540625360E+00  0.29044290919E+01  0.29208497873E+01  0.00000000000E+00 0.  1.
</event>
<event>
 5    1  0.6645559E+001  0.1599638E+01  0.7818608E-02  0.3353757E+00
         11   -1    0    0    0    0  0.00000000000E+00  0.00000000000E+00  0.39999999674E+01  0.40000000000E+01  0.51100000000E-03 0. -1.
    9000002   -1    0    0    0    0 -0.00000000000E+00 -0.00000000000E+00  0.00000000000E+00  0.93800000000E+00  0.93800000000E+00 0.  1.
         11    1    1    2    0    0  0.36544491598E-02  0.31058787509E-02  0.47116249539E-01  0.47362470090E-01  0.51100000000E-03 0. -1.
    9000002    1    1    2    0    0 -0.20204893241E+00 -0.33979148557E+00  0.10538517854E+00  0.10233435692E+01  0.93800000000E+00 0.  1.
         22    1    1    2    0    0  0.19839448325E+00  0.33668560682E+00  0.38474985393E+01  0.38672939607E+01  0.00000000000E+00 0. -1.
</event>
<event>
 5    1  0.6645559E+001  0.1539294E+01  0.7818608E-02  0.3422007E+00
         11   -1    0    0    0    0  0.00000000000E+00  0.00000000000E+00  0.39999999674E+01  0.40000000000E+01  0.51100000000E-03 0. -1.
    9000002   -1    0    0    0    0 -0.00000000000E+00 -0.00000000000E+00  0.00000000000E+00  0.93800000000E+00  0.93800000000E+00 0. -1.
         11    1    1    2    0    0 -0.18344882677E+00 -0.13559402144E-01  0.61637628651E+00  0.64323970425E+00  0.51100000000E-03 0. -1.
    9000002    1    1    2    0    0 -0.20742723279E+00  0.71481762408E-01  0.78950404020E-01  0.96654687706E+00  0.93800000000E+00 0. -1.
         22    1    1    2    0    0  0.39087605956E+00 -0.57922360264E-01  0.33046732768E+01  0.33282134187E+01  0.00000000000E+00 0. -1.
</event>
<event>
 5    1  0.6645559E+001  0.1558169E+01  0.7818608E-02  0.3400055E+00
         11   -1    0    0    0    0  0.00000000000E+00  0.00000000000E+00  0.39999999674E+01  0.40000000000E+01  0.51100000000E-03 0. -1.
    9000002   -1    0    0    0    0 -0.00000000000E+00 -0.00000000000E+00  0.00000000000E+00  0.93800000000E+00  0.93800000000E+00 0.  1.
         11    1    1    2    0    0 -0.12413034529E+00  0.75098238112E-01  0.73486179693E+00  0.74904619998E+00  0.51100000000E-03 0. -1.
    9000002    1    1    2    0    0 -0.16918184166E+00  0.19253020260E+00  0.76173391675E-01  0.97536493686E+00  0.93800000000E+00 0.  1.
         22    1    1    2    0    0  0.29331218695E+00 -0.26762844072E+00  0.31889647788E+01  0.32135888632E+01  0.00000000000E+00 0. -1.
</event>
<event>
 5    1  0.6645559E+001  0.1599573E+01  0.7818608E-02  0.3353827E+00
         11   -1    0    0    0    0  0.00000000000E+00  0.00000000000E+00  0.39999999674E+01  0.40000000000E+01  0.51100000000E-03 0.  1.
    9000002   -1    0    0    0    0 -0.00000000000E+00 -0.00000000000E+00  0.00000000000E+00  0.93800000000E+00  0.93800000000E+00 0. -1.
         11    1    1    2    0    0 -0.13382498377E+00 -0.14356055266E-01  0.13680922726E+01  0.13746970394E+01  0.51100000000E-03 0.  1.
    9000002    1    1    2    0    0  0.39694160468E+00  0.69889245058E-01  0.10970354367E+00  0.10268037844E+01  0.93800000000E+00 0. -1.
         22    1    1    2    0    0 -0.26311662091E+00 -0.55533189792E-01  0.25222041511E+01  0.25364991763E+01  0.00000000000E+00 0. -1.
</event>
<event>
 5    1  0.6645559E+001  0.1599667E+01  0.7818608E-02  0.3353725E+00
         11   -1    0    0    0    0  0.00000000000E+00  0.00000000000E+00  0.39999999674E+01  0.40000000000E+01  0.51100000000E-03 0. -1.
    9000002   -1    0    0    0    0 -0.00000000000E+00 -0.00000000000E+00  0.00000000000E+00  0.93800000000E+00  0.93800000000E+00 0.  1.
         11    1    1    2    0    0 -0.64491419990E-01 -0.23075788513E-01  0.67458843124E+00  0.67805711260E+00  0.51100000000E-03 0. -1.
    9000002    1    1    2    0    0  0.35627307549E+00  0.13228987484E+00  0.97188025325E-01  0.10167205258E+01  0.93800000000E+00 0.  1.
         22    1    1    2    0    0 -0.29178165550E+00 -0.10921408633E+00  0.32282235108E+01  0.32432223616E+01  0.00000000000E+00 0.  1.
</event>
<event>
 5    1  0.6645559E+001  0.1594702E+01  0.7818608E-02  0.3359133E+00
         11   -1    0    0    0    0  0.00000000000E+00  0.00000000000E+00  0.39999999674E+01  0.40000000000E+01  0.51100000000E-03 0. -1.
    9000002   -1    0    0    0    0 -0.00000000000E+00 -0.00000000000E+00  0.00000000000E+00  0.93800000000E+00  0.93800000000E+00 0.  1.
         11    1    1    2    0    0  0.56209631406E-01 -0.44040388818E-01  0.12643116261E+01  0.12663266670E+01  0.51100000000E-03 0. -1.
    9000002    1    1    2    0    0 -0.31233192945E-02  0.31408294690E+00  0.69837944886E-01  0.99165477420E+00  0.93800000000E+00 0.  1.
         22    1    1    2    0    0 -0.53086312111E-01 -0.27004255808E+00  0.26658503963E+01  0.26800185588E+01  0.00000000000E+00 0.  1.
</event>
<event>
 5    1  0.6645559E+001  0.1599426E+01  0.7818608E-02  0.3353987E+00
         11   -1    0    0    0    0  0.00000000000E+00  0.00000000000E+00  0.39999999674E+01  0.40000000000E+01  0.51100000000E-03 0. -1.
    9000002   -1    0    0    0    0 -0.00000000000E+00 -0.00000000000E+00  0.00000000000E+00  0.93800000000E+00  0.93800000000E+00 0. -1.
         11    1    1    2    0    0  0.28095149400E-01 -0.49780088053E-02  0.15542109241E+00  0.15801928704E+00  0.51100000000E-03 0. -1.
    9000002    1    1    2    0    0 -0.51075892056E+00  0.18237501164E+00  0.20310217987E+00  0.11023746256E+01  0.93800000000E+00 0. -1.
         22    1    1    2    0    0  0.48266377116E+00 -0.17739700283E+00  0.36414766951E+01  0.36776060873E+01  0.00000000000E+00 0. -1.
</event>
<event>
 5    1  0.6645559E+001  0.1599646E+01  0.7818608E-02  0.3353748E+00
         11   -1    0    0    0    0  0.00000000000E+00  0.00000000000E+00  0.39999999674E+01  0.40000000000E+01  0.51100000000E-03 0.  1.
    9000002   -1    0    0    0    0 -0.00000000000E+00 -0.00000000000E+00  0.00000000000E+00  0.93800000000E+00  0.93800000000E+00 0. -1.
         11    1    1    2    0    0  0.68019512954E-01  0.10857242722E+00  0.10145742498E+01  0.10226317986E+01  0.51100000000E-03 0.  1.
    9000002    1    1    2    0    0 -0.24767334161E+00 -0.43039870420E+00  0.16873254939E+00  0.10746626456E+01  0.93800000000E+00 0. -1.
         22    1    1    2    0    0  0.17965382866E+00  0.32182627698E+00  0.28166931682E+01  0.28407055558E+01  0.00000000000E+00 0.  1.
</event>
<event>
 5    1  0.6645559E+001  0.1559550E+01  0.7818608E-02  0.3398472E+00
         11   -1    0    0    0    0  0.00000000000E+00  0.00000000000E+00  0.39999999674E+01  0.40000000000E+01  0.51100000000E-03 0.  1.
    9000002   -1    0    0    0    0 -0.00000000000E+00 -0.00000000000E+00  0.00000000000E+00  0.93800000000E+00  0.93800000000E+00 0. -1.
         11    1    1    2    0    0 -0.10817912078E+00  0.69561915314E-01  0.37988618071E+00  0.40106776691E+00  0.51100000000E-03 0.  1.
    9000002    1    1    2    0    0  0.52861092329E-01  0.31815046180E+00  0.10204493750E+00  0.99713147613E+00  0.93800000000E+00 0. -1.
         22    1    1    2    0    0  0.55318028454E-01 -0.38771237712E+00  0.35180688491E+01  0.35398007570E+01  0.00000000000E+00 0.  1.
</event>
<event>
 5    1  0.6645559E+001  0.1455251E+01  0.7818608E-02  0.3527194E+00
         11   -1    0    0    0    0  0.00000000000E+00  0.00000000000E+00  0.39999999674E+01  0.40000000000E+01  0.51100000000E-03 0. -1.
    9000002   -1    0    0    0    0 -0.00000000000E+00 -0.00000000000E+00  0.00000000000E+00  0.93800000000E+00  0.93800000000E+00 0. -1.
         11    1    1    2    0    0  0.18656733560E+00  0.24304512009E+00  0.42877344616E+00  0.52699642348E+00  0.51100000000E-03 0. -1.
    9000002    1    1    2    0    0  0.10749444379E+00 -0.33339482575E-02  0.13482527512E+00  0.95372324365E+00  0.93800000000E+00 0. -1.
         22    1    1    2    0    0 -0.29406177940E+00 -0.23971117183E+00  0.34364012461E+01  0.34572803329E+01  0.00000000000E+00 0. -1.
</event>
<event>
 5    1  0.6645559E+001  0.1598832E+01  0.7818608E-02  0.3354632E+00
         11   -1    0    0    0    0  0.00000000000E+00  0.00000000000E+00  0.39999999674E+01  0.40000000000E+01  0.51100000000E-03 0.  1.
    9000002   -1    0    0    0    0 -0.00000000000E+00 -0.00000000000E+00  0.00000000000E+00  0.93800000000E+00  0.93800000000E+00 0. -1.
         11    1    1    2    0    0  0.29990111963E-01  0.86927025762E-01  0.91843580391E+00  0.92302779029E+00  0.51100000000E-03 0.  1.
    9000002    1    1    2    0    0 -0.25166463564E+00 -0.36749258721E+00  0.13537744369E+00  0.10471661486E+01  0.93800000000E+00 0. -1.
         22    1    1    2    0    0  0.22167452368E+00  0.28056556145E+00  0.29461867198E+01  0.29678060611E+01  0.00000000000E+00 0.  1.
</event>
<event>
 5    1  0.6645559E+001  0.1599674E+01  0.7818608E-02  0.3353717E+00
         11   -1    0    0    0    0  0.00000000000E+00  0.00000000000E+00  0.39999999674E+01  0.40000000000E+01  0.51100000000E-03 0. -1.
    9000002   -1    0    0    0    0 -0.00000000000E+00 -0.00000000000E+00  0.00000000000E+00  0.93800000000E+00  0.93800000000E+00 0.  1.
         11    1    1    2    0    0 -0.30413970078E-02  0.48684586321E-01  0.49319460120E+00  0.49560126595E+00  0.51100000000E-03 0.  1.
    9000002    1    1    2    0    0  0.19541688676E-01 -0.37657562672E+00  0.95640444473E-01  0.10154714052E+01  0.93800000000E+00 0.  1.
         22    1    1    2    0    0 -0.16500291668E-01  0.32789104040E+00  0.34111649217E+01  0.34269273288E+01  0.00000000000E+00 0. -1.
</event>
<event>
 5    1  0.6645559E+001  0.1597098E+01  0.7818608E-02  0.3356519E+00
         11   -1    0    0    0    0  0.00000000000E+00  0.00000000000E+00  0.39999999674E+01  0.40000000000E+01  0.51100000000E-03 0. -1.
    9000002   -1    0    0    0    0 -0.00000000000E+00 -0.00000000000E+00  0.00000000000E+00  0.93800000000E+00  0.93800000000E+00 0.  1.
         11    1    1    2    0    0  0.13017283037E+00  0.44854012856E-01  0.67225178054E+00  0.68620664948E+00  0.51100000000E-03 0. -1.
    9000002    1    1    2    0    0 -0.53761258124E+00 -0.74393908248E-01  0.20559682483E+00  0.11030302786E+01  0.93800000000E+00 0.  1.
         22    1    1    2    0    0  0.40743975086E+00  0.29539895393E-01  0.31221513620E+01  0.31487630719E+01  0.00000000000E+00 0. -1.
</event>
<event>
 5    1  0.6645559E+001  0.1599650E+01  0.7818608E-02  0.3353744E+00
         11   -1    0    0    0    0  0.00000000000E+00  0.00000000000E+00  0.39999999674E+01  0.40000000000E+01  0.51100000000E-03 0.  1.
    9000002   -1    0    0    0    0 -0.00000000000E+00 -0.00000000000E+00  0.00000000000E+00  0.93800000000E+00  0.93800000000E+00 0.  1.
         11    1    1    2    0    0  0.16517553165E+00  0.77475061250E-03  0.12025340037E+01  0.12138252954E+01  0.51100000000E-03 0.  1.
    9000002    1    1    2    0    0 -0.50977319411E+00  0.84974167941E-02  0.17826708378E+00  0.10823881322E+01  0.93800000000E+00 0.  1.
         22    1    1    2    0    0  0.34459766245E+00 -0.92721674066E-02  0.26191988799E+01  0.26417865724E+01  0.00000000000E+00 0.  1.
</event>
<event>
 5    1  0.6645559E+001  0.1599672E+01  0.7818608E-02  0.3353720E+00
         11   -1    0    0    0    0  0.00000000000E+00  0.00000000000E+00  0.39999999674E+01  0.40000000000E+01  0.51100000000E-03 0.  1.
    9000002   -1    0    0    0    0 -0.00000000000E+00 -0.00000000000E+00  0.00000000000E+00  0.93800000000E+00  0.93800000000E+00 0.  1.
         11    1    1    2    0    0  0.10125477802E-01 -0.25718311502E-01  0.19675313464E+00  0.19868571655E+00  0.51100000000E-03 0. -1.
    9000002    1    1    2    0    0 -0.18656141470E+00  0.51539033323E+00  0.20743965624E+00  0.11060323540E+01  0.93800000000E+00 0.  1.
         22    1    1    2    0    0  0.17643593690E+00 -0.48967202173E+00  0.35958071765E+01  0.36332819295E+01  0.00000000000E+00 0.  1.
</event>
<event>
 5    1  0.6645559E+001  0.1594416E+01  0.7818608E-02  0.3359446E+00
         11   -1    0    0    0    0  0.00000000000E+00  0.00000000000E+00  0.39999999674E+01  0.40000000000E+01  0.51100000000E-03 0. -1.
    9000002   -1    0    0    0    0 -0.00000000000E+00 -0.00000000000E+00  0.00000000000E+00  0.93800000000E+00  0.93800000000E+00 0. -1.
         11    1    1    2    0    0 -0.13424344904E-01 -0.20181445498E-01  0.90661839789E+00  0.90694249227E+00  0.51100000000E-03 0. -1.
    9000002    1    1    2    0    0  0.34457072083E+00 -0.51583604289E-01  0.85622632958E-01  0.10042734116E+01  0.93800000000E+00 0. -1.
         22    1    1    2    0    0 -0.33114637592E+00  0.71765049787E-01  0.30077589365E+01  0.30267840962E+01  0.00000000000E+00 0. -1.
</event>
<event>
 5    1  0.6645559E+001  0.1576659E+01  0.7818608E-02  0.3379093E+00
         11   -1    0    0    0    0  0.00000000000E+00  0.00000000000E+00  0.39999999674E+01  0.40000000000E+01  0.51100000000E-03 0. -1.
    9000002   -1    0    0    0    0 -0.00000000000E+00 -0.00000000000E+00  0.00000000000E+00  0.93800000000E+00  0.93800000000E+00 0.  1.
         11    1    1    2    0    0  0.69007936706E-01  0.12282322007E+00  0.11946159364E+01  0.12028944822E+01  0.51100000000E-03 0. -1.
    9000002    1    1    2    0    0 -0.28613975138E+00  0.14514685320E+00  0.87262403910E-01  0.99518957664E+00  0.93800000000E+00 0.  1.
         22    1    1    2    0    0  0.21713181468E+00 -0.26797007327E+00  0.27181216270E+01  0.27399159411E+01  0.00000000000E+00 0. -1.
</event>
<event>
 5    1  0.6645559E+001  0.1583841E+01  0.7818608E-02  0.3371091E+00
         11   -1    0    0    0    0  0.00000000000E+00  0.00000000000E+00  0.39999999674E+01  0.40000000000E+01  0.51100000000E-03 0. -1.
    9000002   -1    0    0    0    0 -0.00000000000E+00 -0.00000000000E+00  0.00000000000E+00  0.93800000000E+00  0.93800000000E+00 0. -1.
         11    1    1    2    0    0 -0.70781580443E-01 -0.10102789919E-01  0.31019626888E+00  0.31833015070E+00  0.51100000000E-03 0. -1.
    9000002    1    1    2    0    0 -0.12691365571E+00  0.30277992539E+00  0.84799424946E-01  0.99740548509E+00  0.93800000000E+00 0. -1.
         22    1    1    2    0    0  0.19769523615E+00 -0.29267713547E+00  0.36050042735E+01  0.36222643642E+01  0.00000000000E+00 0. -1.
</event>
<event>
 5    1  0.6645559E+001  0.1594703E+01  0.7818608E-02  0.3359133E+00
         11   -1    0    0    0    0  0.00000000000E+00  0.00000000000E+00  0.39999999674E+01  0.40000000000E+01  0.51100000000E-03 0.  1.
    9000002   -1    0    0    0    0 -0.00000000000E+00 -0.00000000000E+00  0.00000000000E+00  0.93800000000E+00  0.93800000000E+00 0.  1.
         11    1    1    2    0    0 -0.69275623116E-01  0.21968841328E-01  0.10517782683E+01  0.10542862651E+01  0.51100000000E-03 0.  1.
    9000002    1    1    2    0    0  0.24808515995E+00 -0.35899566589E+00  0.13334112283E+00  0.10430953886E+01  0.93800000000E+00 0.  1.
         22    1    1    2    0    0 -0.17880953683E+00  0.33702682456E+00  0.28148805762E+01  0.28406183463E+01  0.00000000000E+00 0.  1.
</event>
<event>
 5    1  0.6645559E+001  0.1599677E+01  0.7818608E-02  0.3353714E+00
         11   -1    0    0    0    0  0.00000000000E+00  0.00000000000E+00  0.39999999674E+01  0.40000000000E+01  0.51100000000E-03 0. -1.
    9000002   -1    0    0    0    0 -0.00000000000E+00 -0.00000000000E+00  0.00000000000E+00  0.93800000000E+00  0.93800000000E+00 0. -1.
         11    1    1    2    0    0 -0.11530434363E+00 -0.12029675666E+00  0.13642990939E+01  0.13744375868E+01  0.51100000000E-03 0. -1.
    9000002    1    1    2    0    0  0.32653985794E+00  0.33996969317E+00  0.15141072318E+00  0.10606492720E+01  0.93800000000E+00 0. -1.
         22    1    1    2    0    0 -0.21123551431E+00 -0.21967293651E+00  0.24842901503E+01  0.25029131412E+01  0.00000000000E+00 0. -1.
</event>
<event>
 5    1  0.6645559E+001  0.1599676E+01  0.7818608E-02  0.3353715E+00
         11   -1    0    0    0    0  0.00000000000E+00  0.00000000000E+00  0.39999999674E+01  0.40000000000E+01  0.51100000000E-03 0. -1.
    9000002   -1    0    0    0    0 -0.00000000000E+00 -0.00000000000E+00  0.00000000000E+00  0.93800000000E+00  0.93800000000E+00 0. -1.
         11    1    1    2    0    0 -0.12826344965E+00  0.43929360398E-01  0.12651489209E+01  0.12723927674E+01  0.51100000000E-03 0.  1.
    9000002    1    1    2    0    0  0.39221044023E+00 -0.13691733151E+00  0.11664185645E+00  0.10324847252E+01  0.93800000000E+00 0. -1.
         22    1    1    2    0    0 -0.26394699059E+00  0.92987971109E-01  0.26182091900E+01  0.26331225074E+01  0.00000000000E+00 0. -1.
</event>
<event>
 5    1  0.6645559E+001  0.1599394E+01  0.7818608E-02  0.3354021E+00
         11   -1    0    0    0    0  0.00000000000E+00  0.00000000000E+00  0.39999999674E+01  0.40000000000E+01  0.51100000000E-03 0. -1.
    9000002   -1    0    0    0    0 -0.00000000000E+00 -0.00000000000E+00  0.00000000000E+00  0.93800000000E+00  0.93800000000E+00 0. -1.
         11    1    1    2    0    0  0.41453695656E-03  0.34507361562E-02  0.10287803056E+00  0.10293798965E+00  0.51100000000E-03 0. -1.
    9000002    1    1    2    0    0 -0.48198411743E-01 -0.37469601295E+00  0.96234168787E-01  0.10157879721E+01  0.93800000000E+00 0. -1.
         22    1    1    2    0    0  0.47783874786E-01  0.37124527679E+00  0.38008877680E+01  0.38192740383E+01  0.00000000000E+00 0. -1.
</event>
<event>
 5    1  0.6645559E+001  0.1599676E+01  0.7818608E-02  0.3353715E+00
         11   -1    0    0    0    0  0.00000000000E+00  0.00000000000E+00  0.39999999674E+01  0.40000000000E+01  0.51100000000E-03 0. -1.
    9000002   -1    0    0    0    0 -0.00000000000E+00 -0.00000000000E+00  0.00000000000E+00  0.93800000000E+00  0.93800000000E+00 0. -1.
         11    1    1    2    0    0  0.30495382209E-01 -0.91992812433E-01  0.98003925035E+00  0.98481969884E+00  0.51100000000E-03 0. -1.
    9000002    1    1    2    0    0 -0.11869590014E+00  0.36718666409E+00  0.10026842041E+00  0.10192215260E+01  0.93800000000E+00 0. -1.
         22    1    1    2    0    0  0.88200517927E-01 -0.27519385166E+00  0.29196922966E+01  0.29339587751E+01  0.00000000000E+00 0. -1.
</event>
<event>
 5    1  0.6645559E+001  0.1536303E+01  0.7818608E-02  0.3425538E+00
         11   -1    0    0    0    0  0.00000000000E+00  0.00000000000E+00  0.39999999674E+01  0.40000000000E+01  0.51100000000E-03 0.  1.
    9000002   -1    0    0    0    0 -0.00000000000E+00 -0.00000000000E+00  0.00000000000E+00  0.93800000000E+00  0.93800000000E+00 0.  1.
         11    1    1    2    0    0  0.18469425900E-02  0.29053380399E+00  0.14309573586E+01  0.14601549664E+01  0.51100000000E-03 0.  1.
    9000002    1    1    2    0    0 -0.57820739429E-01  0.76401762216E-03  0.49693469883E-01  0.94109365240E+00  0.93800000000E+00 0.  1.
         22    1    1    2    0    0  0.55973796839E-01 -0.29129782162E+00  0.25193491389E+01  0.25367513813E+01  0.00000000000E+00 0.  1.
</event>
<event>
 5    1  0.6645559E+001  0.1599664E+01  0.7818608E-02  0.3353728E+00
         11   -1    0    0    0    0  0.00000000000E+00  0.00000000000E+00  0.39999999674E+01  0.40000000000E+01  0.51100000000E-03 0. -1.
    9000002   -1    0    0    0    0 -0.00000000000E+00 -0.00000000000E+00  0.00000000000E+00  0.93800000000E+00  0.93800000000E+00 0. -1.
         11    1    1    2    0    0 -0.17112213317E+00  0.27116228234E-01  0.10362467673E+01  0.10506310951E+01  0.51100000000E-03 0. -1.
    9000002    1    1    2    0    0  0.61962006425E+00 -0.11021362248E+00  0.27815416788E+00  0.11633098503E+01  0.93800000000E+00 0. -1.
         22    1    1    2    0    0 -0.44849793107E+00  0.83097394246E-01  0.26855990322E+01  0.27240590546E+01  0.00000000000E+00 0. -1.
</event>
<event>
 5    1  0.6645559E+001  0.1598563E+01  0.7818608E-02  0.3354925E+00
         11   -1    0    0    0    0  0.00000000000E+00  0.00000000000E+00  0.39999999674E+01  0.40000000000E+01  0.51100000000E-03 0. -1.
    9000002   -1    0    0    0    0 -0.00000000000E+00 -0.00000000000E+00  0.00000000000E+00  0.93800000000E+00  0.93800000000E+00 0. -1.
         11    1    1    2    0    0 -0.10541219590E+00  0.73417482397E-01  0.13960368958E+01  0.14019347821E+01  0.51100000000E-03 0. -1.
    9000002    1    1    2    0    0  0.31957711621E+00 -0.30696047575E+00  0.13418432023E+00  0.10460419201E+01  0.93800000000E+00 0. -1.
         22    1    1    2    0    0 -0.21416492030E+00  0.23354299335E+00  0.24697787513E+01  0.24900232977E+01  0.00000000000E+00 0. -1.
</event>
<event>
 5    1  0.6645559E+001  0.1599630E+01  0.7818608E-02  0.3353765E+00
         11   -1    0    0    0    0  0.00000000000E+00  0.00000000000E+00  0.39999999674E+01  0.40000000000E+01  0.51100000000E-03 0. -1.
    9000002   -1    0    0    0    0 -0.00000000000E+00 -0.00000000000E+00  0.00000000000E+00  0.93800000000E+00  0.93800000000E+00 0. -1.
         11    1    1    2    0    0  0.41217892615E-01 -0.59430304574E-01  0.42373567664E+00  0.42986400239E+00  0.51100000000E-03 0. -1.
    9000002    1    1    2    0    0 -0.40242200205E+00  0.50128246600E+00  0.29114514844E+00  0.11738130498E+01  0.93800000000E+00 0. -1.
         22    1    1    2    0    0  0.36120410943E+00 -0.44185216143E+00  0.32851191423E+01  0.33343229478E+01  0.00000000000E+00 0. -1.
</event>
<event>
 5    1  0.6645559E+001  0.1599656E+01  0.7818608E-02  0.3353737E+00
         11   -1    0    0    0    0  0.00000000000E+00  0.00000000000E+00  0.39999999674E+01  0.40000000000E+01  0.51100000000E-03 0.  1.
    9000002   -1    0    0    0    0 -0.00000000000E+00 -0.00000000000E+00  0.00000000000E+00  0.93800000000E+00  0.93800000000E+00 0.  1.
         11    1    1    2    0    0 -0.10300663516E+00 -0.14728804925E+00  0.14391668683E+01  0.14503467421E+01  0.51100000000E-03 0.  1.
    9000002    1    1    2    0    0  0.26498128070E+00  0.38464586893E+00  0.14857656601E+00  0.10583414003E+01  0.93800000000E+00 0.  1.
         22    1    1    2    0    0 -0.16197464553E+00 -0.23735781968E+00  0.24122565330E+01  0.24293118576E+01  0.00000000000E+00 0.  1.
</event>
<event>
 5    1  0.6645559E+001  0.1599191E+01  0.7818608E-02  0.3354241E+00
         11   -1    0    0    0    0  0.00000000000E+00  0.00000000000E+00  0.39999999674E+01  0.40000000000E+01  0.51100000000E-03 0. -1.
    9000002   -1    0    0    0    0 -0.00000000000E+00 -0.00000000000E+00  0.00000000000E+00  0.93800000000E+00  0.93800000000E+00 0. -1.
         11    1    1    2    0    0 -0.10177496629E+00 -0.93971754938E-02  0.97767463532E+00  0.98300274890E+00  0.51100000000E-03 0. -1.
    9000002    1    1    2    0    0  0.38874555406E+00 -0.52616314733E-01  0.10410337306E+00  0.10220435875E+01  0.93800000000E+00 0. -1.
         22    1    1    2    0    0 -0.28697058777E+00  0.62013490226E-01  0.29182219590E+01  0.29329536636E+01  0.00000000000E+00 0. -1.
</event>
<event>
 5    1  0.6645559E+001  0.1599220E+01  0.7818608E-02  0.3354210E+00
         11   -1    0    0    0    0  0.00000000000E+00  0.00000000000E+00  0.39999999674E+01  0.40000000000E+01  0.51100000000E-03 0. -1.
    9000002   -1    0    0    0    0 -0.00000000000E+00 -0.00000000000E+00  0.00000000000E+00  0.93800000000E+00  0.93800000000E+00 0.  1.
         11    1    1    2    0    0  0.25454394715E-01 -0.56284401405E-01  0.56512479721E+00  0.56849112358E+00  0.51100000000E-03 0. -1.
    9000002    1    1    2    0    0 -0.67044548002E-01  0.44794840379E+00  0.13979290581E+00  0.10509704089E+01  0.93800000000E+00 0.  1.
         22    1    1    2    0    0  0.41590153287E-01 -0.39166400238E+00  0.32950822643E+01  0.33185384675E+01  0.00000000000E+00 0. -1.
</event>
<event>
 5    1  0.6645559E+001  0.1599676E+01  0.7818608E-02  0.3353715E+00
         11   -1    0    0    0    0  0.00000000000E+00  0.00000000000E+00  0.39999999674E+01  0.40000000000E+01  0.51100000000E-03 0. -1.
    9000002   -1    0    0    0    0 -0.00000000000E+00 -0.00000000000E+00  0.00000000000E+00  0.93800000000E+00  0.93800000000E+00 0. -1.
         11    1    1    2    0    0  0.53397580334E-01 -0.10481787674E+00  0.11847636086E+01  0.11905894163E+01  0.51100000000E-03 0. -1.
    9000002    1    1    2    0    0 -0.17826061743E+00  0.34565990812E+00  0.10188405575E+00  0.10205302448E+01  0.93800000000E+00 0. -1.
         22    1    1    2    0    0  0.12486303709E+00 -0.24084203137E+00  0.27133523030E+01  0.27268803388E+01  0.00000000000E+00 0. -1.
</event>
<event>
 5    1  0.6645559E+001  0.1599543E+01  0.7818608E-02  0.3353860E+00
         11   -1    0    0    0    0  0.00000000000E+00  0.00000000000E+00  0.39999999674E+01  0.40000000000E+01  0.51100000000E-03 0. -1.
    9000002   -1    0    0    0    0 -0.00000000000E+00 -0.00000000000E+00  0.00000000000E+00  0.93800000000E+00  0.93800000000E+00 0.  1.
         11    1    1    2    0    0  0.12354306145E+00 -0.36867088436E-02  0.73141031642E+00  0.74178015068E+00  0.51100000000E-03 0. -1.
    9000002    1    1    2    0    0 -0.60609111255E+00 -0.31532446387E-01  0.25750841832E+00  0.11465144209E+01  0.93800000000E+00 0.  1.
         22    1    1    2    0    0  0.48254805110E+00  0.35219155231E-01  0.30110812326E+01  0.30497054284E+01  0.00000000000E+00 0. -1.
</event>
<event>
 5    1  0.6645559E+001  0.1595726E+01  0.7818608E-02  0.3358015E+00
         11   -1    0    0    0    0  0.00000000000E+00  0.00000000000E+00  0.39999999674E+01  0.40000000000E+01  0.51100000000E-03 0. -1.
    9000002   -1    0    0    0    0 -0.00000000000E+00 -0.00000000000E+00  0.00000000000E+00  0.93800000000E+00  0.93800000000E+00 0.  1.
         11    1    1    2    0    0 -0.27955010916E-01  0.10211041230E+00  0.61356653605E+00  0.62263325820E+00  0.51100000000E-03 0. -1.
    9000002    1    1    2    0    0  0.44759918524E+00 -0.42297051029E+00  0.26952246353E+00  0.11540084235E+01  0.93800000000E+00 0.  1.
         22    1    1    2    0    0 -0.41964417432E+00  0.32086009798E+00  0.31169109678E+01  0.31613583183E+01  0.00000000000E+00 0. -1.
</event>
<event>
 5    1  0.6645559E+001  0.1596287E+01  0.7818608E-02  0.3357404E+00
         11   -1    0    0    0    0  0.00000000000E+00  0.00000000000E+00  0.39999999674E+01  0.40000000000E+01  0.51100000000E-03 0. -1.
    9000002   -1    0    0    0    0 -0.00000000000E+00 -0.00000000000E+00  0.00000000000E+00  0.93800000000E+00  0.93800000000E+00 0.  1.
         11    1    1    2    0    0 -0.14194760158E+00  0.11499686026E+00  0.10631316883E+01  0.10787134222E+01  0.51100000000E-03 0. -1.
    9000002    1    1    2    0    0  0.30660452042E+00 -0.32395721560E+00  0.13797321152E+00  0.10477763199E+01  0.93800000000E+00 0.  1.
         22    1    1    2    0    0 -0.16465691883E+00  0.20896035535E+00  0.27988950676E+01  0.28115102579E+01  0.00000000000E+00 0. -1.
</event>
<event>
 5    1  0.6645559E+001  0.1564394E+01  0.7818608E-02  0.3392940E+00
         11   -1    0    0    0    0  0.00000000000E+00  0.00000000000E+00  0.39999999674E+01  0.40000000000E+01  0.51100000000E-03 0. -1.
    9000002   -1    0    0    0    0 -0.00000000000E+00 -0.00000000000E+00  0.00000000000E+00  0.93800000000E+00  0.93800000000E+00 0. -1.
         11    1    1    2    0    0 -0.49383815277E-01  0.96254129067E-01  0.24570439281E+00  0.26846699674E+00  0.51100000000E-03 0. -1.
    9000002    1    1    2    0    0  0.59203705075E+00  0.26345691728E+00  0.33423277518E+00  0.11880542768E+01  0.93800000000E+00 0. -1.
         22    1    1    2    0    0 -0.54265323547E+00 -0.35971104634E+00  0.34200627994E+01  0.34814787264E+01  0.00000000000E+00 0. -1.
</event>
<event>
 5    1  0.6645559E+001  0.1588991E+01  0.7818608E-02  0.3365400E+00
         11   -1    0    0    0    0  0.00000000000E+00  0.00000000000E+00  0.39999999674E+01  0.40000000000E+01  0.51100000000E-03 0. -1.
    9000002   -1    0    0    0    0 -0.00000000000E+00 -0.00000000000E+00  0.00000000000E+00  0.93800000000E+00  0.93800000000E+00 0.  1.
         11    1    1    2    0    0 -0.36004056269E-01 -0.18101456434E-01  0.13035854209E+01  0.13042082524E+01  0.51100000000E-03 0. -1.
    9000002    1    1    2    0    0  0.95603929480E-01 -0.29856020213E+00  0.74119744410E-01  0.99177418909E+00  0.93800000000E+00 0.  1.
         22    1    1    2    0    0 -0.59599873211E-01  0.31666165857E+00  0.26222948020E+01  0.26420175586E+01  0.00000000000E+00 0. -1.
</event>
