<event>
 5    1  0.6776507E+001  0.1597027E+01  0.7818608E-02  0.3356596E+00
         11   -1    0    0    0    0  0.00000000000E+00  0.00000000000E+00  0.39999999674E+01  0.40000000000E+01  0.51100000000E-03 0.  1.
    9000002   -1    0    0    0    0 -0.00000000000E+00 -0.00000000000E+00  0.00000000000E+00  0.93800000000E+00  0.93800000000E+00 0.  1.
         11    1    1    2    0    0 -0.81258934784E-01 -0.15074052391E+00  0.10239470969E+01  0.10381684056E+01  0.51100000000E-03 0.  1.
    9000002    1    1    2    0    0  0.37837608834E+00  0.37030143078E+00  0.19531693719E+00  0.10946617376E+01  0.93800000000E+00 0.  1.
         22    1    1    2    0    0 -0.29711715355E+00 -0.21956090686E+00  0.27807359333E+01  0.28051698568E+01  0.00000000000E+00 0.  1.
</event>
<event>
 5    1  0.6776507E+001  0.1597580E+01  0.7818608E-02  0.3355995E+00
         11   -1    0    0    0    0  0.00000000000E+00  0.00000000000E+00  0.39999999674E+01  0.40000000000E+01  0.51100000000E-03 0. -1.
    9000002   -1    0    0    0    0 -0.00000000000E+00 -0.00000000000E+00  0.00000000000E+00  0.93800000000E+00  0.93800000000E+00 0.  1.
         11    1    1    2    0    0 -0.16254567966E-03 -0.77877372952E-01  0.84120517466E+00  0.84480253233E+00  0.51100000000E-03 0. -1.
    9000002    1    1    2    0    0  0.32499911433E-01  0.55562102971E+00  0.21622332458E+00  0.11119206352E+01  0.93800000000E+00 0.  1.
         22    1    1    2    0    0 -0.32337365753E-01 -0.47774365675E+00  0.29425714681E+01  0.29812768325E+01  0.00000000000E+00 0. -1.
</event>
<event>
 5    1  0.6776507E+001  0.1599551E+01  0.7818608E-02  0.3353851E+00
         11   -1    0    0    0    0  0.00000000000E+00  0.00000000000E+00  0.39999999674E+01  0.40000000000E+01  0.51100000000E-03 0.  1.
    9000002   -1    0    0    0    0 -0.00000000000E+00 -0.00000000000E+00  0.00000000000E+00  0.93800000000E+00  0.93800000000E+00 0.  1.
         11    1    1    2    0    0  0.88703921938E-01 -0.13503469288E+00  0.12550812504E+01  0.12654374581E+01  0.51100000000E-03 0.  1.
    9000002    1    1    2    0    0 -0.26192747942E+00  0.37719351009E+00  0.14353417953E+00  0.10541949579E+01  0.93800000000E+00 0.  1.
         22    1    1    2    0    0  0.17322355749E+00 -0.24215881722E+00  0.26013845374E+01  0.26183675841E+01  0.00000000000E+00 0.  1.
</event>
<event>
 5    1  0.6776507E+001  0.1598867E+01  0.7818608E-02  0.3354594E+00
         11   -1    0    0    0    0  0.00000000000E+00  0.00000000000E+00  0.39999999674E+01  0.40000000000E+01  0.51100000000E-03 0. -1.
    9000002   -1    0    0    0    0 -0.00000000000E+00 -0.00000000000E+00  0.00000000000E+00  0.93800000000E+00  0.93800000000E+00 0. -1.
         11    1    1    2    0    0 -0.12875806414E-01 -0.72518753323E-01  0.65862611733E+00  0.66273175533E+00  0.51100000000E-03 0. -1.
    9000002    1    1    2    0    0 -0.62347344918E-01  0.48424447907E+00  0.16358975316E+00  0.10700399592E+01  0.93800000000E+00 0. -1.
         22    1    1    2    0    0  0.75223151332E-01 -0.41172572574E+00  0.31777840969E+01  0.32052282855E+01  0.00000000000E+00 0. -1.
</event>
<event>
 5    1  0.6776507E+001  0.1545212E+01  0.7818608E-02  0.3415063E+00
         11   -1    0    0    0    0  0.00000000000E+00  0.00000000000E+00  0.39999999674E+01  0.40000000000E+01  0.51100000000E-03 0.  1.
    9000002   -1    0    0    0    0 -0.00000000000E+00 -0.00000000000E+00  0.00000000000E+00  0.93800000000E+00  0.93800000000E+00 0. -1.
         11    1    1    2    0    0 -0.30796403736E+00 -0.31804498570E+00  0.92392003892E+00  0.10245110837E+01  0.51100000000E-03 0.  1.
    9000002    1    1    2    0    0  0.48226042808E+00  0.53476510441E+00  0.43839584644E+00  0.12611834742E+01  0.93800000000E+00 0.  1.
         22    1    1    2    0    0 -0.17429639072E+00 -0.21672011871E+00  0.26376840820E+01  0.26523054421E+01  0.00000000000E+00 0.  1.
</event>
<event>
 5    1  0.6776507E+001  0.1599384E+01  0.7818608E-02  0.3354032E+00
         11   -1    0    0    0    0  0.00000000000E+00  0.00000000000E+00  0.39999999674E+01  0.40000000000E+01  0.51100000000E-03 0. -1.
    9000002   -1    0    0    0    0 -0.00000000000E+00 -0.00000000000E+00  0.00000000000E+00  0.93800000000E+00  0.93800000000E+00 0. -1.
         11    1    1    2    0    0 -0.13842131537E-02 -0.62525826734E-03  0.53449684207E-02  0.55800360549E-02  0.51100000000E-03 0. -1.
    9000002    1    1    2    0    0 -0.43751731821E-01  0.36964152813E+00  0.93373647697E-01  0.10134651999E+01  0.93800000000E+00 0. -1.
         22    1    1    2    0    0  0.45135944975E-01 -0.36901626987E+00  0.39012813512E+01  0.39189547640E+01  0.00000000000E+00 0. -1.
</event>
<event>
 5    1  0.6776507E+001  0.1599676E+01  0.7818608E-02  0.3353715E+00
         11   -1    0    0    0    0  0.00000000000E+00  0.00000000000E+00  0.39999999674E+01  0.40000000000E+01  0.51100000000E-03 0. -1.
    9000002   -1    0    0    0    0 -0.00000000000E+00 -0.00000000000E+00  0.00000000000E+00  0.93800000000E+00  0.93800000000E+00 0. -1.
         11    1    1    2    0    0  0.10203396991E+00  0.96024283359E-01  0.10881495959E+01  0.10971332637E+01  0.51100000000E-03 0. -1.
    9000002    1    1    2    0    0 -0.36142375960E+00 -0.33635863064E+00  0.16669649111E+00  0.10730312123E+01  0.93800000000E+00 0. -1.
         22    1    1    2    0    0  0.25938978969E+00  0.24033434728E+00  0.27451538803E+01  0.27678355240E+01  0.00000000000E+00 0. -1.
</event>
<event>
 5    1  0.6776507E+001  0.1587770E+01  0.7818608E-02  0.3366746E+00
         11   -1    0    0    0    0  0.00000000000E+00  0.00000000000E+00  0.39999999674E+01  0.40000000000E+01  0.51100000000E-03 0. -1.
    9000002   -1    0    0    0    0 -0.00000000000E+00 -0.00000000000E+00  0.00000000000E+00  0.93800000000E+00  0.93800000000E+00 0.  1.
         11    1    1    2    0    0 -0.15866679889E-01  0.31597921257E-01  0.14106966806E+01  0.14111398109E+01  0.51100000000E-03 0. -1.
    9000002    1    1    2    0    0 -0.23021822967E+00  0.13234009561E+00  0.56119539711E-01  0.97647720758E+00  0.93800000000E+00 0.  1.
         22    1    1    2    0    0  0.24608490956E+00 -0.16393801686E+00  0.25331837471E+01  0.25503829815E+01  0.00000000000E+00 0. -1.
</event>
<event>
 5    1  0.6776507E+001  0.1599674E+01  0.7818608E-02  0.3353718E+00
         11   -1    0    0    0    0  0.00000000000E+00  0.00000000000E+00  0.39999999674E+01  0.40000000000E+01  0.51100000000E-03 0. -1.
    9000002   -1    0    0    0    0 -0.00000000000E+00 -0.00000000000E+00  0.00000000000E+00  0.93800000000E+00  0.93800000000E+00 0. -1.
         11    1    1    2    0    0 -0.12158560632E+00 -0.24147025839E+00  0.13818638094E+01  0.14080620705E+01  0.51100000000E-03 0. -1.
    9000002    1    1    2    0    0  0.31578001238E+00  0.63315500258E+00  0.35850340382E+00  0.12284017926E+01  0.93800000000E+00 0. -1.
         22    1    1    2    0    0 -0.19419440607E+00 -0.39168474419E+00  0.22596327541E+01  0.23015361369E+01  0.00000000000E+00 0. -1.
</event>
<event>
 5    1  0.6776507E+001  0.1599677E+01  0.7818608E-02  0.3353714E+00
         11   -1    0    0    0    0  0.00000000000E+00  0.00000000000E+00  0.39999999674E+01  0.40000000000E+01  0.51100000000E-03 0.  1.
    9000002   -1    0    0    0    0 -0.00000000000E+00 -0.00000000000E+00  0.00000000000E+00  0.93800000000E+00  0.93800000000E+00 0.  1.
         11    1    1    2    0    0  0.11892564807E+00  0.24363423764E+00  0.14246937107E+01  0.14502597636E+01  0.51100000000E-03 0.  1.
    9000002    1    1    2    0    0 -0.30464455398E+00 -0.62597344398E+00  0.34601278662E+00  0.12182856419E+01  0.93800000000E+00 0.  1.
         22    1    1    2    0    0  0.18571890591E+00  0.38233920634E+00  0.22292934701E+01  0.22694545945E+01  0.00000000000E+00 0.  1.
</event>
<event>
 5    1  0.6776507E+001  0.1599562E+01  0.7818608E-02  0.3353839E+00
         11   -1    0    0    0    0  0.00000000000E+00  0.00000000000E+00  0.39999999674E+01  0.40000000000E+01  0.51100000000E-03 0.  1.
    9000002   -1    0    0    0    0 -0.00000000000E+00 -0.00000000000E+00  0.00000000000E+00  0.93800000000E+00  0.93800000000E+00 0. -1.
         11    1    1    2    0    0  0.16352834298E-01 -0.47557164715E-01  0.60462080154E+00  0.60670888726E+00  0.51100000000E-03 0.  1.
    9000002    1    1    2    0    0 -0.12383500860E+00  0.36434677248E+00  0.99789743759E-01  0.10187667412E+01  0.93800000000E+00 0. -1.
         22    1    1    2    0    0  0.10748217430E+00 -0.31678960777E+00  0.32955894221E+01  0.33125243716E+01  0.00000000000E+00 0. -1.
</event>
<event>
 5    1  0.6776507E+001  0.1598477E+01  0.7818608E-02  0.3355018E+00
         11   -1    0    0    0    0  0.00000000000E+00  0.00000000000E+00  0.39999999674E+01  0.40000000000E+01  0.51100000000E-03 0.  1.
    9000002   -1    0    0    0    0 -0.00000000000E+00 -0.00000000000E+00  0.00000000000E+00  0.93800000000E+00  0.93800000000E+00 0. -1.
         11    1    1    2    0    0  0.24912564252E-01  0.19079510579E+00  0.11028664707E+01  0.11195258467E+01  0.51100000000E-03 0.  1.
    9000002    1    1    2    0    0  0.44125660327E-01 -0.63425107286E+00  0.28552599094E+00  0.11685848659E+01  0.93800000000E+00 0. -1.
         22    1    1    2    0    0 -0.69038224579E-01  0.44345596707E+00  0.26116075058E+01  0.26498892874E+01  0.00000000000E+00 0.  1.
</event>
<event>
 5    1  0.6776507E+001  0.1599648E+01  0.7818608E-02  0.3353746E+00
         11   -1    0    0    0    0  0.00000000000E+00  0.00000000000E+00  0.39999999674E+01  0.40000000000E+01  0.51100000000E-03 0.  1.
    9000002   -1    0    0    0    0 -0.00000000000E+00 -0.00000000000E+00  0.00000000000E+00  0.93800000000E+00  0.93800000000E+00 0.  1.
         11    1    1    2    0    0  0.14763971716E+00  0.16148412386E+00  0.12308934872E+01  0.12501894441E+01  0.51100000000E-03 0.  1.
    9000002    1    1    2    0    0 -0.46032270639E+00 -0.48350181690E+00  0.31587531755E+00  0.11938560287E+01  0.93800000000E+00 0.  1.
         22    1    1    2    0    0  0.31268298923E+00  0.32201769303E+00  0.24532311626E+01  0.24939545272E+01  0.00000000000E+00 0.  1.
</event>
<event>
 5    1  0.6776507E+001  0.1530175E+01  0.7818608E-02  0.3432820E+00
         11   -1    0    0    0    0  0.00000000000E+00  0.00000000000E+00  0.39999999674E+01  0.40000000000E+01  0.51100000000E-03 0. -1.
    9000002   -1    0    0    0    0 -0.00000000000E+00 -0.00000000000E+00  0.00000000000E+00  0.93800000000E+00  0.93800000000E+00 0.  1.
         11    1    1    2    0    0  0.11009301208E+00  0.25410843994E+00  0.10824609620E+01  0.11173242886E+01  0.51100000000E-03 0. -1.
    9000002    1    1    2    0    0  0.10088166594E+00 -0.21348441943E-01  0.59608639076E-01  0.94553162631E+00  0.93800000000E+00 0.  1.
         22    1    1    2    0    0 -0.21097467802E+00 -0.23275999799E+00  0.28579303663E+01  0.28751440851E+01  0.00000000000E+00 0. -1.
</event>
<event>
 5    1  0.6776507E+001  0.1464813E+01  0.7818608E-02  0.3514568E+00
         11   -1    0    0    0    0  0.00000000000E+00  0.00000000000E+00  0.39999999674E+01  0.40000000000E+01  0.51100000000E-03 0.  1.
    9000002   -1    0    0    0    0 -0.00000000000E+00 -0.00000000000E+00  0.00000000000E+00  0.93800000000E+00  0.93800000000E+00 0. -1.
         11    1    1    2    0    0  0.43760993100E-01  0.22619537501E+00  0.22806609659E+00  0.32418170480E+00  0.51100000000E-03 0.  1.
    9000002    1    1    2    0    0  0.29671119857E+00 -0.11605745791E+00  0.18337364357E+00  0.10074605511E+01  0.93800000000E+00 0. -1.
         22    1    1    2    0    0 -0.34047219167E+00 -0.11013791710E+00  0.35885602272E+01  0.36063577441E+01  0.00000000000E+00 0.  1.
</event>
<event>
 5    1  0.6776507E+001  0.1599520E+01  0.7818608E-02  0.3353884E+00
         11   -1    0    0    0    0  0.00000000000E+00  0.00000000000E+00  0.39999999674E+01  0.40000000000E+01  0.51100000000E-03 0.  1.
    9000002   -1    0    0    0    0 -0.00000000000E+00 -0.00000000000E+00  0.00000000000E+00  0.93800000000E+00  0.93800000000E+00 0. -1.
         11    1    1    2    0    0 -0.10847232467E+00  0.74244266765E-01  0.14883556382E+01  0.14941489964E+01  0.51100000000E-03 0.  1.
    9000002    1    1    2    0    0  0.27889290157E+00 -0.23311202793E+00  0.88851654507E-01  0.10098817181E+01  0.93800000000E+00 0. -1.
         22    1    1    2    0    0 -0.17042057689E+00  0.15886776116E+00  0.24227926746E+01  0.24339692855E+01  0.00000000000E+00 0.  1.
</event>
<event>
 5    1  0.6776507E+001  0.1599676E+01  0.7818608E-02  0.3353715E+00
         11   -1    0    0    0    0  0.00000000000E+00  0.00000000000E+00  0.39999999674E+01  0.40000000000E+01  0.51100000000E-03 0.  1.
    9000002   -1    0    0    0    0 -0.00000000000E+00 -0.00000000000E+00  0.00000000000E+00  0.93800000000E+00  0.93800000000E+00 0. -1.
         11    1    1    2    0    0  0.22074012445E-01 -0.59812560443E-01  0.46016112050E+00  0.46455712496E+00  0.51100000000E-03 0.  1.
    9000002    1    1    2    0    0 -0.18683559162E+00  0.49498076465E+00  0.19258941088E+00  0.10940055653E+01  0.93800000000E+00 0. -1.
         22    1    1    2    0    0  0.16476157918E+00 -0.43516820421E+00  0.33472494360E+01  0.33794373098E+01  0.00000000000E+00 0.  1.
</event>
<event>
 5    1  0.6776507E+001  0.1596961E+01  0.7818608E-02  0.3356668E+00
         11   -1    0    0    0    0  0.00000000000E+00  0.00000000000E+00  0.39999999674E+01  0.40000000000E+01  0.51100000000E-03 0.  1.
    9000002   -1    0    0    0    0 -0.00000000000E+00 -0.00000000000E+00  0.00000000000E+00  0.93800000000E+00  0.93800000000E+00 0.  1.
         11    1    1    2    0    0  0.11685528894E+00  0.14112301052E+00  0.91486556468E+00  0.93303275677E+00  0.51100000000E-03 0.  1.
    9000002    1    1    2    0    0 -0.27161810624E+00 -0.50462645031E+00  0.23049563266E+00  0.11231190884E+01  0.93800000000E+00 0.  1.
         22    1    1    2    0    0  0.15476281730E+00  0.36350343978E+00  0.28546387700E+01  0.28818481549E+01  0.00000000000E+00 0.  1.
</event>
<event>
 5    1  0.6776507E+001  0.1594672E+01  0.7818608E-02  0.3359166E+00
         11   -1    0    0    0    0  0.00000000000E+00  0.00000000000E+00  0.39999999674E+01  0.40000000000E+01  0.51100000000E-03 0. -1.
    9000002   -1    0    0    0    0 -0.00000000000E+00 -0.00000000000E+00  0.00000000000E+00  0.93800000000E+00  0.93800000000E+00 0.  1.
         11    1    1    2    0    0  0.76344676066E-01 -0.73341186668E-02  0.13525721629E+01  0.13547450003E+01  0.51100000000E-03 0. -1.
    9000002    1    1    2    0    0 -0.27977101577E+00 -0.20595624886E+00  0.84934762957E-01  0.10038663814E+01  0.93800000000E+00 0.  1.
         22    1    1    2    0    0  0.20342633971E+00  0.21329036753E+00  0.25624930415E+01  0.25793886183E+01  0.00000000000E+00 0. -1.
</event>
<event>
 5    1  0.6776507E+001  0.1587502E+01  0.7818608E-02  0.3367041E+00
         11   -1    0    0    0    0  0.00000000000E+00  0.00000000000E+00  0.39999999674E+01  0.40000000000E+01  0.51100000000E-03 0. -1.
    9000002   -1    0    0    0    0 -0.00000000000E+00 -0.00000000000E+00  0.00000000000E+00  0.93800000000E+00  0.93800000000E+00 0.  1.
         11    1    1    2    0    0 -0.13316374617E+00 -0.11383157733E+00  0.67463438536E+00  0.69700934450E+00  0.51100000000E-03 0. -1.
    9000002    1    1    2    0    0  0.48024622599E+00  0.13347277646E+00  0.18106910178E+00  0.10775348900E+01  0.93800000000E+00 0.  1.
         22    1    1    2    0    0 -0.34708247981E+00 -0.19641199128E-01  0.31442964802E+01  0.31634557655E+01  0.00000000000E+00 0. -1.
</event>
<event>
 5    1  0.6776507E+001  0.1578715E+01  0.7818608E-02  0.3376794E+00
         11   -1    0    0    0    0  0.00000000000E+00  0.00000000000E+00  0.39999999674E+01  0.40000000000E+01  0.51100000000E-03 0. -1.
    9000002   -1    0    0    0    0 -0.00000000000E+00 -0.00000000000E+00  0.00000000000E+00  0.93800000000E+00  0.93800000000E+00 0.  1.
         11    1    1    2    0    0  0.11736891423E+00  0.47274663572E-01  0.11616874163E+01  0.11685582014E+01  0.51100000000E-03 0. -1.
    9000002    1    1    2    0    0 -0.22344708973E-01  0.22581841554E+00  0.50186716767E-01  0.96636222472E+00  0.93800000000E+00 0.  1.
         22    1    1    2    0    0 -0.95024205254E-01 -0.27309307912E+00  0.27881258343E+01  0.28030795739E+01  0.00000000000E+00 0. -1.
</event>
<event>
 5    1  0.6776507E+001  0.1566325E+01  0.7818608E-02  0.3390744E+00
         11   -1    0    0    0    0  0.00000000000E+00  0.00000000000E+00  0.39999999674E+01  0.40000000000E+01  0.51100000000E-03 0. -1.
    9000002   -1    0    0    0    0 -0.00000000000E+00 -0.00000000000E+00  0.00000000000E+00  0.93800000000E+00  0.93800000000E+00 0. -1.
         11    1    1    2    0    0 -0.30492062407E+00  0.73227888954E-01  0.11362923402E+01  0.11787703144E+01  0.51100000000E-03 0. -1.
    9000002    1    1    2    0    0  0.55252109510E+00  0.25655182418E+00  0.29373797408E+00  0.11563841907E+01  0.93800000000E+00 0. -1.
         22    1    1    2    0    0 -0.24760047103E+00 -0.32977971313E+00  0.25699696531E+01  0.26028454949E+01  0.00000000000E+00 0. -1.
</event>
<event>
 5    1  0.6776507E+001  0.1599643E+01  0.7818608E-02  0.3353751E+00
         11   -1    0    0    0    0  0.00000000000E+00  0.00000000000E+00  0.39999999674E+01  0.40000000000E+01  0.51100000000E-03 0.  1.
    9000002   -1    0    0    0    0 -0.00000000000E+00 -0.00000000000E+00  0.00000000000E+00  0.93800000000E+00  0.93800000000E+00 0. -1.
         11    1    1    2    0    0 -0.35018597231E-01  0.43844366109E-01  0.51394962714E+00  0.51700397576E+00  0.51100000000E-03 0.  1.
    9000002    1    1    2    0    0  0.24581619751E+00 -0.30202580032E+00  0.10217945125E+00  0.10207496399E+01  0.93800000000E+00 0. -1.
         22    1    1    2    0    0 -0.21079760028E+00  0.25818143421E+00  0.33838708890E+01  0.34002463844E+01  0.00000000000E+00 0.  1.
</event>
<event>
 5    1  0.6776507E+001  0.1599454E+01  0.7818608E-02  0.3353956E+00
         11   -1    0    0    0    0  0.00000000000E+00  0.00000000000E+00  0.39999999674E+01  0.40000000000E+01  0.51100000000E-03 0.  1.
    9000002   -1    0    0    0    0 -0.00000000000E+00 -0.00000000000E+00  0.00000000000E+00  0.93800000000E+00  0.93800000000E+00 0.  1.
         11    1    1    2    0    0 -0.68685337707E-02 -0.46216848421E-03  0.10503845797E+00  0.10526504229E+00  0.51100000000E-03 0.  1.
    9000002    1    1    2    0    0  0.45128697470E+00 -0.64446049133E-01  0.14146025708E+00  0.10524581850E+01  0.93800000000E+00 0.  1.
         22    1    1    2    0    0 -0.44441844093E+00  0.64908217617E-01  0.37535012523E+01  0.37802767727E+01  0.00000000000E+00 0.  1.
</event>
<event>
 5    1  0.6776507E+001  0.1599677E+01  0.7818608E-02  0.3353714E+00
         11   -1    0    0    0    0  0.00000000000E+00  0.00000000000E+00  0.39999999674E+01  0.40000000000E+01  0.51100000000E-03 0. -1.
    9000002   -1    0    0    0    0 -0.00000000000E+00 -0.00000000000E+00  0.00000000000E+00  0.93800000000E+00  0.93800000000E+00 0.  1.
         11    1    1    2    0    0 -0.80313100842E-02 -0.10595139368E+00  0.10439694772E+01  0.10493630117E+01  0.51100000000E-03 0.  1.
    9000002    1    1    2    0    0  0.30495037966E-01  0.39567385376E+00  0.10618591812E+00  0.10240152319E+01  0.93800000000E+00 0.  1.
         22    1    1    2    0    0 -0.22463727882E-01 -0.28972246008E+00  0.28498445720E+01  0.28646217565E+01  0.00000000000E+00 0. -1.
</event>
<event>
 5    1  0.6776507E+001  0.1568688E+01  0.7818608E-02  0.3388066E+00
         11   -1    0    0    0    0  0.00000000000E+00  0.00000000000E+00  0.39999999674E+01  0.40000000000E+01  0.51100000000E-03 0.  1.
    9000002   -1    0    0    0    0 -0.00000000000E+00 -0.00000000000E+00  0.00000000000E+00  0.93800000000E+00  0.93800000000E+00 0. -1.
         11    1    1    2    0    0 -0.98282839457E-01  0.91996247611E-01  0.77710114914E+00  0.78867565147E+00  0.51100000000E-03 0.  1.
    9000002    1    1    2    0    0 -0.64501647087E-01  0.17686438742E+00  0.46945203985E-01  0.95785663133E+00  0.93800000000E+00 0. -1.
         22    1    1    2    0    0  0.16278448654E+00 -0.26886063503E+00  0.31759536142E+01  0.31914677172E+01  0.00000000000E+00 0.  1.
</event>
<event>
 5    1  0.6776507E+001  0.1599677E+01  0.7818608E-02  0.3353715E+00
         11   -1    0    0    0    0  0.00000000000E+00  0.00000000000E+00  0.39999999674E+01  0.40000000000E+01  0.51100000000E-03 0. -1.
    9000002   -1    0    0    0    0 -0.00000000000E+00 -0.00000000000E+00  0.00000000000E+00  0.93800000000E+00  0.93800000000E+00 0.  1.
         11    1    1    2    0    0  0.13410882900E+00  0.58312009926E-01  0.13716538435E+01  0.13794274160E+01  0.51100000000E-03 0. -1.
    9000002    1    1    2    0    0 -0.38012451427E+00 -0.16300562870E+00  0.11559306300E+00  0.10316352250E+01  0.93800000000E+00 0.  1.
         22    1    1    2    0    0  0.24601568528E+00  0.10469361878E+00  0.25127530609E+01  0.25269373590E+01  0.00000000000E+00 0. -1.
</event>
<event>
 5    1  0.7247102E+001  0.1579665E+01  0.7818608E-02  0.3375734E+00
         11   -1    0    0    0    0  0.00000000000E+00  0.00000000000E+00  0.39999999674E+01  0.40000000000E+01  0.51100000000E-03 0.  1.
    9000002   -1    0    0    0    0 -0.00000000000E+00 -0.00000000000E+00  0.00000000000E+00  0.93800000000E+00  0.93800000000E+00 0. -1.
         11    1    1    2    0    0  0.10237707934E+00  0.24495102722E-01  0.13313959179E+01  0.13355509828E+01  0.51100000000E-03 0.  1.
    9000002    1    1    2    0    0  0.16501003699E+00  0.19162350083E-01  0.33219899958E-01  0.95317525656E+00  0.93800000000E+00 0. -1.
         22    1    1    2    0    0 -0.26738711634E+00 -0.43657452805E-01  0.26353841495E+01  0.26492737606E+01  0.00000000000E+00 0.  1.
</event>
<event>
 5    1  0.6776507E+001  0.1599364E+01  0.7818608E-02  0.3354054E+00
         11   -1    0    0    0    0  0.00000000000E+00  0.00000000000E+00  0.39999999674E+01  0.40000000000E+01  0.51100000000E-03 0. -1.
    9000002   -1    0    0    0    0 -0.00000000000E+00 -0.00000000000E+00  0.00000000000E+00  0.93800000000E+00  0.93800000000E+00 0. -1.
         11    1    1    2    0    0 -0.53411155014E-01  0.24993642382E+00  0.97269906149E+00  0.10057160100E+01  0.51100000000E-03 0. -1.
    9000002    1    1    2    0    0  0.12384631704E+00 -0.85930482585E+00  0.56979607822E+00  0.13993763842E+01  0.93800000000E+00 0. -1.
         22    1    1    2    0    0 -0.70435162029E-01  0.60936840203E+00  0.24575048276E+01  0.25329076058E+01  0.00000000000E+00 0. -1.
</event>
<event>
 5    1  0.6776507E+001  0.1486620E+01  0.7818608E-02  0.3486431E+00
         11   -1    0    0    0    0  0.00000000000E+00  0.00000000000E+00  0.39999999674E+01  0.40000000000E+01  0.51100000000E-03 0.  1.
    9000002   -1    0    0    0    0 -0.00000000000E+00 -0.00000000000E+00  0.00000000000E+00  0.93800000000E+00  0.93800000000E+00 0.  1.
         11    1    1    2    0    0 -0.16880234173E+00  0.11507643884E+00  0.16697859112E+00  0.26385399061E+00  0.51100000000E-03 0.  1.
    9000002    1    1    2    0    0  0.51717916638E+00  0.22063686658E+00  0.33636344500E+00  0.11441762470E+01  0.93800000000E+00 0.  1.
         22    1    1    2    0    0 -0.34837682465E+00 -0.33571330541E+00  0.34966579312E+01  0.35299697624E+01  0.00000000000E+00 0.  1.
</event>
<event>
 5    1  0.6776507E+001  0.1599674E+01  0.7818608E-02  0.3353717E+00
         11   -1    0    0    0    0  0.00000000000E+00  0.00000000000E+00  0.39999999674E+01  0.40000000000E+01  0.51100000000E-03 0.  1.
    9000002   -1    0    0    0    0 -0.00000000000E+00 -0.00000000000E+00  0.00000000000E+00  0.93800000000E+00  0.93800000000E+00 0.  1.
         11    1    1    2    0    0 -0.14522789032E-01 -0.32253240109E-02  0.14957927295E+00  0.15031810980E+00  0.51100000000E-03 0. -1.
    9000002    1    1    2    0    0  0.36731902103E+00  0.75241379673E-01  0.94535625838E-01  0.10145765190E+01  0.93800000000E+00 0.  1.
         22    1    1    2    0    0 -0.35279623200E+00 -0.72016055662E-01  0.37558850686E+01  0.37731053712E+01  0.00000000000E+00 0.  1.
</event>
<event>
 5    1  0.6776507E+001  0.1594405E+01  0.7818608E-02  0.3359459E+00
         11   -1    0    0    0    0  0.00000000000E+00  0.00000000000E+00  0.39999999674E+01  0.40000000000E+01  0.51100000000E-03 0.  1.
    9000002   -1    0    0    0    0 -0.00000000000E+00 -0.00000000000E+00  0.00000000000E+00  0.93800000000E+00  0.93800000000E+00 0.  1.
         11    1    1    2    0    0  0.11847743615E+00 -0.61637415828E-01  0.13632402191E+01  0.13697664874E+01  0.51100000000E-03 0.  1.
    9000002    1    1    2    0    0 -0.13950336227E+00  0.30681871227E+00  0.80287039523E-01  0.99994445796E+00  0.93800000000E+00 0.  1.
         22    1    1    2    0    0  0.21025926120E-01 -0.24518129644E+00  0.25564727088E+01  0.25682890547E+01  0.00000000000E+00 0.  1.
</event>
<event>
 5    1  0.6776507E+001  0.1599269E+01  0.7818608E-02  0.3354157E+00
         11   -1    0    0    0    0  0.00000000000E+00  0.00000000000E+00  0.39999999674E+01  0.40000000000E+01  0.51100000000E-03 0. -1.
    9000002   -1    0    0    0    0 -0.00000000000E+00 -0.00000000000E+00  0.00000000000E+00  0.93800000000E+00  0.93800000000E+00 0.  1.
         11    1    1    2    0    0  0.56771371360E-01  0.28069577489E-01  0.76655110859E+00  0.76916302108E+00  0.51100000000E-03 0. -1.
    9000002    1    1    2    0    0 -0.37085219484E+00 -0.88142882349E-01  0.98113483370E-01  0.10172368327E+01  0.93800000000E+00 0.  1.
         22    1    1    2    0    0  0.31408082348E+00  0.60073304860E-01  0.31353353754E+01  0.31516001463E+01  0.00000000000E+00 0. -1.
</event>
<event>
 5    1  0.6776507E+001  0.1599653E+01  0.7818608E-02  0.3353740E+00
         11   -1    0    0    0    0  0.00000000000E+00  0.00000000000E+00  0.39999999674E+01  0.40000000000E+01  0.51100000000E-03 0. -1.
    9000002   -1    0    0    0    0 -0.00000000000E+00 -0.00000000000E+00  0.00000000000E+00  0.93800000000E+00  0.93800000000E+00 0. -1.
         11    1    1    2    0    0 -0.85179474345E-01  0.78477978375E-01  0.12974196436E+01  0.13025791065E+01  0.51100000000E-03 0. -1.
    9000002    1    1    2    0    0  0.26078962091E+00 -0.25301829912E+00  0.88680253328E-01  0.10098206145E+01  0.93800000000E+00 0. -1.
         22    1    1    2    0    0 -0.17561014656E+00  0.17454032075E+00  0.26139000705E+01  0.26256002791E+01  0.00000000000E+00 0. -1.
</event>
<event>
 5    1  0.6776507E+001  0.1582033E+01  0.7818608E-02  0.3373098E+00
         11   -1    0    0    0    0  0.00000000000E+00  0.00000000000E+00  0.39999999674E+01  0.40000000000E+01  0.51100000000E-03 0. -1.
    9000002   -1    0    0    0    0 -0.00000000000E+00 -0.00000000000E+00  0.00000000000E+00  0.93800000000E+00  0.93800000000E+00 0. -1.
         11    1    1    2    0    0 -0.69255971477E-01  0.21885623979E+00  0.11747040100E+01  0.11969228110E+01  0.51100000000E-03 0. -1.
    9000002    1    1    2    0    0 -0.12626017200E+00 -0.38912088790E+00  0.12794554056E+00  0.10312956694E+01  0.93800000000E+00 0. -1.
         22    1    1    2    0    0  0.19551614348E+00  0.17026464811E+00  0.26973504168E+01  0.27097815196E+01  0.00000000000E+00 0. -1.
</event>
<event>
 5    1  0.6776507E+001  0.1599228E+01  0.7818608E-02  0.3354202E+00
         11   -1    0    0    0    0  0.00000000000E+00  0.00000000000E+00  0.39999999674E+01  0.40000000000E+01  0.51100000000E-03 0.  1.
    9000002   -1    0    0    0    0 -0.00000000000E+00 -0.00000000000E+00  0.00000000000E+00  0.93800000000E+00  0.93800000000E+00 0.  1.
         11    1    1    2    0    0  0.12301675410E+00 -0.60734676170E-01  0.12772249861E+01  0.12845722046E+01  0.51100000000E-03 0.  1.
    9000002    1    1    2    0    0 -0.38646822307E+00  0.25431268076E+00  0.14603529796E+00  0.10560316924E+01  0.93800000000E+00 0.  1.
         22    1    1    2    0    0  0.26345146897E+00 -0.19357800459E+00  0.25767396833E+01  0.25973961030E+01  0.00000000000E+00 0.  1.
</event>
<event>
 5    1  0.6776507E+001  0.1596050E+01  0.7818608E-02  0.3357662E+00
         11   -1    0    0    0    0  0.00000000000E+00  0.00000000000E+00  0.39999999674E+01  0.40000000000E+01  0.51100000000E-03 0.  1.
    9000002   -1    0    0    0    0 -0.00000000000E+00 -0.00000000000E+00  0.00000000000E+00  0.93800000000E+00  0.93800000000E+00 0.  1.
         11    1    1    2    0    0  0.19404386384E-01  0.18401925934E-02  0.26331856130E+00  0.26403947123E+00  0.51100000000E-03 0.  1.
    9000002    1    1    2    0    0  0.68828001981E-02  0.42320682542E+00  0.12428977782E+00  0.10365535871E+01  0.93800000000E+00 0.  1.
         22    1    1    2    0    0 -0.26287186582E-01 -0.42504701801E+00  0.36123916282E+01  0.36374069417E+01  0.00000000000E+00 0.  1.
</event>
<event>
 5    1  0.7532587E+001  0.1539194E+01  0.7818608E-02  0.3422125E+00
         11   -1    0    0    0    0  0.00000000000E+00  0.00000000000E+00  0.39999999674E+01  0.40000000000E+01  0.51100000000E-03 0.  1.
    9000002   -1    0    0    0    0 -0.00000000000E+00 -0.00000000000E+00  0.00000000000E+00  0.93800000000E+00  0.93800000000E+00 0. -1.
         11    1    1    2    0    0  0.20221686959E+00 -0.13440316424E+00  0.90316454366E+00  0.93523383544E+00  0.51100000000E-03 0.  1.
    9000002    1    1    2    0    0  0.56702703700E-01  0.35783187832E-01  0.48264833714E-01  0.94163109938E+00  0.93800000000E+00 0. -1.
         22    1    1    2    0    0 -0.25891957329E+00  0.98619976404E-01  0.30485705900E+01  0.30611350652E+01  0.00000000000E+00 0.  1.
</event>
<event>
 5    1  0.6776507E+001  0.1599676E+01  0.7818608E-02  0.3353715E+00
         11   -1    0    0    0    0  0.00000000000E+00  0.00000000000E+00  0.39999999674E+01  0.40000000000E+01  0.51100000000E-03 0.  1.
    9000002   -1    0    0    0    0 -0.00000000000E+00 -0.00000000000E+00  0.00000000000E+00  0.93800000000E+00  0.93800000000E+00 0. -1.
         11    1    1    2    0    0 -0.35680771449E-01  0.17792472277E+00  0.13889501563E+01  0.14007544832E+01  0.51100000000E-03 0. -1.
    9000002    1    1    2    0    0  0.99081989091E-01 -0.48835458735E+00  0.16993260060E+00  0.10756526076E+01  0.93800000000E+00 0. -1.
         22    1    1    2    0    0 -0.63401217641E-01  0.31042986459E+00  0.24411172105E+01  0.24615929092E+01  0.00000000000E+00 0.  1.
</event>
<event>
 5    1  0.6776507E+001  0.1599197E+01  0.7818608E-02  0.3354236E+00
         11   -1    0    0    0    0  0.00000000000E+00  0.00000000000E+00  0.39999999674E+01  0.40000000000E+01  0.51100000000E-03 0.  1.
    9000002   -1    0    0    0    0 -0.00000000000E+00 -0.00000000000E+00  0.00000000000E+00  0.93800000000E+00  0.93800000000E+00 0. -1.
         11    1    1    2    0    0  0.60538324098E-01  0.40687986009E-01  0.54291604443E+00  0.54779420708E+00  0.51100000000E-03 0.  1.
    9000002    1    1    2    0    0 -0.37157138770E+00 -0.17512480970E+00  0.11437708879E+00  0.10303689211E+01  0.93800000000E+00 0. -1.
         22    1    1    2    0    0  0.31103306360E+00  0.13443682369E+00  0.33427068341E+01  0.33598368718E+01  0.00000000000E+00 0.  1.
</event>
<event>
 5    1  0.7908431E+001  0.1591874E+01  0.7818608E-02  0.3362230E+00
         11   -1    0    0    0    0  0.00000000000E+00  0.00000000000E+00  0.39999999674E+01  0.40000000000E+01  0.51100000000E-03 0.  1.
    9000002   -1    0    0    0    0 -0.00000000000E+00 -0.00000000000E+00  0.00000000000E+00  0.93800000000E+00  0.93800000000E+00 0.  1.
         11    1    1    2    0    0  0.47734498731E-04  0.20278148380E-01  0.13229446755E+01  0.13231001780E+01  0.51100000000E-03 0.  1.
    9000002    1    1    2    0    0 -0.29803773525E+00 -0.84683392757E-01  0.70265484447E-01  0.99034287343E+00  0.93800000000E+00 0.  1.
         22    1    1    2    0    0  0.29799000075E+00  0.64405244376E-01  0.26067898074E+01  0.26245569485E+01  0.00000000000E+00 0.  1.
</event>
<event>
 5    1  0.6776507E+001  0.1561787E+01  0.7818608E-02  0.3395912E+00
         11   -1    0    0    0    0  0.00000000000E+00  0.00000000000E+00  0.39999999674E+01  0.40000000000E+01  0.51100000000E-03 0.  1.
    9000002   -1    0    0    0    0 -0.00000000000E+00 -0.00000000000E+00  0.00000000000E+00  0.93800000000E+00  0.93800000000E+00 0.  1.
         11    1    1    2    0    0  0.24664020256E+00  0.10151810871E-01  0.60152434140E+00  0.65020477020E+00  0.51100000000E-03 0.  1.
    9000002    1    1    2    0    0 -0.46480972400E+00 -0.28465503409E+00  0.24151060386E+00  0.11114170863E+01  0.93800000000E+00 0.  1.
         22    1    1    2    0    0  0.21816952144E+00  0.27450322322E+00  0.31569650221E+01  0.31763781435E+01  0.00000000000E+00 0.  1.
</event>
<event>
 5    1  0.7472823E+001  0.1593087E+01  0.7818608E-02  0.3360901E+00
         11   -1    0    0    0    0  0.00000000000E+00  0.00000000000E+00  0.39999999674E+01  0.40000000000E+01  0.51100000000E-03 0.  1.
    9000002   -1    0    0    0    0 -0.00000000000E+00 -0.00000000000E+00  0.00000000000E+00  0.93800000000E+00  0.93800000000E+00 0.  1.
         11    1    1    2    0    0 -0.30146945615E-01 -0.87456145777E-02  0.68050786253E+00  0.68123163182E+00  0.51100000000E-03 0.  1.
    9000002    1    1    2    0    0 -0.21320769962E+00  0.23044235653E+00  0.71054026732E-01  0.99169243093E+00  0.93800000000E+00 0.  1.
         22    1    1    2    0    0  0.24335464523E+00 -0.22169674195E+00  0.32484380781E+01  0.32650759372E+01  0.00000000000E+00 0.  1.
</event>
<event>
 5    1  0.6776507E+001  0.1565182E+01  0.7818608E-02  0.3392043E+00
         11   -1    0    0    0    0  0.00000000000E+00  0.00000000000E+00  0.39999999674E+01  0.40000000000E+01  0.51100000000E-03 0.  1.
    9000002   -1    0    0    0    0 -0.00000000000E+00 -0.00000000000E+00  0.00000000000E+00  0.93800000000E+00  0.93800000000E+00 0. -1.
         11    1    1    2    0    0 -0.89291547231E-01  0.77490255629E-01  0.82356631516E+00  0.83200928884E+00  0.51100000000E-03 0.  1.
    9000002    1    1    2    0    0 -0.38743465643E+00 -0.68106041128E-01  0.13343578775E+00  0.10258621522E+01  0.93800000000E+00 0. -1.
         22    1    1    2    0    0  0.47672620367E+00 -0.93842145012E-02  0.30429978644E+01  0.30801285590E+01  0.00000000000E+00 0.  1.
</event>
<event>
 5    1  0.6776507E+001  0.1591497E+01  0.7818608E-02  0.3362645E+00
         11   -1    0    0    0    0  0.00000000000E+00  0.00000000000E+00  0.39999999674E+01  0.40000000000E+01  0.51100000000E-03 0.  1.
    9000002   -1    0    0    0    0 -0.00000000000E+00 -0.00000000000E+00  0.00000000000E+00  0.93800000000E+00  0.93800000000E+00 0. -1.
         11    1    1    2    0    0  0.18762840223E-01  0.44615234592E-01  0.13940182756E+01  0.13948583359E+01  0.51100000000E-03 0.  1.
    9000002    1    1    2    0    0  0.23969520716E+00 -0.91311312325E-01  0.50022434375E-01  0.97372367335E+00  0.93800000000E+00 0. -1.
         22    1    1    2    0    0 -0.25845804738E+00  0.46696077733E-01  0.25559592574E+01  0.25694179908E+01  0.00000000000E+00 0.  1.
</event>
<event>
 5    1  0.6776507E+001  0.1599675E+01  0.7818608E-02  0.3353716E+00
         11   -1    0    0    0    0  0.00000000000E+00  0.00000000000E+00  0.39999999674E+01  0.40000000000E+01  0.51100000000E-03 0.  1.
    9000002   -1    0    0    0    0 -0.00000000000E+00 -0.00000000000E+00  0.00000000000E+00  0.93800000000E+00  0.93800000000E+00 0.  1.
         11    1    1    2    0    0  0.95882917875E-02  0.95862175762E-01  0.71867969455E+00  0.72510844469E+00  0.51100000000E-03 0.  1.
    9000002    1    1    2    0    0 -0.56809756382E-01 -0.51169712353E+00  0.18191209279E+00  0.10853558422E+01  0.93800000000E+00 0.  1.
         22    1    1    2    0    0  0.47221464595E-01  0.41583494777E+00  0.30994081800E+01  0.31275357131E+01  0.00000000000E+00 0. -1.
</event>
<event>
 5    1  0.6776507E+001  0.1599677E+01  0.7818608E-02  0.3353714E+00
         11   -1    0    0    0    0  0.00000000000E+00  0.00000000000E+00  0.39999999674E+01  0.40000000000E+01  0.51100000000E-03 0. -1.
    9000002   -1    0    0    0    0 -0.00000000000E+00 -0.00000000000E+00  0.00000000000E+00  0.93800000000E+00  0.93800000000E+00 0. -1.
         11    1    1    2    0    0 -0.13696432772E+00 -0.13884322722E+00  0.12710040174E+01  0.12858802985E+01  0.51100000000E-03 0. -1.
    9000002    1    1    2    0    0  0.40513367877E+00  0.41221635196E+00  0.23200349608E+00  0.11259330534E+01  0.93800000000E+00 0. -1.
         22    1    1    2    0    0 -0.26816935106E+00 -0.27337312474E+00  0.24969924539E+01  0.25261866481E+01  0.00000000000E+00 0. -1.
</event>
<event>
 5    1  0.6776507E+001  0.1502065E+01  0.7818608E-02  0.3467037E+00
         11   -1    0    0    0    0  0.00000000000E+00  0.00000000000E+00  0.39999999674E+01  0.40000000000E+01  0.51100000000E-03 0. -1.
    9000002   -1    0    0    0    0 -0.00000000000E+00 -0.00000000000E+00  0.00000000000E+00  0.93800000000E+00  0.93800000000E+00 0. -1.
         11    1    1    2    0    0  0.14497206734E+00 -0.30363715790E+00  0.10884264073E+01  0.11392474398E+01  0.51100000000E-03 0. -1.
    9000002    1    1    2    0    0 -0.12733610946E+00 -0.59033345496E-01  0.88654093544E-01  0.95257701471E+00  0.93800000000E+00 0. -1.
         22    1    1    2    0    0 -0.17635957884E-01  0.36267050339E+00  0.28229194666E+01  0.28461755455E+01  0.00000000000E+00 0. -1.
</event>
<event>
 5    1  0.6776507E+001  0.1599647E+01  0.7818608E-02  0.3353747E+00
         11   -1    0    0    0    0  0.00000000000E+00  0.00000000000E+00  0.39999999674E+01  0.40000000000E+01  0.51100000000E-03 0.  1.
    9000002   -1    0    0    0    0 -0.00000000000E+00 -0.00000000000E+00  0.00000000000E+00  0.93800000000E+00  0.93800000000E+00 0.  1.
         11    1    1    2    0    0 -0.17683112998E+00 -0.67240601143E-01  0.12766599700E+01  0.12906012115E+01  0.51100000000E-03 0.  1.
    9000002    1    1    2    0    0  0.50720774916E+00  0.20397242692E+00  0.20632507699E+00  0.11051146950E+01  0.93800000000E+00 0.  1.
         22    1    1    2    0    0 -0.33037661918E+00 -0.13673182578E+00  0.25170149203E+01  0.25422840935E+01  0.00000000000E+00 0. -1.
</event>
<event>
 5    1  0.6776507E+001  0.1599677E+01  0.7818608E-02  0.3353715E+00
         11   -1    0    0    0    0  0.00000000000E+00  0.00000000000E+00  0.39999999674E+01  0.40000000000E+01  0.51100000000E-03 0.  1.
    9000002   -1    0    0    0    0 -0.00000000000E+00 -0.00000000000E+00  0.00000000000E+00  0.93800000000E+00  0.93800000000E+00 0. -1.
         11    1    1    2    0    0 -0.79902930066E-01 -0.63525495843E-01  0.10917621177E+01  0.10965239394E+01  0.51100000000E-03 0.  1.
    9000002    1    1    2    0    0  0.28863082303E+00  0.22676917169E+00  0.90514393530E-01  0.10113203571E+01  0.93800000000E+00 0. -1.
         22    1    1    2    0    0 -0.20872789297E+00 -0.16324367585E+00  0.28177234561E+01  0.28301557035E+01  0.00000000000E+00 0.  1.
</event>
<event>
 5    1  0.6776507E+001  0.1594086E+01  0.7818608E-02  0.3359808E+00
         11   -1    0    0    0    0  0.00000000000E+00  0.00000000000E+00  0.39999999674E+01  0.40000000000E+01  0.51100000000E-03 0. -1.
    9000002   -1    0    0    0    0 -0.00000000000E+00 -0.00000000000E+00  0.00000000000E+00  0.93800000000E+00  0.93800000000E+00 0.  1.
         11    1    1    2    0    0  0.19583817528E-02 -0.77285082948E-02  0.80426989342E-02  0.11336279226E-01  0.51100000000E-03 0. -1.
    9000002    1    1    2    0    0 -0.10852011722E+00 -0.43356440759E+00  0.14044221550E+00  0.10484859213E+01  0.93800000000E+00 0.  1.
         22    1    1    2    0    0  0.10656173547E+00  0.44129291589E+00  0.38515150529E+01  0.38781777994E+01  0.00000000000E+00 0. -1.
</event>
<event>
 5    1  0.6776507E+001  0.1599677E+01  0.7818608E-02  0.3353714E+00
         11   -1    0    0    0    0  0.00000000000E+00  0.00000000000E+00  0.39999999674E+01  0.40000000000E+01  0.51100000000E-03 0. -1.
    9000002   -1    0    0    0    0 -0.00000000000E+00 -0.00000000000E+00  0.00000000000E+00  0.93800000000E+00  0.93800000000E+00 0.  1.
         11    1    1    2    0    0 -0.11864100069E+00  0.21604851893E-01  0.12431449208E+01  0.12489803889E+01  0.51100000000E-03 0.  1.
    9000002    1    1    2    0    0  0.37295695334E+00 -0.68535738334E-01  0.96741139124E-01  0.10163645431E+01  0.93800000000E+00 0.  1.
         22    1    1    2    0    0 -0.25431595265E+00  0.46930886441E-01  0.26601139075E+01  0.26726550680E+01  0.00000000000E+00 0. -1.
</event>
<event>
 5    1  0.6776507E+001  0.1572727E+01  0.7818608E-02  0.3383507E+00
         11   -1    0    0    0    0  0.00000000000E+00  0.00000000000E+00  0.39999999674E+01  0.40000000000E+01  0.51100000000E-03 0. -1.
    9000002   -1    0    0    0    0 -0.00000000000E+00 -0.00000000000E+00  0.00000000000E+00  0.93800000000E+00  0.93800000000E+00 0. -1.
         11    1    1    2    0    0 -0.10801996830E+00 -0.49858496463E-01  0.10538513917E+01  0.10605457086E+01  0.51100000000E-03 0. -1.
    9000002    1    1    2    0    0 -0.19845245509E+00 -0.67857502794E-01  0.49685947302E-01  0.96244517297E+00  0.93800000000E+00 0. -1.
         22    1    1    2    0    0  0.30647242339E+00  0.11771599926E+00  0.28964626284E+01  0.29150091184E+01  0.00000000000E+00 0. -1.
</event>
<event>
 5    1  0.6776507E+001  0.1599675E+01  0.7818608E-02  0.3353716E+00
         11   -1    0    0    0    0  0.00000000000E+00  0.00000000000E+00  0.39999999674E+01  0.40000000000E+01  0.51100000000E-03 0. -1.
    9000002   -1    0    0    0    0 -0.00000000000E+00 -0.00000000000E+00  0.00000000000E+00  0.93800000000E+00  0.93800000000E+00 0.  1.
         11    1    1    2    0    0 -0.11986830019E+00 -0.13708207673E-01  0.66221152749E+00  0.67311268939E+00  0.51100000000E-03 0. -1.
    9000002    1    1    2    0    0  0.67255326354E+00  0.74205853949E-01  0.32520858955E+00  0.12014320737E+01  0.93800000000E+00 0.  1.
         22    1    1    2    0    0 -0.55268496334E+00 -0.60497646276E-01  0.30125798503E+01  0.30634552369E+01  0.00000000000E+00 0. -1.
</event>
<event>
 5    1  0.6776507E+001  0.1599608E+01  0.7818608E-02  0.3353789E+00
         11   -1    0    0    0    0  0.00000000000E+00  0.00000000000E+00  0.39999999674E+01  0.40000000000E+01  0.51100000000E-03 0. -1.
    9000002   -1    0    0    0    0 -0.00000000000E+00 -0.00000000000E+00  0.00000000000E+00  0.93800000000E+00  0.93800000000E+00 0.  1.
         11    1    1    2    0    0  0.36701568522E-02 -0.43931864357E-01  0.43282966465E+00  0.43506925711E+00  0.51100000000E-03 0. -1.
    9000002    1    1    2    0    0  0.16360877632E-01  0.36942822689E+00  0.91951659013E-01  0.10124445667E+01  0.93800000000E+00 0.  1.
         22    1    1    2    0    0 -0.20031034485E-01 -0.32549636253E+00  0.34752186437E+01  0.34904861761E+01  0.00000000000E+00 0. -1.
</event>
<event>
 5    1  0.6776507E+001  0.1599038E+01  0.7818608E-02  0.3354408E+00
         11   -1    0    0    0    0  0.00000000000E+00  0.00000000000E+00  0.39999999674E+01  0.40000000000E+01  0.51100000000E-03 0.  1.
    9000002   -1    0    0    0    0 -0.00000000000E+00 -0.00000000000E+00  0.00000000000E+00  0.93800000000E+00  0.93800000000E+00 0.  1.
         11    1    1    2    0    0 -0.12406799846E+00  0.39331583849E-01  0.12862740421E+01  0.12928422232E+01  0.51100000000E-03 0.  1.
    9000002    1    1    2    0    0  0.37773331630E+00 -0.20479894300E+00  0.12557298047E+00  0.10393448122E+01  0.93800000000E+00 0.  1.
         22    1    1    2    0    0 -0.25366531783E+00  0.16546735915E+00  0.25881529448E+01  0.26058129645E+01  0.00000000000E+00 0.  1.
</event>
<event>
 5    1  0.6776507E+001  0.1599674E+01  0.7818608E-02  0.3353717E+00
         11   -1    0    0    0    0  0.00000000000E+00  0.00000000000E+00  0.39999999674E+01  0.40000000000E+01  0.51100000000E-03 0.  1.
    9000002   -1    0    0    0    0 -0.00000000000E+00 -0.00000000000E+00  0.00000000000E+00  0.93800000000E+00  0.93800000000E+00 0.  1.
         11    1    1    2    0    0  0.39133075519E-01  0.46210605934E-01  0.61155070993E+00  0.61454157682E+00  0.51100000000E-03 0.  1.
    9000002    1    1    2    0    0 -0.24520005881E+00 -0.28670462913E+00  0.95731217912E-01  0.10155447205E+01  0.93800000000E+00 0.  1.
         22    1    1    2    0    0  0.20606698329E+00  0.24049402319E+00  0.32927180395E+01  0.33079137027E+01  0.00000000000E+00 0.  1.
</event>
<event>
 5    1  0.6776507E+001  0.1594310E+01  0.7818608E-02  0.3359562E+00
         11   -1    0    0    0    0  0.00000000000E+00  0.00000000000E+00  0.39999999674E+01  0.40000000000E+01  0.51100000000E-03 0. -1.
    9000002   -1    0    0    0    0 -0.00000000000E+00 -0.00000000000E+00  0.00000000000E+00  0.93800000000E+00  0.93800000000E+00 0. -1.
         11    1    1    2    0    0  0.22583460917E-01 -0.97554447859E-01  0.91577861196E+00  0.92123700004E+00  0.51100000000E-03 0. -1.
    9000002    1    1    2    0    0  0.19148542757E+00  0.27990105807E+00  0.81330953902E-01  0.10007347278E+01  0.93800000000E+00 0. -1.
         22    1    1    2    0    0 -0.21406888849E+00 -0.18234661021E+00  0.30028904015E+01  0.30160282722E+01  0.00000000000E+00 0. -1.
</event>
<event>
 5    1  0.6776507E+001  0.1599677E+01  0.7818608E-02  0.3353714E+00
         11   -1    0    0    0    0  0.00000000000E+00  0.00000000000E+00  0.39999999674E+01  0.40000000000E+01  0.51100000000E-03 0. -1.
    9000002   -1    0    0    0    0 -0.00000000000E+00 -0.00000000000E+00  0.00000000000E+00  0.93800000000E+00  0.93800000000E+00 0. -1.
         11    1    1    2    0    0 -0.12029824794E+00  0.12955491107E-01  0.12450671319E+01  0.12509324272E+01  0.51100000000E-03 0. -1.
    9000002    1    1    2    0    0  0.37614600785E+00 -0.39284184539E-01  0.96214914786E-01  0.10159381754E+01  0.93800000000E+00 0. -1.
         22    1    1    2    0    0 -0.25584775991E+00  0.26328693432E-01  0.26587179207E+01  0.26711293975E+01  0.00000000000E+00 0. -1.
</event>
<event>
 5    1  0.6776507E+001  0.1522394E+01  0.7818608E-02  0.3442155E+00
         11   -1    0    0    0    0  0.00000000000E+00  0.00000000000E+00  0.39999999674E+01  0.40000000000E+01  0.51100000000E-03 0.  1.
    9000002   -1    0    0    0    0 -0.00000000000E+00 -0.00000000000E+00  0.00000000000E+00  0.93800000000E+00  0.93800000000E+00 0.  1.
         11    1    1    2    0    0  0.13332385186E+00 -0.23547790204E+00  0.56274621255E+00  0.62442665917E+00  0.51100000000E-03 0.  1.
    9000002    1    1    2    0    0 -0.41111650135E+00  0.29046007999E-01  0.18275388523E+00  0.10407225523E+01  0.93800000000E+00 0.  1.
         22    1    1    2    0    0  0.27779264949E+00  0.20643189404E+00  0.32544998696E+01  0.32728507885E+01  0.00000000000E+00 0.  1.
</event>
<event>
 5    1  0.6776507E+001  0.1599562E+01  0.7818608E-02  0.3353839E+00
         11   -1    0    0    0    0  0.00000000000E+00  0.00000000000E+00  0.39999999674E+01  0.40000000000E+01  0.51100000000E-03 0. -1.
    9000002   -1    0    0    0    0 -0.00000000000E+00 -0.00000000000E+00  0.00000000000E+00  0.93800000000E+00  0.93800000000E+00 0. -1.
         11    1    1    2    0    0  0.46308190391E-01 -0.19064123494E+00  0.10521582589E+01  0.10702923861E+01  0.51100000000E-03 0. -1.
    9000002    1    1    2    0    0 -0.14571091162E+00  0.69720344511E+00  0.36391829358E+00  0.12327225308E+01  0.93800000000E+00 0. -1.
         22    1    1    2    0    0  0.99402721227E-01 -0.50656221016E+00  0.25839234149E+01  0.26349850830E+01  0.00000000000E+00 0. -1.
</event>
<event>
 5    1  0.6776507E+001  0.1599676E+01  0.7818608E-02  0.3353715E+00
         11   -1    0    0    0    0  0.00000000000E+00  0.00000000000E+00  0.39999999674E+01  0.40000000000E+01  0.51100000000E-03 0.  1.
    9000002   -1    0    0    0    0 -0.00000000000E+00 -0.00000000000E+00  0.00000000000E+00  0.93800000000E+00  0.93800000000E+00 0.  1.
         11    1    1    2    0    0 -0.27853332691E-01 -0.23377542334E-01  0.39276483971E+00  0.39444492399E+00  0.51100000000E-03 0. -1.
    9000002    1    1    2    0    0  0.28084099286E+00  0.22913239034E+00  0.88211330701E-01  0.10094545827E+01  0.93800000000E+00 0.  1.
         22    1    1    2    0    0 -0.25298766017E+00 -0.20575484800E+00  0.35190237970E+01  0.35341004934E+01  0.00000000000E+00 0.  1.
</event>
<event>
 5    1  0.6776507E+001  0.1599092E+01  0.7818608E-02  0.3354350E+00
         11   -1    0    0    0    0  0.00000000000E+00  0.00000000000E+00  0.39999999674E+01  0.40000000000E+01  0.51100000000E-03 0.  1.
    9000002   -1    0    0    0    0 -0.00000000000E+00 -0.00000000000E+00  0.00000000000E+00  0.93800000000E+00  0.93800000000E+00 0. -1.
         11    1    1    2    0    0  0.38046758985E-01 -0.55234253070E-01  0.43534602082E+00  0.44048245997E+00  0.51100000000E-03 0.  1.
    9000002    1    1    2    0    0 -0.48057782125E+00  0.47686821427E+00  0.32624730828E+00  0.12019316296E+01  0.93800000000E+00 0. -1.
         22    1    1    2    0    0  0.44253106226E+00 -0.42163396120E+00  0.32384066383E+01  0.32955859104E+01  0.00000000000E+00 0.  1.
</event>
<event>
 5    1  0.6776507E+001  0.1598107E+01  0.7818608E-02  0.3355421E+00
         11   -1    0    0    0    0  0.00000000000E+00  0.00000000000E+00  0.39999999674E+01  0.40000000000E+01  0.51100000000E-03 0.  1.
    9000002   -1    0    0    0    0 -0.00000000000E+00 -0.00000000000E+00  0.00000000000E+00  0.93800000000E+00  0.93800000000E+00 0.  1.
         11    1    1    2    0    0  0.28737334732E-01 -0.27764649640E-03  0.11668899981E+00  0.12017693328E+00  0.51100000000E-03 0.  1.
    9000002    1    1    2    0    0 -0.40763523210E+00 -0.84094208586E-02  0.11355734753E+00  0.10290658249E+01  0.93800000000E+00 0.  1.
         22    1    1    2    0    0  0.37889789737E+00  0.86870673550E-02  0.37697536200E+01  0.37887572418E+01  0.00000000000E+00 0.  1.
</event>
<event>
 5    1  0.6776507E+001  0.1453025E+01  0.7818608E-02  0.3530158E+00
         11   -1    0    0    0    0  0.00000000000E+00  0.00000000000E+00  0.39999999674E+01  0.40000000000E+01  0.51100000000E-03 0.  1.
    9000002   -1    0    0    0    0 -0.00000000000E+00 -0.00000000000E+00  0.00000000000E+00  0.93800000000E+00  0.93800000000E+00 0.  1.
         11    1    1    2    0    0 -0.19121859596E+00 -0.88945728758E-01  0.18211907754E+00  0.27864585701E+00  0.51100000000E-03 0.  1.
    9000002    1    1    2    0    0  0.65371554673E-03 -0.24408172739E+00  0.16114324355E+00  0.98254132836E+00  0.93800000000E+00 0.  1.
         22    1    1    2    0    0  0.19056488041E+00  0.33302745615E+00  0.36567376463E+01  0.36768128146E+01  0.00000000000E+00 0.  1.
</event>
<event>
 5    1  0.6776507E+001  0.1599672E+01  0.7818608E-02  0.3353720E+00
         11   -1    0    0    0    0  0.00000000000E+00  0.00000000000E+00  0.39999999674E+01  0.40000000000E+01  0.51100000000E-03 0. -1.
    9000002   -1    0    0    0    0 -0.00000000000E+00 -0.00000000000E+00  0.00000000000E+00  0.93800000000E+00  0.93800000000E+00 0. -1.
         11    1    1    2    0    0 -0.24806316050E-01 -0.54519604072E-01  0.42070737135E+00  0.42495022529E+00  0.51100000000E-03 0. -1.
    9000002    1    1    2    0    0  0.20950334121E+00  0.49797650968E+00  0.20123316311E+00  0.11010045595E+01  0.93800000000E+00 0. -1.
         22    1    1    2    0    0 -0.18469702516E+00 -0.44345690560E+00  0.33780594329E+01  0.34120452152E+01  0.00000000000E+00 0. -1.
</event>
<event>
 5    1  0.6776507E+001  0.1553836E+01  0.7818608E-02  0.3405045E+00
         11   -1    0    0    0    0  0.00000000000E+00  0.00000000000E+00  0.39999999674E+01  0.40000000000E+01  0.51100000000E-03 0.  1.
    9000002   -1    0    0    0    0 -0.00000000000E+00 -0.00000000000E+00  0.00000000000E+00  0.93800000000E+00  0.93800000000E+00 0. -1.
         11    1    1    2    0    0  0.74327286881E-02  0.16547997550E+00  0.11844622428E+01  0.11959891026E+01  0.51100000000E-03 0.  1.
    9000002    1    1    2    0    0 -0.87449159500E-01  0.23284139187E+00  0.76962077657E-01  0.97346270122E+00  0.93800000000E+00 0. -1.
         22    1    1    2    0    0  0.80016430812E-01 -0.39832136736E+00  0.27385756469E+01  0.27685481962E+01  0.00000000000E+00 0.  1.
</event>
<event>
 5    1  0.6776507E+001  0.1599670E+01  0.7818608E-02  0.3353721E+00
         11   -1    0    0    0    0  0.00000000000E+00  0.00000000000E+00  0.39999999674E+01  0.40000000000E+01  0.51100000000E-03 0. -1.
    9000002   -1    0    0    0    0 -0.00000000000E+00 -0.00000000000E+00  0.00000000000E+00  0.93800000000E+00  0.93800000000E+00 0. -1.
         11    1    1    2    0    0  0.56197574903E-03 -0.10047950510E-01  0.98951424702E-01  0.99463172570E-01  0.51100000000E-03 0. -1.
    9000002    1    1    2    0    0 -0.54140459158E-01  0.38595483715E+00  0.10232701529E+00  0.10208854704E+01  0.93800000000E+00 0. -1.
         22    1    1    2    0    0  0.53578483409E-01 -0.37590688664E+00  0.37987215274E+01  0.38176513570E+01  0.00000000000E+00 0. -1.
</event>
<event>
 5    1  0.6776507E+001  0.1595987E+01  0.7818608E-02  0.3357730E+00
         11   -1    0    0    0    0  0.00000000000E+00  0.00000000000E+00  0.39999999674E+01  0.40000000000E+01  0.51100000000E-03 0. -1.
    9000002   -1    0    0    0    0 -0.00000000000E+00 -0.00000000000E+00  0.00000000000E+00  0.93800000000E+00  0.93800000000E+00 0. -1.
         11    1    1    2    0    0 -0.13644728808E+00  0.91726525711E-01  0.87204707430E+00  0.88741082868E+00  0.51100000000E-03 0. -1.
    9000002    1    1    2    0    0  0.32964692637E+00 -0.37155583655E+00  0.17212236593E+00  0.10752631978E+01  0.93800000000E+00 0. -1.
         22    1    1    2    0    0 -0.19319963828E+00  0.27982931084E+00  0.29558305271E+01  0.29753259735E+01  0.00000000000E+00 0. -1.
</event>
<event>
 5    1  0.6776507E+001  0.1599540E+01  0.7818608E-02  0.3353863E+00
         11   -1    0    0    0    0  0.00000000000E+00  0.00000000000E+00  0.39999999674E+01  0.40000000000E+01  0.51100000000E-03 0.  1.
    9000002   -1    0    0    0    0 -0.00000000000E+00 -0.00000000000E+00  0.00000000000E+00  0.93800000000E+00  0.93800000000E+00 0. -1.
         11    1    1    2    0    0 -0.47994435014E-02 -0.72892730550E-01  0.57661441770E+00  0.58122356511E+00  0.51100000000E-03 0.  1.
    9000002    1    1    2    0    0  0.49012319195E-01  0.42441530463E+00  0.12368504106E+00  0.10381100845E+01  0.93800000000E+00 0. -1.
         22    1    1    2    0    0 -0.44212875694E-01 -0.35152257408E+00  0.32997005086E+01  0.33186663503E+01  0.00000000000E+00 0.  1.
</event>
<event>
 5    1  0.6776507E+001  0.1599676E+01  0.7818608E-02  0.3353715E+00
         11   -1    0    0    0    0  0.00000000000E+00  0.00000000000E+00  0.39999999674E+01  0.40000000000E+01  0.51100000000E-03 0.  1.
    9000002   -1    0    0    0    0 -0.00000000000E+00 -0.00000000000E+00  0.00000000000E+00  0.93800000000E+00  0.93800000000E+00 0. -1.
         11    1    1    2    0    0  0.21219209864E-01  0.80597229284E-01  0.70611585290E+00  0.71101759969E+00  0.51100000000E-03 0.  1.
    9000002    1    1    2    0    0 -0.11524599002E+00 -0.43585646536E+00  0.13806385140E+00  0.10498371891E+01  0.93800000000E+00 0. -1.
         22    1    1    2    0    0  0.94026780151E-01  0.35525923608E+00  0.31558202631E+01  0.31771452112E+01  0.00000000000E+00 0.  1.
</event>
<event>
 5    1  0.6776507E+001  0.1599676E+01  0.7818608E-02  0.3353715E+00
         11   -1    0    0    0    0  0.00000000000E+00  0.00000000000E+00  0.39999999674E+01  0.40000000000E+01  0.51100000000E-03 0. -1.
    9000002   -1    0    0    0    0 -0.00000000000E+00 -0.00000000000E+00  0.00000000000E+00  0.93800000000E+00  0.93800000000E+00 0.  1.
         11    1    1    2    0    0 -0.36785588024E-01  0.14360152589E-01  0.40321442538E+00  0.40514383547E+00  0.51100000000E-03 0.  1.
    9000002    1    1    2    0    0  0.35264858183E+00 -0.14262217902E+00  0.97366743426E-01  0.10168708821E+01  0.93800000000E+00 0.  1.
         22    1    1    2    0    0 -0.31586299381E+00  0.12826202643E+00  0.34994187986E+01  0.35159852824E+01  0.00000000000E+00 0. -1.
</event>
<event>
 5    1  0.6776507E+001  0.1595400E+01  0.7818608E-02  0.3358371E+00
         11   -1    0    0    0    0  0.00000000000E+00  0.00000000000E+00  0.39999999674E+01  0.40000000000E+01  0.51100000000E-03 0.  1.
    9000002   -1    0    0    0    0 -0.00000000000E+00 -0.00000000000E+00  0.00000000000E+00  0.93800000000E+00  0.93800000000E+00 0.  1.
         11    1    1    2    0    0 -0.12184555536E+00  0.25429956398E-01  0.13955726238E+01  0.14011124978E+01  0.51100000000E-03 0.  1.
    9000002    1    1    2    0    0  0.35037501817E+00  0.13963720546E+00  0.99198558485E-01  0.10158472112E+01  0.93800000000E+00 0.  1.
         22    1    1    2    0    0 -0.22852946281E+00 -0.16506716186E+00  0.25052287851E+01  0.25210402910E+01  0.00000000000E+00 0.  1.
</event>
<event>
 5    1  0.6776507E+001  0.1599669E+01  0.7818608E-02  0.3353723E+00
         11   -1    0    0    0    0  0.00000000000E+00  0.00000000000E+00  0.39999999674E+01  0.40000000000E+01  0.51100000000E-03 0.  1.
    9000002   -1    0    0    0    0 -0.00000000000E+00 -0.00000000000E+00  0.00000000000E+00  0.93800000000E+00  0.93800000000E+00 0.  1.
         11    1    1    2    0    0  0.43736255844E-01  0.19601285658E+00  0.13560122187E+01  0.13708038877E+01  0.51100000000E-03 0.  1.
    9000002    1    1    2    0    0 -0.11275287222E+00 -0.54706238173E+00  0.21585418258E+00  0.11128465698E+01  0.93800000000E+00 0.  1.
         22    1    1    2    0    0  0.69016616377E-01  0.35104952515E+00  0.24281335660E+01  0.24543495425E+01  0.00000000000E+00 0.  1.
</event>
<event>
 5    1  0.6776507E+001  0.1597735E+01  0.7818608E-02  0.3355825E+00
         11   -1    0    0    0    0  0.00000000000E+00  0.00000000000E+00  0.39999999674E+01  0.40000000000E+01  0.51100000000E-03 0.  1.
    9000002   -1    0    0    0    0 -0.00000000000E+00 -0.00000000000E+00  0.00000000000E+00  0.93800000000E+00  0.93800000000E+00 0.  1.
         11    1    1    2    0    0  0.24130567192E-01  0.52628474589E-01  0.47929967452E+00  0.48278409225E+00  0.51100000000E-03 0.  1.
    9000002    1    1    2    0    0  0.82204584041E-01 -0.37597331591E+00  0.10131616738E+00  0.10189320359E+01  0.93800000000E+00 0.  1.
         22    1    1    2    0    0 -0.10633515123E+00  0.32334484132E+00  0.34193841255E+01  0.34362838719E+01  0.00000000000E+00 0.  1.
</event>
<event>
 5    1  0.6776507E+001  0.1599677E+01  0.7818608E-02  0.3353714E+00
         11   -1    0    0    0    0  0.00000000000E+00  0.00000000000E+00  0.39999999674E+01  0.40000000000E+01  0.51100000000E-03 0. -1.
    9000002   -1    0    0    0    0 -0.00000000000E+00 -0.00000000000E+00  0.00000000000E+00  0.93800000000E+00  0.93800000000E+00 0. -1.
         11    1    1    2    0    0 -0.84131485925E-01 -0.32160605303E-01  0.96688593963E+00  0.97107213575E+00  0.51100000000E-03 0. -1.
    9000002    1    1    2    0    0  0.33880559690E+00  0.13028614302E+00  0.88478424435E-01  0.10096713045E+01  0.93800000000E+00 0. -1.
         22    1    1    2    0    0 -0.25467411097E+00 -0.98125537713E-01  0.29446356033E+01  0.29572565597E+01  0.00000000000E+00 0. -1.
</event>
<event>
 5    1  0.6776507E+001  0.1528177E+01  0.7818608E-02  0.3435207E+00
         11   -1    0    0    0    0  0.00000000000E+00  0.00000000000E+00  0.39999999674E+01  0.40000000000E+01  0.51100000000E-03 0. -1.
    9000002   -1    0    0    0    0 -0.00000000000E+00 -0.00000000000E+00  0.00000000000E+00  0.93800000000E+00  0.93800000000E+00 0.  1.
         11    1    1    2    0    0 -0.27396149609E+00  0.23144347440E+00  0.13049028959E+01  0.13532896260E+01  0.51100000000E-03 0. -1.
    9000002    1    1    2    0    0  0.23485904808E+00  0.72089022439E-02  0.93049489510E-01  0.97144889121E+00  0.93800000000E+00 0.  1.
         22    1    1    2    0    0  0.39102448003E-01 -0.23865237665E+00  0.26020475820E+01  0.26132614828E+01  0.00000000000E+00 0. -1.
</event>
<event>
 5    1  0.6776507E+001  0.1599413E+01  0.7818608E-02  0.3354001E+00
         11   -1    0    0    0    0  0.00000000000E+00  0.00000000000E+00  0.39999999674E+01  0.40000000000E+01  0.51100000000E-03 0.  1.
    9000002   -1    0    0    0    0 -0.00000000000E+00 -0.00000000000E+00  0.00000000000E+00  0.93800000000E+00  0.93800000000E+00 0. -1.
         11    1    1    2    0    0 -0.58636132511E-01 -0.12360726790E+00  0.12606969000E+01  0.12680985323E+01  0.51100000000E-03 0.  1.
    9000002    1    1    2    0    0  0.23218325797E+00  0.35813283436E+00  0.12354036674E+00  0.10379183082E+01  0.93800000000E+00 0. -1.
         22    1    1    2    0    0 -0.17354712546E+00 -0.23452556646E+00  0.26157627006E+01  0.26319831595E+01  0.00000000000E+00 0.  1.
</event>
<event>
 5    1  0.6776507E+001  0.1599031E+01  0.7818608E-02  0.3354415E+00
         11   -1    0    0    0    0  0.00000000000E+00  0.00000000000E+00  0.39999999674E+01  0.40000000000E+01  0.51100000000E-03 0. -1.
    9000002   -1    0    0    0    0 -0.00000000000E+00 -0.00000000000E+00  0.00000000000E+00  0.93800000000E+00  0.93800000000E+00 0. -1.
         11    1    1    2    0    0 -0.29833613119E-01  0.81323489832E-02  0.19145851523E+00  0.19394020663E+00  0.51100000000E-03 0. -1.
    9000002    1    1    2    0    0  0.36695935408E+00 -0.43452517962E-01  0.92286349551E-01  0.10123774292E+01  0.93800000000E+00 0. -1.
         22    1    1    2    0    0 -0.33712574096E+00  0.35320168979E-01  0.37162551026E+01  0.37316823642E+01  0.00000000000E+00 0. -1.
</event>
<event>
 5    1  0.6776507E+001  0.1547185E+01  0.7818608E-02  0.3412760E+00
         11   -1    0    0    0    0  0.00000000000E+00  0.00000000000E+00  0.39999999674E+01  0.40000000000E+01  0.51100000000E-03 0.  1.
    9000002   -1    0    0    0    0 -0.00000000000E+00 -0.00000000000E+00  0.00000000000E+00  0.93800000000E+00  0.93800000000E+00 0.  1.
         11    1    1    2    0    0  0.12298920712E+00  0.19667368550E+00  0.90445302499E+00  0.93372502332E+00  0.51100000000E-03 0.  1.
    9000002    1    1    2    0    0 -0.29940175970E+00  0.13226323171E+00  0.11460650389E+00  0.10000568118E+01  0.93800000000E+00 0.  1.
         22    1    1    2    0    0  0.17641255258E+00 -0.32893691722E+00  0.29809404385E+01  0.30042181648E+01  0.00000000000E+00 0.  1.
</event>
<event>
 5    1  0.6776507E+001  0.1599645E+01  0.7818608E-02  0.3353749E+00
         11   -1    0    0    0    0  0.00000000000E+00  0.00000000000E+00  0.39999999674E+01  0.40000000000E+01  0.51100000000E-03 0. -1.
    9000002   -1    0    0    0    0 -0.00000000000E+00 -0.00000000000E+00  0.00000000000E+00  0.93800000000E+00  0.93800000000E+00 0. -1.
         11    1    1    2    0    0  0.15850811131E+00 -0.22289434615E+00  0.12982957265E+01  0.13267926610E+01  0.51100000000E-03 0. -1.
    9000002    1    1    2    0    0 -0.42426356148E+00  0.60843289713E+00  0.39790615516E+00  0.12603029272E+01  0.93800000000E+00 0. -1.
         22    1    1    2    0    0  0.26575545017E+00 -0.38553855098E+00  0.23037980857E+01  0.23509044118E+01  0.00000000000E+00 0. -1.
</event>
<event>
 5    1  0.6776507E+001  0.1599643E+01  0.7818608E-02  0.3353751E+00
         11   -1    0    0    0    0  0.00000000000E+00  0.00000000000E+00  0.39999999674E+01  0.40000000000E+01  0.51100000000E-03 0. -1.
    9000002   -1    0    0    0    0 -0.00000000000E+00 -0.00000000000E+00  0.00000000000E+00  0.93800000000E+00  0.93800000000E+00 0. -1.
         11    1    1    2    0    0  0.11861087633E+00  0.76935857237E-01  0.10619992992E+01  0.10713684888E+01  0.51100000000E-03 0. -1.
    9000002    1    1    2    0    0 -0.40820323426E+00 -0.28920243681E+00  0.17136094814E+00  0.10767899073E+01  0.93800000000E+00 0. -1.
         22    1    1    2    0    0  0.28959235793E+00  0.21226657958E+00  0.27666397200E+01  0.27898416039E+01  0.00000000000E+00 0. -1.
</event>
<event>
 5    1  0.6776507E+001  0.1599650E+01  0.7818608E-02  0.3353743E+00
         11   -1    0    0    0    0  0.00000000000E+00  0.00000000000E+00  0.39999999674E+01  0.40000000000E+01  0.51100000000E-03 0.  1.
    9000002   -1    0    0    0    0 -0.00000000000E+00 -0.00000000000E+00  0.00000000000E+00  0.93800000000E+00  0.93800000000E+00 0. -1.
         11    1    1    2    0    0  0.67602564687E-01 -0.32101859008E-01  0.58200677115E+00  0.58679875502E+00  0.51100000000E-03 0.  1.
    9000002    1    1    2    0    0 -0.45626617906E+00  0.18415671801E+00  0.16553058567E+00  0.10720713119E+01  0.93800000000E+00 0. -1.
         22    1    1    2    0    0  0.38866361437E+00 -0.15205485900E+00  0.32524626105E+01  0.32791299331E+01  0.00000000000E+00 0.  1.
</event>
<event>
 5    1  0.6776507E+001  0.1599669E+01  0.7818608E-02  0.3353722E+00
         11   -1    0    0    0    0  0.00000000000E+00  0.00000000000E+00  0.39999999674E+01  0.40000000000E+01  0.51100000000E-03 0. -1.
    9000002   -1    0    0    0    0 -0.00000000000E+00 -0.00000000000E+00  0.00000000000E+00  0.93800000000E+00  0.93800000000E+00 0.  1.
         11    1    1    2    0    0 -0.13651901127E-01 -0.33405551891E-01  0.35937061538E+00  0.36117835708E+00  0.51100000000E-03 0. -1.
    9000002    1    1    2    0    0  0.16710465231E+00  0.35515981948E+00  0.10382571830E+00  0.10220989394E+01  0.93800000000E+00 0.  1.
         22    1    1    2    0    0 -0.15345275119E+00 -0.32175426759E+00  0.35368036337E+01  0.35547227035E+01  0.00000000000E+00 0. -1.
</event>
<event>
 5    1  0.6776507E+001  0.1593506E+01  0.7818608E-02  0.3360442E+00
         11   -1    0    0    0    0  0.00000000000E+00  0.00000000000E+00  0.39999999674E+01  0.40000000000E+01  0.51100000000E-03 0. -1.
    9000002   -1    0    0    0    0 -0.00000000000E+00 -0.00000000000E+00  0.00000000000E+00  0.93800000000E+00  0.93800000000E+00 0.  1.
         11    1    1    2    0    0  0.10165447675E+00  0.81137275783E-01  0.45974360207E+00  0.47778795604E+00  0.51100000000E-03 0. -1.
    9000002    1    1    2    0    0 -0.43382588505E+00 -0.34083668998E+00  0.21615746763E+00  0.11094785255E+01  0.93800000000E+00 0.  1.
         22    1    1    2    0    0  0.33217140830E+00  0.25969941420E+00  0.33240988977E+01  0.33507335184E+01  0.00000000000E+00 0. -1.
</event>
<event>
 5    1  0.6776507E+001  0.1599146E+01  0.7818608E-02  0.3354291E+00
         11   -1    0    0    0    0  0.00000000000E+00  0.00000000000E+00  0.39999999674E+01  0.40000000000E+01  0.51100000000E-03 0.  1.
    9000002   -1    0    0    0    0 -0.00000000000E+00 -0.00000000000E+00  0.00000000000E+00  0.93800000000E+00  0.93800000000E+00 0. -1.
         11    1    1    2    0    0  0.13381306927E+00  0.63891876941E-01  0.76601762466E+00  0.78023802256E+00  0.51100000000E-03 0.  1.
    9000002    1    1    2    0    0 -0.54711882213E+00 -0.27776669136E+00  0.26399119200E+00  0.11515331909E+01  0.93800000000E+00 0. -1.
         22    1    1    2    0    0  0.41330575285E+00  0.21387481442E+00  0.29699911507E+01  0.30062287865E+01  0.00000000000E+00 0.  1.
</event>
<event>
 5    1  0.6776507E+001  0.1599677E+01  0.7818608E-02  0.3353714E+00
         11   -1    0    0    0    0  0.00000000000E+00  0.00000000000E+00  0.39999999674E+01  0.40000000000E+01  0.51100000000E-03 0. -1.
    9000002   -1    0    0    0    0 -0.00000000000E+00 -0.00000000000E+00  0.00000000000E+00  0.93800000000E+00  0.93800000000E+00 0. -1.
         11    1    1    2    0    0  0.94935352661E-01  0.17432523485E+00  0.11862581151E+01  0.12027512567E+01  0.51100000000E-03 0.  1.
    9000002    1    1    2    0    0 -0.29747277109E+00 -0.54634836411E+00  0.27131108469E+00  0.11577738506E+01  0.93800000000E+00 0. -1.
         22    1    1    2    0    0  0.20253741843E+00  0.37202312927E+00  0.25424307676E+01  0.25774748927E+01  0.00000000000E+00 0. -1.
</event>
<event>
 5    1  0.6776507E+001  0.1599674E+01  0.7818608E-02  0.3353717E+00
         11   -1    0    0    0    0  0.00000000000E+00  0.00000000000E+00  0.39999999674E+01  0.40000000000E+01  0.51100000000E-03 0. -1.
    9000002   -1    0    0    0    0 -0.00000000000E+00 -0.00000000000E+00  0.00000000000E+00  0.93800000000E+00  0.93800000000E+00 0. -1.
         11    1    1    2    0    0  0.18895304134E+00 -0.45087325743E-01  0.79944826806E+00  0.82271131826E+00  0.51100000000E-03 0. -1.
    9000002    1    1    2    0    0 -0.82056975214E+00  0.18795733883E+00  0.52985981396E+00  0.13672081414E+01  0.93800000000E+00 0. -1.
         22    1    1    2    0    0  0.63161671080E+00 -0.14287001308E+00  0.26706918853E+01  0.27480805404E+01  0.00000000000E+00 0. -1.
</event>
<event>
 5    1  0.6776507E+001  0.1599431E+01  0.7818608E-02  0.3353982E+00
         11   -1    0    0    0    0  0.00000000000E+00  0.00000000000E+00  0.39999999674E+01  0.40000000000E+01  0.51100000000E-03 0.  1.
    9000002   -1    0    0    0    0 -0.00000000000E+00 -0.00000000000E+00  0.00000000000E+00  0.93800000000E+00  0.93800000000E+00 0. -1.
         11    1    1    2    0    0 -0.85394009697E-02 -0.41476556174E-02  0.13441542022E+00  0.13475121791E+00  0.51100000000E-03 0.  1.
    9000002    1    1    2    0    0  0.39201814847E+00 -0.17537642168E-01  0.10397049859E+00  0.10220761528E+01  0.93800000000E+00 0. -1.
         22    1    1    2    0    0 -0.38347874750E+00  0.21685297786E-01  0.37616140485E+01  0.37811726292E+01  0.00000000000E+00 0.  1.
</event>
<event>
 5    1  0.6776507E+001  0.1546928E+01  0.7818608E-02  0.3413060E+00
         11   -1    0    0    0    0  0.00000000000E+00  0.00000000000E+00  0.39999999674E+01  0.40000000000E+01  0.51100000000E-03 0. -1.
    9000002   -1    0    0    0    0 -0.00000000000E+00 -0.00000000000E+00  0.00000000000E+00  0.93800000000E+00  0.93800000000E+00 0. -1.
         11    1    1    2    0    0 -0.76026533735E-01 -0.50643371011E-01  0.12751243190E+00  0.15685810872E+00  0.51100000000E-03 0. -1.
    9000002    1    1    2    0    0 -0.37920514154E+00 -0.31702358379E-01  0.14209407893E+00  0.10221723466E+01  0.93800000000E+00 0. -1.
         22    1    1    2    0    0  0.45523167528E+00  0.82345729390E-01  0.37303934565E+01  0.37589695447E+01  0.00000000000E+00 0. -1.
</event>
<event>
 5    1  0.6776507E+001  0.1598172E+01  0.7818608E-02  0.3355350E+00
         11   -1    0    0    0    0  0.00000000000E+00  0.00000000000E+00  0.39999999674E+01  0.40000000000E+01  0.51100000000E-03 0.  1.
    9000002   -1    0    0    0    0 -0.00000000000E+00 -0.00000000000E+00  0.00000000000E+00  0.93800000000E+00  0.93800000000E+00 0.  1.
         11    1    1    2    0    0 -0.76916349038E-01 -0.30996710843E-01  0.11753001077E+01  0.11782221883E+01  0.51100000000E-03 0.  1.
    9000002    1    1    2    0    0  0.35608982827E+00  0.20200729611E+00  0.11445444562E+00  0.10298304392E+01  0.93800000000E+00 0.  1.
         22    1    1    2    0    0 -0.27917347923E+00 -0.17101058527E+00  0.27102454141E+01  0.27299473724E+01  0.00000000000E+00 0.  1.
</event>
<event>
 5    1  0.6776507E+001  0.1571658E+01  0.7818608E-02  0.3384711E+00
         11   -1    0    0    0    0  0.00000000000E+00  0.00000000000E+00  0.39999999674E+01  0.40000000000E+01  0.51100000000E-03 0. -1.
    9000002   -1    0    0    0    0 -0.00000000000E+00 -0.00000000000E+00  0.00000000000E+00  0.93800000000E+00  0.93800000000E+00 0.  1.
         11    1    1    2    0    0  0.31019150474E-01 -0.99576833724E-01  0.32767375833E+00  0.34387219505E+00  0.51100000000E-03 0. -1.
    9000002    1    1    2    0    0  0.42370287609E+00  0.10004100910E+00  0.15278383692E+00  0.10453321154E+01  0.93800000000E+00 0.  1.
         22    1    1    2    0    0 -0.45472202656E+00 -0.46417537605E-03  0.35195423721E+01  0.35487956895E+01  0.00000000000E+00 0. -1.
</event>
<event>
 5    1  0.6776507E+001  0.1475521E+01  0.7818608E-02  0.3500638E+00
         11   -1    0    0    0    0  0.00000000000E+00  0.00000000000E+00  0.39999999674E+01  0.40000000000E+01  0.51100000000E-03 0.  1.
    9000002   -1    0    0    0    0 -0.00000000000E+00 -0.00000000000E+00  0.00000000000E+00  0.93800000000E+00  0.93800000000E+00 0.  1.
         11    1    1    2    0    0  0.34385278818E+00 -0.23071959208E+00  0.68917000723E+00  0.80400362568E+00  0.51100000000E-03 0.  1.
    9000002    1    1    2    0    0  0.43514416794E-01  0.19654772453E+00  0.17628321551E+00  0.97542005544E+00  0.93800000000E+00 0.  1.
         22    1    1    2    0    0 -0.38736720498E+00  0.34171867541E-01  0.31345467446E+01  0.31585763189E+01  0.00000000000E+00 0.  1.
</event>
<event>
 5    1  0.6776507E+001  0.1598774E+01  0.7818608E-02  0.3354695E+00
         11   -1    0    0    0    0  0.00000000000E+00  0.00000000000E+00  0.39999999674E+01  0.40000000000E+01  0.51100000000E-03 0.  1.
    9000002   -1    0    0    0    0 -0.00000000000E+00 -0.00000000000E+00  0.00000000000E+00  0.93800000000E+00  0.93800000000E+00 0. -1.
         11    1    1    2    0    0 -0.90085069794E-03  0.75854401124E-03  0.16234803765E-02  0.20697175000E-02  0.51100000000E-03 0.  1.
    9000002    1    1    2    0    0 -0.18302284535E+00  0.92476233678E+00  0.69518975726E+00  0.15006050580E+01  0.93800000000E+00 0. -1.
         22    1    1    2    0    0  0.18392369604E+00 -0.92552088079E+00  0.33031867297E+01  0.34353252245E+01  0.00000000000E+00 0.  1.
</event>
<event>
 5    1  0.6776507E+001  0.1598819E+01  0.7818608E-02  0.3354647E+00
         11   -1    0    0    0    0  0.00000000000E+00  0.00000000000E+00  0.39999999674E+01  0.40000000000E+01  0.51100000000E-03 0. -1.
    9000002   -1    0    0    0    0 -0.00000000000E+00 -0.00000000000E+00  0.00000000000E+00  0.93800000000E+00  0.93800000000E+00 0. -1.
         11    1    1    2    0    0 -0.11159625353E+00  0.73580031341E-01  0.51562913473E+00  0.53267383127E+00  0.51100000000E-03 0. -1.
    9000002    1    1    2    0    0  0.62788040780E+00 -0.61212126916E+00  0.58412469777E+00  0.14106636442E+01  0.93800000000E+00 0. -1.
         22    1    1    2    0    0 -0.51628415427E+00  0.53854123782E+00  0.29002461349E+01  0.29946625245E+01  0.00000000000E+00 0. -1.
</event>
<event>
 5    1  0.7454035E+001  0.1599669E+01  0.7818608E-02  0.3353722E+00
         11   -1    0    0    0    0  0.00000000000E+00  0.00000000000E+00  0.39999999674E+01  0.40000000000E+01  0.51100000000E-03 0.  1.
    9000002   -1    0    0    0    0 -0.00000000000E+00 -0.00000000000E+00  0.00000000000E+00  0.93800000000E+00  0.93800000000E+00 0. -1.
         11    1    1    2    0    0 -0.96373386072E-02 -0.12729472467E+00  0.14196316879E+01  0.14253600302E+01  0.51100000000E-03 0.  1.
    9000002    1    1    2    0    0  0.21689169016E-01  0.35839584292E+00  0.86534762669E-01  0.10080923893E+01  0.93800000000E+00 0. -1.
         22    1    1    2    0    0 -0.12051830409E-01 -0.23110111824E+00  0.24938335167E+01  0.25045475804E+01  0.00000000000E+00 0.  1.
</event>
<event>
 5    1  0.6776507E+001  0.1599666E+01  0.7818608E-02  0.3353726E+00
         11   -1    0    0    0    0  0.00000000000E+00  0.00000000000E+00  0.39999999674E+01  0.40000000000E+01  0.51100000000E-03 0.  1.
    9000002   -1    0    0    0    0 -0.00000000000E+00 -0.00000000000E+00  0.00000000000E+00  0.93800000000E+00  0.93800000000E+00 0.  1.
         11    1    1    2    0    0 -0.19209320560E-01  0.42556495440E-02  0.23075136367E+00  0.23158920852E+00  0.51100000000E-03 0.  1.
    9000002    1    1    2    0    0  0.34978184503E+00 -0.91298702562E-01  0.87746212065E-01  0.10090719449E+01  0.93800000000E+00 0.  1.
         22    1    1    2    0    0 -0.33057252447E+00  0.87043053018E-01  0.36815023916E+01  0.36973388466E+01  0.00000000000E+00 0.  1.
</event>
<event>
 5    1  0.6776507E+001  0.1599186E+01  0.7818608E-02  0.3354248E+00
         11   -1    0    0    0    0  0.00000000000E+00  0.00000000000E+00  0.39999999674E+01  0.40000000000E+01  0.51100000000E-03 0. -1.
    9000002   -1    0    0    0    0 -0.00000000000E+00 -0.00000000000E+00  0.00000000000E+00  0.93800000000E+00  0.93800000000E+00 0. -1.
         11    1    1    2    0    0 -0.11261555423E-01  0.83420110631E-01  0.73572876440E+00  0.74052873906E+00  0.51100000000E-03 0. -1.
    9000002    1    1    2    0    0  0.79183424528E-02 -0.52903574785E+00  0.19306350720E+00  0.10941019333E+01  0.93800000000E+00 0. -1.
         22    1    1    2    0    0  0.33432129697E-02  0.44561563722E+00  0.30712076958E+01  0.31033693276E+01  0.00000000000E+00 0. -1.
</event>
<event>
 5    1  0.6776507E+001  0.1599675E+01  0.7818608E-02  0.3353716E+00
         11   -1    0    0    0    0  0.00000000000E+00  0.00000000000E+00  0.39999999674E+01  0.40000000000E+01  0.51100000000E-03 0.  1.
    9000002   -1    0    0    0    0 -0.00000000000E+00 -0.00000000000E+00  0.00000000000E+00  0.93800000000E+00  0.93800000000E+00 0.  1.
         11    1    1    2    0    0  0.76059484814E-01 -0.12912523708E+00  0.13699842165E+01  0.13781565175E+01  0.51100000000E-03 0.  1.
    9000002    1    1    2    0    0 -0.21911734994E+00  0.36365129294E+00  0.12198458127E+00  0.10368118990E+01  0.93800000000E+00 0.  1.
         22    1    1    2    0    0  0.14305786512E+00 -0.23452605586E+00  0.25080311696E+01  0.25230315835E+01  0.00000000000E+00 0.  1.
</event>
<event>
 5    1  0.6776507E+001  0.1599676E+01  0.7818608E-02  0.3353715E+00
         11   -1    0    0    0    0  0.00000000000E+00  0.00000000000E+00  0.39999999674E+01  0.40000000000E+01  0.51100000000E-03 0.  1.
    9000002   -1    0    0    0    0 -0.00000000000E+00 -0.00000000000E+00  0.00000000000E+00  0.93800000000E+00  0.93800000000E+00 0. -1.
         11    1    1    2    0    0  0.48577667600E-02  0.14747012265E+00  0.10285155901E+01  0.10390455308E+01  0.51100000000E-03 0.  1.
    9000002    1    1    2    0    0 -0.20650244828E-01 -0.54330567608E+00  0.20393460248E+00  0.11031957271E+01  0.93800000000E+00 0. -1.
         22    1    1    2    0    0  0.15792478068E-01  0.39583555343E+00  0.27675497748E+01  0.27957587420E+01  0.00000000000E+00 0.  1.
</event>
<event>
 5    1  0.6776507E+001  0.1599669E+01  0.7818608E-02  0.3353723E+00
         11   -1    0    0    0    0  0.00000000000E+00  0.00000000000E+00  0.39999999674E+01  0.40000000000E+01  0.51100000000E-03 0.  1.
    9000002   -1    0    0    0    0 -0.00000000000E+00 -0.00000000000E+00  0.00000000000E+00  0.93800000000E+00  0.93800000000E+00 0. -1.
         11    1    1    2    0    0 -0.99725483814E-01 -0.39270647094E-01  0.10800982776E+01  0.10854031077E+01  0.51100000000E-03 0.  1.
    9000002    1    1    2    0    0  0.36891466376E+00  0.14770199751E+00  0.10648739764E+00  0.10242545948E+01  0.93800000000E+00 0. -1.
         22    1    1    2    0    0 -0.26918917995E+00 -0.10843135042E+00  0.28134142922E+01  0.28283422975E+01  0.00000000000E+00 0.  1.
</event>
<event>
 5    1  0.6776507E+001  0.1598997E+01  0.7818608E-02  0.3354453E+00
         11   -1    0    0    0    0  0.00000000000E+00  0.00000000000E+00  0.39999999674E+01  0.40000000000E+01  0.51100000000E-03 0. -1.
    9000002   -1    0    0    0    0 -0.00000000000E+00 -0.00000000000E+00  0.00000000000E+00  0.93800000000E+00  0.93800000000E+00 0. -1.
         11    1    1    2    0    0 -0.95106589011E-01 -0.43752281659E-02  0.12812635560E+01  0.12847960799E+01  0.51100000000E-03 0. -1.
    9000002    1    1    2    0    0  0.36778873548E+00  0.58798250249E-01  0.93811793892E-01  0.10135928378E+01  0.93800000000E+00 0. -1.
         22    1    1    2    0    0 -0.27268214647E+00 -0.54423022083E-01  0.26249246175E+01  0.26396110823E+01  0.00000000000E+00 0. -1.
</event>
<event>
 5    1  0.6776507E+001  0.1599675E+01  0.7818608E-02  0.3353716E+00
         11   -1    0    0    0    0  0.00000000000E+00  0.00000000000E+00  0.39999999674E+01  0.40000000000E+01  0.51100000000E-03 0. -1.
    9000002   -1    0    0    0    0 -0.00000000000E+00 -0.00000000000E+00  0.00000000000E+00  0.93800000000E+00  0.93800000000E+00 0. -1.
         11    1    1    2    0    0 -0.13372334627E+00 -0.53446446560E-01  0.11283964593E+01  0.11375488062E+01  0.51100000000E-03 0. -1.
    9000002    1    1    2    0    0  0.45428593609E+00  0.18653028531E+00  0.16485142710E+00  0.10715359313E+01  0.93800000000E+00 0. -1.
         22    1    1    2    0    0 -0.32056258982E+00 -0.13308383875E+00  0.27067520809E+01  0.27289152625E+01  0.00000000000E+00 0. -1.
</event>
<event>
 5    1  0.6776507E+001  0.1573660E+01  0.7818608E-02  0.3382457E+00
         11   -1    0    0    0    0  0.00000000000E+00  0.00000000000E+00  0.39999999674E+01  0.40000000000E+01  0.51100000000E-03 0.  1.
    9000002   -1    0    0    0    0 -0.00000000000E+00 -0.00000000000E+00  0.00000000000E+00  0.93800000000E+00  0.93800000000E+00 0. -1.
         11    1    1    2    0    0  0.92878626427E-01 -0.49546014626E-02  0.51294656468E+00  0.52131125698E+00  0.51100000000E-03 0.  1.
    9000002    1    1    2    0    0  0.26249158959E+00 -0.20129389387E+00  0.94225302833E-01  0.99907130577E+00  0.93800000000E+00 0. -1.
         22    1    1    2    0    0 -0.35537021602E+00  0.20624849533E+00  0.33928280999E+01  0.34176174373E+01  0.00000000000E+00 0.  1.
</event>
<event>
 5    1  0.6776507E+001  0.1599658E+01  0.7818608E-02  0.3353734E+00
         11   -1    0    0    0    0  0.00000000000E+00  0.00000000000E+00  0.39999999674E+01  0.40000000000E+01  0.51100000000E-03 0. -1.
    9000002   -1    0    0    0    0 -0.00000000000E+00 -0.00000000000E+00  0.00000000000E+00  0.93800000000E+00  0.93800000000E+00 0. -1.
         11    1    1    2    0    0 -0.58184624408E-01 -0.50645881168E-02  0.57852960075E+00  0.58147042972E+00  0.51100000000E-03 0. -1.
    9000002    1    1    2    0    0  0.36937473308E+00  0.26286319276E-01  0.92174338805E-01  0.10126543205E+01  0.93800000000E+00 0. -1.
         22    1    1    2    0    0 -0.31119010867E+00 -0.21221731159E-01  0.33292960278E+01  0.33438752498E+01  0.00000000000E+00 0. -1.
</event>
<event>
 5    1  0.6776507E+001  0.1599645E+01  0.7818608E-02  0.3353749E+00
         11   -1    0    0    0    0  0.00000000000E+00  0.00000000000E+00  0.39999999674E+01  0.40000000000E+01  0.51100000000E-03 0. -1.
    9000002   -1    0    0    0    0 -0.00000000000E+00 -0.00000000000E+00  0.00000000000E+00  0.93800000000E+00  0.93800000000E+00 0. -1.
         11    1    1    2    0    0  0.12669335139E+00 -0.46479757257E-02  0.98259575428E+00  0.99074087754E+00  0.51100000000E-03 0. -1.
    9000002    1    1    2    0    0 -0.51544775671E+00  0.17662369791E-01  0.18261165418E+00  0.10859048602E+01  0.93800000000E+00 0. -1.
         22    1    1    2    0    0  0.38875440532E+00 -0.13014394065E-01  0.28347925589E+01  0.28613542622E+01  0.00000000000E+00 0. -1.
</event>
<event>
 5    1  0.6776507E+001  0.1592289E+01  0.7818608E-02  0.3361776E+00
         11   -1    0    0    0    0  0.00000000000E+00  0.00000000000E+00  0.39999999674E+01  0.40000000000E+01  0.51100000000E-03 0. -1.
    9000002   -1    0    0    0    0 -0.00000000000E+00 -0.00000000000E+00  0.00000000000E+00  0.93800000000E+00  0.93800000000E+00 0.  1.
         11    1    1    2    0    0  0.55842180157E-01 -0.24464951562E+00  0.10233695094E+01  0.10536874055E+01  0.51100000000E-03 0. -1.
    9000002    1    1    2    0    0 -0.63900698652E-01  0.58426229037E+00  0.24767994179E+00  0.11342993771E+01  0.93800000000E+00 0.  1.
         22    1    1    2    0    0  0.80585184954E-02 -0.33961277476E+00  0.27289505162E+01  0.27500132175E+01  0.00000000000E+00 0. -1.
</event>
<event>
 5    1  0.6776507E+001  0.1599674E+01  0.7818608E-02  0.3353717E+00
         11   -1    0    0    0    0  0.00000000000E+00  0.00000000000E+00  0.39999999674E+01  0.40000000000E+01  0.51100000000E-03 0.  1.
    9000002   -1    0    0    0    0 -0.00000000000E+00 -0.00000000000E+00  0.00000000000E+00  0.93800000000E+00  0.93800000000E+00 0.  1.
         11    1    1    2    0    0  0.99990163989E-01  0.43805462955E-01  0.11564320222E+01  0.11615731723E+01  0.51100000000E-03 0.  1.
    9000002    1    1    2    0    0 -0.33994685511E+00 -0.15376650170E+00  0.93589724061E-01  0.10138101587E+01  0.93800000000E+00 0.  1.
         22    1    1    2    0    0  0.23995669112E+00  0.10996103874E+00  0.27499782211E+01  0.27626166691E+01  0.00000000000E+00 0.  1.
</event>
<event>
 5    1  0.8002666E+001  0.1599248E+01  0.7818608E-02  0.3354180E+00
         11   -1    0    0    0    0  0.00000000000E+00  0.00000000000E+00  0.39999999674E+01  0.40000000000E+01  0.51100000000E-03 0.  1.
    9000002   -1    0    0    0    0 -0.00000000000E+00 -0.00000000000E+00  0.00000000000E+00  0.93800000000E+00  0.93800000000E+00 0. -1.
         11    1    1    2    0    0  0.11462512953E+00 -0.14542728684E+00  0.14608601027E+01  0.14725489862E+01  0.51100000000E-03 0.  1.
    9000002    1    1    2    0    0 -0.30848176670E+00  0.44097592303E+00  0.19999870057E+00  0.10997564482E+01  0.93800000000E+00 0. -1.
         22    1    1    2    0    0  0.19385663716E+00 -0.29554863619E+00  0.23391411641E+01  0.23656945656E+01  0.00000000000E+00 0.  1.
</event>
<event>
 5    1  0.6776507E+001  0.1599675E+01  0.7818608E-02  0.3353716E+00
         11   -1    0    0    0    0  0.00000000000E+00  0.00000000000E+00  0.39999999674E+01  0.40000000000E+01  0.51100000000E-03 0. -1.
    9000002   -1    0    0    0    0 -0.00000000000E+00 -0.00000000000E+00  0.00000000000E+00  0.93800000000E+00  0.93800000000E+00 0. -1.
         11    1    1    2    0    0  0.86195127935E-01  0.31269405564E-02  0.79886129352E+00  0.80350420363E+00  0.51100000000E-03 0.  1.
    9000002    1    1    2    0    0 -0.42026114306E+00 -0.92590373602E-02  0.11951388054E+00  0.10348104782E+01  0.93800000000E+00 0. -1.
         22    1    1    2    0    0  0.33406601512E+00  0.61320968037E-02  0.30816247933E+01  0.30996853182E+01  0.00000000000E+00 0. -1.
</event>
<event>
 5    1  0.6952516E+001  0.1598793E+01  0.7818608E-02  0.3354674E+00
         11   -1    0    0    0    0  0.00000000000E+00  0.00000000000E+00  0.39999999674E+01  0.40000000000E+01  0.51100000000E-03 0. -1.
    9000002   -1    0    0    0    0 -0.00000000000E+00 -0.00000000000E+00  0.00000000000E+00  0.93800000000E+00  0.93800000000E+00 0.  1.
         11    1    1    2    0    0 -0.64565036888E-01 -0.14502150346E+00  0.14003117176E+01  0.14092810394E+01  0.51100000000E-03 0. -1.
    9000002    1    1    2    0    0  0.21574878512E+00  0.31522380979E+00  0.98926685954E-01  0.10176168620E+01  0.93800000000E+00 0.  1.
         22    1    1    2    0    0 -0.15118374823E+00 -0.17020230633E+00  0.25007615638E+01  0.25111020986E+01  0.00000000000E+00 0. -1.
</event>
<event>
 5    1  0.9021737E+001  0.1599546E+01  0.7818608E-02  0.3353857E+00
         11   -1    0    0    0    0  0.00000000000E+00  0.00000000000E+00  0.39999999674E+01  0.40000000000E+01  0.51100000000E-03 0.  1.
    9000002   -1    0    0    0    0 -0.00000000000E+00 -0.00000000000E+00  0.00000000000E+00  0.93800000000E+00  0.93800000000E+00 0.  1.
         11    1    1    2    0    0  0.48627700339E-01 -0.10630190650E+00  0.14726957087E+01  0.14773278783E+01  0.51100000000E-03 0.  1.
    9000002    1    1    2    0    0 -0.15343737250E+00  0.30933810186E+00  0.80011337200E-01  0.10027357093E+01  0.93800000000E+00 0.  1.
         22    1    1    2    0    0  0.10480967216E+00 -0.20303619536E+00  0.24472929215E+01  0.24579364124E+01  0.00000000000E+00 0.  1.
</event>
<event>
 5    1  0.6776507E+001  0.1599677E+01  0.7818608E-02  0.3353714E+00
         11   -1    0    0    0    0  0.00000000000E+00  0.00000000000E+00  0.39999999674E+01  0.40000000000E+01  0.51100000000E-03 0. -1.
    9000002   -1    0    0    0    0 -0.00000000000E+00 -0.00000000000E+00  0.00000000000E+00  0.93800000000E+00  0.93800000000E+00 0. -1.
         11    1    1    2    0    0 -0.87971215576E-01 -0.46574090784E-01  0.10071169524E+01  0.10120241586E+01  0.51100000000E-03 0. -1.
    9000002    1    1    2    0    0  0.34131252154E+00  0.17900086369E+00  0.10000674418E+00  0.10190097622E+01  0.93800000000E+00 0. -1.
         22    1    1    2    0    0 -0.25334130596E+00 -0.13242677291E+00  0.28928762708E+01  0.29069660792E+01  0.00000000000E+00 0. -1.
</event>
<event>
 5    1  0.6776507E+001  0.1598561E+01  0.7818608E-02  0.3354927E+00
         11   -1    0    0    0    0  0.00000000000E+00  0.00000000000E+00  0.39999999674E+01  0.40000000000E+01  0.51100000000E-03 0.  1.
    9000002   -1    0    0    0    0 -0.00000000000E+00 -0.00000000000E+00  0.00000000000E+00  0.93800000000E+00  0.93800000000E+00 0.  1.
         11    1    1    2    0    0  0.88854781767E-02 -0.48027439475E-01  0.86357302075E+00  0.86495329929E+00  0.51100000000E-03 0.  1.
    9000002    1    1    2    0    0  0.11912853418E-02  0.36313940940E+00  0.89458772106E-01  0.10098111317E+01  0.93800000000E+00 0.  1.
         22    1    1    2    0    0 -0.10076763518E-01 -0.31511196992E+00  0.30469681745E+01  0.30632355690E+01  0.00000000000E+00 0.  1.
</event>
<event>
 5    1  0.6776507E+001  0.1554094E+01  0.7818608E-02  0.3404746E+00
         11   -1    0    0    0    0  0.00000000000E+00  0.00000000000E+00  0.39999999674E+01  0.40000000000E+01  0.51100000000E-03 0. -1.
    9000002   -1    0    0    0    0 -0.00000000000E+00 -0.00000000000E+00  0.00000000000E+00  0.93800000000E+00  0.93800000000E+00 0. -1.
         11    1    1    2    0    0 -0.34323455077E-01 -0.19040589985E+00  0.11744538287E+01  0.11902833962E+01  0.51100000000E-03 0. -1.
    9000002    1    1    2    0    0 -0.48702241859E-01 -0.13233728084E+00  0.47473951350E-01  0.94972777169E+00  0.93800000000E+00 0. -1.
         22    1    1    2    0    0  0.83025696936E-01  0.32274318068E+00  0.27780721873E+01  0.27979888322E+01  0.00000000000E+00 0. -1.
</event>
<event>
 5    1  0.6776507E+001  0.1596987E+01  0.7818608E-02  0.3356641E+00
         11   -1    0    0    0    0  0.00000000000E+00  0.00000000000E+00  0.39999999674E+01  0.40000000000E+01  0.51100000000E-03 0. -1.
    9000002   -1    0    0    0    0 -0.00000000000E+00 -0.00000000000E+00  0.00000000000E+00  0.93800000000E+00  0.93800000000E+00 0.  1.
         11    1    1    2    0    0  0.60087619347E-01  0.95082298102E-01  0.96759319907E+00  0.97410883653E+00  0.51100000000E-03 0. -1.
    9000002    1    1    2    0    0 -0.30058028581E-01 -0.43049023871E+00  0.12843984340E+00  0.10404643791E+01  0.93800000000E+00 0.  1.
         22    1    1    2    0    0 -0.30029590766E-01  0.33540794061E+00  0.29039669249E+01  0.29234267844E+01  0.00000000000E+00 0. -1.
</event>
<event>
 5    1  0.6776507E+001  0.1587113E+01  0.7818608E-02  0.3367471E+00
         11   -1    0    0    0    0  0.00000000000E+00  0.00000000000E+00  0.39999999674E+01  0.40000000000E+01  0.51100000000E-03 0. -1.
    9000002   -1    0    0    0    0 -0.00000000000E+00 -0.00000000000E+00  0.00000000000E+00  0.93800000000E+00  0.93800000000E+00 0.  1.
         11    1    1    2    0    0  0.35330610698E-01  0.15360855728E-01  0.12157034634E+01  0.12163138493E+01  0.51100000000E-03 0. -1.
    9000002    1    1    2    0    0 -0.38926126851E+00  0.23727511646E+00  0.15225864068E+00  0.10539689320E+01  0.93800000000E+00 0.  1.
         22    1    1    2    0    0  0.35393065781E+00 -0.25263597219E+00  0.26320378633E+01  0.26677172187E+01  0.00000000000E+00 0. -1.
</event>
<event>
 5    1  0.6776507E+001  0.1599674E+01  0.7818608E-02  0.3353718E+00
         11   -1    0    0    0    0  0.00000000000E+00  0.00000000000E+00  0.39999999674E+01  0.40000000000E+01  0.51100000000E-03 0. -1.
    9000002   -1    0    0    0    0 -0.00000000000E+00 -0.00000000000E+00  0.00000000000E+00  0.93800000000E+00  0.93800000000E+00 0.  1.
         11    1    1    2    0    0  0.61536858349E-01  0.34751464489E-01  0.77142835331E+00  0.77465890212E+00  0.51100000000E-03 0. -1.
    9000002    1    1    2    0    0 -0.32008229927E+00 -0.17886832545E+00  0.90320789129E-01  0.10111619065E+01  0.93800000000E+00 0.  1.
         22    1    1    2    0    0  0.25854544092E+00  0.14411686096E+00  0.31382508249E+01  0.31521791914E+01  0.00000000000E+00 0.  1.
</event>
<event>
 5    1  0.6776507E+001  0.1599675E+01  0.7818608E-02  0.3353716E+00
         11   -1    0    0    0    0  0.00000000000E+00  0.00000000000E+00  0.39999999674E+01  0.40000000000E+01  0.51100000000E-03 0.  1.
    9000002   -1    0    0    0    0 -0.00000000000E+00 -0.00000000000E+00  0.00000000000E+00  0.93800000000E+00  0.93800000000E+00 0.  1.
         11    1    1    2    0    0 -0.13042240059E+00  0.53287461022E-01  0.51091434039E+00  0.52998422657E+00  0.51100000000E-03 0. -1.
    9000002    1    1    2    0    0  0.85647978719E+00 -0.35263385583E+00  0.66443286623E+00  0.14762192574E+01  0.93800000000E+00 0.  1.
         22    1    1    2    0    0 -0.72605738660E+00  0.29934639481E+00  0.28246527607E+01  0.29317965160E+01  0.00000000000E+00 0.  1.
</event>
<event>
 5    1  0.6776507E+001  0.1599667E+01  0.7818608E-02  0.3353725E+00
         11   -1    0    0    0    0  0.00000000000E+00  0.00000000000E+00  0.39999999674E+01  0.40000000000E+01  0.51100000000E-03 0. -1.
    9000002   -1    0    0    0    0 -0.00000000000E+00 -0.00000000000E+00  0.00000000000E+00  0.93800000000E+00  0.93800000000E+00 0.  1.
         11    1    1    2    0    0 -0.68800244960E-01 -0.11221629458E+00  0.11764093690E+01  0.11837504953E+01  0.51100000000E-03 0. -1.
    9000002    1    1    2    0    0  0.23755140382E+00  0.36556085774E+00  0.12883638874E+00  0.10423570527E+01  0.93800000000E+00 0.  1.
         22    1    1    2    0    0 -0.16875115886E+00 -0.25334456316E+00  0.26947542096E+01  0.27118924520E+01  0.00000000000E+00 0. -1.
</event>
<event>
 5    1  0.6776507E+001  0.1597751E+01  0.7818608E-02  0.3355808E+00
         11   -1    0    0    0    0  0.00000000000E+00  0.00000000000E+00  0.39999999674E+01  0.40000000000E+01  0.51100000000E-03 0.  1.
    9000002   -1    0    0    0    0 -0.00000000000E+00 -0.00000000000E+00  0.00000000000E+00  0.93800000000E+00  0.93800000000E+00 0.  1.
         11    1    1    2    0    0 -0.38780522474E-01  0.86234721150E-01  0.96033646875E+00  0.96498018135E+00  0.51100000000E-03 0.  1.
    9000002    1    1    2    0    0  0.33366453034E+00 -0.29993967183E+00  0.13835372407E+00  0.10489430769E+01  0.93800000000E+00 0.  1.
         22    1    1    2    0    0 -0.29488400786E+00  0.21370495068E+00  0.29013097745E+01  0.29240767418E+01  0.00000000000E+00 0.  1.
</event>
<event>
 5    1  0.6776507E+001  0.1599677E+01  0.7818608E-02  0.3353714E+00
         11   -1    0    0    0    0  0.00000000000E+00  0.00000000000E+00  0.39999999674E+01  0.40000000000E+01  0.51100000000E-03 0.  1.
    9000002   -1    0    0    0    0 -0.00000000000E+00 -0.00000000000E+00  0.00000000000E+00  0.93800000000E+00  0.93800000000E+00 0.  1.
         11    1    1    2    0    0  0.76092128888E-01 -0.39953834958E-01  0.89660455468E+00  0.90071433296E+00  0.51100000000E-03 0.  1.
    9000002    1    1    2    0    0 -0.33273193598E+00  0.17408747604E+00  0.94830980773E-01  0.10148171783E+01  0.93800000000E+00 0.  1.
         22    1    1    2    0    0  0.25663980710E+00 -0.13413364108E+00  0.30085644319E+01  0.30224684887E+01  0.00000000000E+00 0.  1.
</event>
<event>
 5    1  0.6776507E+001  0.1565373E+01  0.7818608E-02  0.3391826E+00
         11   -1    0    0    0    0  0.00000000000E+00  0.00000000000E+00  0.39999999674E+01  0.40000000000E+01  0.51100000000E-03 0. -1.
    9000002   -1    0    0    0    0 -0.00000000000E+00 -0.00000000000E+00  0.00000000000E+00  0.93800000000E+00  0.93800000000E+00 0. -1.
         11    1    1    2    0    0 -0.27262201722E+00 -0.43947236996E-01  0.13144216976E+01  0.13431153279E+01  0.51100000000E-03 0. -1.
    9000002    1    1    2    0    0  0.21909521494E+00  0.34865063749E+00  0.14391655498E+00  0.10344640907E+01  0.93800000000E+00 0. -1.
         22    1    1    2    0    0  0.53526802283E-01 -0.30470340050E+00  0.25416617148E+01  0.25604205814E+01  0.00000000000E+00 0. -1.
</event>
<event>
 5    1  0.6776507E+001  0.1599609E+01  0.7818608E-02  0.3353788E+00
         11   -1    0    0    0    0  0.00000000000E+00  0.00000000000E+00  0.39999999674E+01  0.40000000000E+01  0.51100000000E-03 0.  1.
    9000002   -1    0    0    0    0 -0.00000000000E+00 -0.00000000000E+00  0.00000000000E+00  0.93800000000E+00  0.93800000000E+00 0. -1.
         11    1    1    2    0    0 -0.16001373230E+00  0.14825470930E+00  0.13065138645E+01  0.13245990309E+01  0.51100000000E-03 0.  1.
    9000002    1    1    2    0    0  0.47991314079E+00 -0.41039865146E+00  0.28022035709E+00  0.11649511253E+01  0.93800000000E+00 0. -1.
         22    1    1    2    0    0 -0.31989940850E+00  0.26214394216E+00  0.24132657458E+01  0.24484498438E+01  0.00000000000E+00 0.  1.
</event>
<event>
 5    1  0.6776507E+001  0.1486205E+01  0.7818608E-02  0.3486958E+00
         11   -1    0    0    0    0  0.00000000000E+00  0.00000000000E+00  0.39999999674E+01  0.40000000000E+01  0.51100000000E-03 0. -1.
    9000002   -1    0    0    0    0 -0.00000000000E+00 -0.00000000000E+00  0.00000000000E+00  0.93800000000E+00  0.93800000000E+00 0. -1.
         11    1    1    2    0    0  0.18435890836E+00 -0.26732046164E+00  0.81794786253E+00  0.88004965953E+00  0.51100000000E-03 0. -1.
    9000002    1    1    2    0    0  0.10903944715E+00  0.32432108269E-01  0.96719416155E-01  0.94981055382E+00  0.93800000000E+00 0. -1.
         22    1    1    2    0    0 -0.29339835551E+00  0.23488835337E+00  0.30853326887E+01  0.31081397866E+01  0.00000000000E+00 0. -1.
</event>
<event>
 5    1  0.6776507E+001  0.1599672E+01  0.7818608E-02  0.3353719E+00
         11   -1    0    0    0    0  0.00000000000E+00  0.00000000000E+00  0.39999999674E+01  0.40000000000E+01  0.51100000000E-03 0.  1.
    9000002   -1    0    0    0    0 -0.00000000000E+00 -0.00000000000E+00  0.00000000000E+00  0.93800000000E+00  0.93800000000E+00 0. -1.
         11    1    1    2    0    0  0.69958494423E-01  0.46887432220E-01  0.65299632971E+00  0.65840495895E+00  0.51100000000E-03 0.  1.
    9000002    1    1    2    0    0 -0.41999149722E+00 -0.26830592427E+00  0.16998902184E+00  0.10756956792E+01  0.93800000000E+00 0. -1.
         22    1    1    2    0    0  0.35003300280E+00  0.22141849205E+00  0.31770146158E+01  0.32038993618E+01  0.00000000000E+00 0.  1.
</event>
<event>
 5    1  0.6776507E+001  0.1599661E+01  0.7818608E-02  0.3353731E+00
         11   -1    0    0    0    0  0.00000000000E+00  0.00000000000E+00  0.39999999674E+01  0.40000000000E+01  0.51100000000E-03 0.  1.
    9000002   -1    0    0    0    0 -0.00000000000E+00 -0.00000000000E+00  0.00000000000E+00  0.93800000000E+00  0.93800000000E+00 0.  1.
         11    1    1    2    0    0  0.10403197930E+00  0.60110399561E-01  0.10065083318E+01  0.10136543770E+01  0.51100000000E-03 0.  1.
    9000002    1    1    2    0    0 -0.40646065578E+00 -0.21630617034E+00  0.14422469488E+00  0.10548191251E+01  0.93800000000E+00 0.  1.
         22    1    1    2    0    0  0.30242867648E+00  0.15619577078E+00  0.28492669406E+01  0.28695264979E+01  0.00000000000E+00 0.  1.
</event>
<event>
 5    1  0.6776507E+001  0.1597899E+01  0.7818608E-02  0.3355647E+00
         11   -1    0    0    0    0  0.00000000000E+00  0.00000000000E+00  0.39999999674E+01  0.40000000000E+01  0.51100000000E-03 0.  1.
    9000002   -1    0    0    0    0 -0.00000000000E+00 -0.00000000000E+00  0.00000000000E+00  0.93800000000E+00  0.93800000000E+00 0. -1.
         11    1    1    2    0    0  0.36480931899E-01 -0.10321401755E-01  0.62621220989E+00  0.62735905402E+00  0.51100000000E-03 0.  1.
    9000002    1    1    2    0    0 -0.16895673339E+00  0.28987033369E+00  0.76782833301E-01  0.99915503882E+00  0.93800000000E+00 0. -1.
         22    1    1    2    0    0  0.13247580149E+00 -0.27954893193E+00  0.32970049242E+01  0.33114859072E+01  0.00000000000E+00 0.  1.
</event>
<event>
 5    1  0.6776507E+001  0.1599647E+01  0.7818608E-02  0.3353746E+00
         11   -1    0    0    0    0  0.00000000000E+00  0.00000000000E+00  0.39999999674E+01  0.40000000000E+01  0.51100000000E-03 0. -1.
    9000002   -1    0    0    0    0 -0.00000000000E+00 -0.00000000000E+00  0.00000000000E+00  0.93800000000E+00  0.93800000000E+00 0.  1.
         11    1    1    2    0    0 -0.31599580787E-01 -0.12493586180E+00  0.66825477786E+00  0.68056756632E+00  0.51100000000E-03 0. -1.
    9000002    1    1    2    0    0  0.19119853765E+00  0.66326264116E+00  0.33967656179E+00  0.12131357626E+01  0.93800000000E+00 0.  1.
         22    1    1    2    0    0 -0.15959895687E+00 -0.53832677936E+00  0.29920686277E+01  0.30442966710E+01  0.00000000000E+00 0. -1.
</event>
<event>
 5    1  0.6776507E+001  0.1599657E+01  0.7818608E-02  0.3353735E+00
         11   -1    0    0    0    0  0.00000000000E+00  0.00000000000E+00  0.39999999674E+01  0.40000000000E+01  0.51100000000E-03 0. -1.
    9000002   -1    0    0    0    0 -0.00000000000E+00 -0.00000000000E+00  0.00000000000E+00  0.93800000000E+00  0.93800000000E+00 0. -1.
         11    1    1    2    0    0  0.49826101431E-01 -0.65325162627E-01  0.60795840732E+00  0.61348488442E+00  0.51100000000E-03 0. -1.
    9000002    1    1    2    0    0 -0.29845199058E+00  0.42955592203E+00  0.18805484846E+00  0.10903212861E+01  0.93800000000E+00 0. -1.
         22    1    1    2    0    0  0.24862588915E+00 -0.36423075940E+00  0.32039867116E+01  0.32341938295E+01  0.00000000000E+00 0. -1.
</event>
<event>
 5    1  0.6776507E+001  0.1599562E+01  0.7818608E-02  0.3353839E+00
         11   -1    0    0    0    0  0.00000000000E+00  0.00000000000E+00  0.39999999674E+01  0.40000000000E+01  0.51100000000E-03 0.  1.
    9000002   -1    0    0    0    0 -0.00000000000E+00 -0.00000000000E+00  0.00000000000E+00  0.93800000000E+00  0.93800000000E+00 0. -1.
         11    1    1    2    0    0 -0.76560046980E-01  0.41603875045E-01  0.79760974358E+00  0.80235521272E+00  0.51100000000E-03 0.  1.
    9000002    1    1    2    0    0  0.34227079410E+00 -0.24317612970E+00  0.11931651029E+00  0.10345841465E+01  0.93800000000E+00 0. -1.
         22    1    1    2    0    0 -0.26571074712E+00  0.20157225466E+00  0.30830737135E+01  0.31010606408E+01  0.00000000000E+00 0.  1.
</event>
<event>
 5    1  0.6776507E+001  0.1598434E+01  0.7818608E-02  0.3355065E+00
         11   -1    0    0    0    0  0.00000000000E+00  0.00000000000E+00  0.39999999674E+01  0.40000000000E+01  0.51100000000E-03 0. -1.
    9000002   -1    0    0    0    0 -0.00000000000E+00 -0.00000000000E+00  0.00000000000E+00  0.93800000000E+00  0.93800000000E+00 0.  1.
         11    1    1    2    0    0 -0.11278477537E+00  0.18314022077E-01  0.93764014978E+00  0.94457668855E+00  0.51100000000E-03 0. -1.
    9000002    1    1    2    0    0  0.37069835413E+00 -0.19145578424E+00  0.11872927450E+00  0.10334472544E+01  0.93800000000E+00 0.  1.
         22    1    1    2    0    0 -0.25791357876E+00  0.17314176216E+00  0.29436305431E+01  0.29599760570E+01  0.00000000000E+00 0. -1.
</event>
<event>
 5    1  0.6776507E+001  0.1599659E+01  0.7818608E-02  0.3353733E+00
         11   -1    0    0    0    0  0.00000000000E+00  0.00000000000E+00  0.39999999674E+01  0.40000000000E+01  0.51100000000E-03 0. -1.
    9000002   -1    0    0    0    0 -0.00000000000E+00 -0.00000000000E+00  0.00000000000E+00  0.93800000000E+00  0.93800000000E+00 0. -1.
         11    1    1    2    0    0 -0.78965691118E-01  0.10096228405E+00  0.10731743089E+01  0.10808017032E+01  0.51100000000E-03 0. -1.
    9000002    1    1    2    0    0  0.27265891759E+00 -0.37477874664E+00  0.14620107180E+00  0.10564188316E+01  0.93800000000E+00 0. -1.
         22    1    1    2    0    0 -0.19369322647E+00  0.27381646259E+00  0.27806245866E+01  0.28007794652E+01  0.00000000000E+00 0. -1.
</event>
<event>
 5    1  0.6776507E+001  0.1599673E+01  0.7818608E-02  0.3353718E+00
         11   -1    0    0    0    0  0.00000000000E+00  0.00000000000E+00  0.39999999674E+01  0.40000000000E+01  0.51100000000E-03 0. -1.
    9000002   -1    0    0    0    0 -0.00000000000E+00 -0.00000000000E+00  0.00000000000E+00  0.93800000000E+00  0.93800000000E+00 0.  1.
         11    1    1    2    0    0 -0.15629469225E+00  0.33578082539E-01  0.14205585330E+01  0.14295252097E+01  0.51100000000E-03 0. -1.
    9000002    1    1    2    0    0  0.42270624809E+00 -0.86213935527E-01  0.12607118476E+00  0.10401208384E+01  0.93800000000E+00 0.  1.
         22    1    1    2    0    0 -0.26641155584E+00  0.52635852988E-01  0.24533702496E+01  0.24683539519E+01  0.00000000000E+00 0. -1.
</event>
<event>
 5    1  0.6776507E+001  0.1458340E+01  0.7818608E-02  0.3523095E+00
         11   -1    0    0    0    0  0.00000000000E+00  0.00000000000E+00  0.39999999674E+01  0.40000000000E+01  0.51100000000E-03 0. -1.
    9000002   -1    0    0    0    0 -0.00000000000E+00 -0.00000000000E+00  0.00000000000E+00  0.93800000000E+00  0.93800000000E+00 0.  1.
         11    1    1    2    0    0  0.13226246881E+00 -0.61595249457E-01  0.47918007310E-01  0.15356995786E+00  0.51100000000E-03 0. -1.
    9000002    1    1    2    0    0  0.27652883876E+00 -0.24323964471E+00  0.23790560199E+00  0.10354114153E+01  0.93800000000E+00 0.  1.
         22    1    1    2    0    0 -0.40879130757E+00  0.30483489416E+00  0.37141763581E+01  0.37490186269E+01  0.00000000000E+00 0. -1.
</event>
<event>
 5    1  0.6776507E+001  0.1599646E+01  0.7818608E-02  0.3353748E+00
         11   -1    0    0    0    0  0.00000000000E+00  0.00000000000E+00  0.39999999674E+01  0.40000000000E+01  0.51100000000E-03 0.  1.
    9000002   -1    0    0    0    0 -0.00000000000E+00 -0.00000000000E+00  0.00000000000E+00  0.93800000000E+00  0.93800000000E+00 0. -1.
         11    1    1    2    0    0 -0.48601542787E-01 -0.41724409704E-02  0.44520368432E+00  0.44786839682E+00  0.51100000000E-03 0.  1.
    9000002    1    1    2    0    0  0.39679342913E+00  0.61121881248E-01  0.10876631643E+00  0.10260872387E+01  0.93800000000E+00 0. -1.
         22    1    1    2    0    0 -0.34819188634E+00 -0.56949440278E-01  0.34460299666E+01  0.34640443645E+01  0.00000000000E+00 0.  1.
</event>
<event>
 5    1  0.1213798E+002  0.1532993E+01  0.7818608E-02  0.3429463E+00
         11   -1    0    0    0    0  0.00000000000E+00  0.00000000000E+00  0.39999999674E+01  0.40000000000E+01  0.51100000000E-03 0.  1.
    9000002   -1    0    0    0    0 -0.00000000000E+00 -0.00000000000E+00  0.00000000000E+00  0.93800000000E+00  0.93800000000E+00 0. -1.
         11    1    1    2    0    0  0.10549149640E+00 -0.21807982247E+00  0.82352181306E+00  0.85841464484E+00  0.51100000000E-03 0.  1.
    9000002    1    1    2    0    0  0.71502339410E-01 -0.25164032555E-01  0.53953086783E-01  0.94260317666E+00  0.93800000000E+00 0. -1.
         22    1    1    2    0    0 -0.17699383581E+00  0.24324385502E+00  0.31225250675E+01  0.31369821785E+01  0.00000000000E+00 0.  1.
</event>
<event>
 5    1  0.6776507E+001  0.1599627E+01  0.7818608E-02  0.3353768E+00
         11   -1    0    0    0    0  0.00000000000E+00  0.00000000000E+00  0.39999999674E+01  0.40000000000E+01  0.51100000000E-03 0. -1.
    9000002   -1    0    0    0    0 -0.00000000000E+00 -0.00000000000E+00  0.00000000000E+00  0.93800000000E+00  0.93800000000E+00 0. -1.
         11    1    1    2    0    0  0.16956756394E+00 -0.98540563943E-01  0.14108180955E+01  0.14243845552E+01  0.51100000000E-03 0. -1.
    9000002    1    1    2    0    0 -0.43699499812E+00  0.27008844843E+00  0.18113203727E+00  0.10846959082E+01  0.93800000000E+00 0. -1.
         22    1    1    2    0    0  0.26742743418E+00 -0.17154788448E+00  0.24080498346E+01  0.24289195366E+01  0.00000000000E+00 0.  1.
</event>
<event>
 5    1  0.6776507E+001  0.1596833E+01  0.7818608E-02  0.3356808E+00
         11   -1    0    0    0    0  0.00000000000E+00  0.00000000000E+00  0.39999999674E+01  0.40000000000E+01  0.51100000000E-03 0.  1.
    9000002   -1    0    0    0    0 -0.00000000000E+00 -0.00000000000E+00  0.00000000000E+00  0.93800000000E+00  0.93800000000E+00 0. -1.
         11    1    1    2    0    0 -0.34192162329E-01 -0.31683613438E-01  0.74486898438E+00  0.74632634976E+00  0.51100000000E-03 0.  1.
    9000002    1    1    2    0    0 -0.17841990300E-01  0.34319918147E+00  0.81419543551E-01  0.10022859656E+01  0.93800000000E+00 0. -1.
         22    1    1    2    0    0  0.52034152629E-01 -0.31151556803E+00  0.31737114394E+01  0.31893876846E+01  0.00000000000E+00 0.  1.
</event>
<event>
 5    1  0.6776507E+001  0.1599531E+01  0.7818608E-02  0.3353872E+00
         11   -1    0    0    0    0  0.00000000000E+00  0.00000000000E+00  0.39999999674E+01  0.40000000000E+01  0.51100000000E-03 0.  1.
    9000002   -1    0    0    0    0 -0.00000000000E+00 -0.00000000000E+00  0.00000000000E+00  0.93800000000E+00  0.93800000000E+00 0.  1.
         11    1    1    2    0    0  0.21518070565E-01 -0.41750175221E-01  0.31056736596E+00  0.31409943396E+00  0.51100000000E-03 0.  1.
    9000002    1    1    2    0    0 -0.17888837329E+00  0.46794362512E+00  0.17196385177E+00  0.10772130025E+01  0.93800000000E+00 0.  1.
         22    1    1    2    0    0  0.15737030273E+00 -0.42619344990E+00  0.35174687496E+01  0.35466875636E+01  0.00000000000E+00 0.  1.
</event>
<event>
 5    1  0.7025966E+001  0.1515835E+01  0.7818608E-02  0.3450105E+00
         11   -1    0    0    0    0  0.00000000000E+00  0.00000000000E+00  0.39999999674E+01  0.40000000000E+01  0.51100000000E-03 0. -1.
    9000002   -1    0    0    0    0 -0.00000000000E+00 -0.00000000000E+00  0.00000000000E+00  0.93800000000E+00  0.93800000000E+00 0. -1.
         11    1    1    2    0    0 -0.29929989141E+00  0.54234632407E-01  0.10198113985E+01  0.10642073905E+01  0.51100000000E-03 0. -1.
    9000002    1    1    2    0    0 -0.20640001961E-01 -0.72984939184E-01  0.67450301873E-01  0.94347567762E+00  0.93800000000E+00 0. -1.
         22    1    1    2    0    0  0.31993989337E+00  0.18750306777E-01  0.29127382669E+01  0.29303169319E+01  0.00000000000E+00 0. -1.
</event>
<event>
 5    1  0.6776507E+001  0.1599670E+01  0.7818608E-02  0.3353722E+00
         11   -1    0    0    0    0  0.00000000000E+00  0.00000000000E+00  0.39999999674E+01  0.40000000000E+01  0.51100000000E-03 0.  1.
    9000002   -1    0    0    0    0 -0.00000000000E+00 -0.00000000000E+00  0.00000000000E+00  0.93800000000E+00  0.93800000000E+00 0.  1.
         11    1    1    2    0    0 -0.42034038287E-01 -0.98183594079E-01  0.10166203779E+01  0.10222153063E+01  0.51100000000E-03 0.  1.
    9000002    1    1    2    0    0  0.15186564686E+00  0.37001621155E+00  0.10791194611E+00  0.10254092644E+01  0.93800000000E+00 0.  1.
         22    1    1    2    0    0 -0.10983160857E+00 -0.27183261747E+00  0.28754676433E+01  0.28903754292E+01  0.00000000000E+00 0.  1.
</event>
<event>
 5    1  0.6776507E+001  0.1599448E+01  0.7818608E-02  0.3353963E+00
         11   -1    0    0    0    0  0.00000000000E+00  0.00000000000E+00  0.39999999674E+01  0.40000000000E+01  0.51100000000E-03 0. -1.
    9000002   -1    0    0    0    0 -0.00000000000E+00 -0.00000000000E+00  0.00000000000E+00  0.93800000000E+00  0.93800000000E+00 0.  1.
         11    1    1    2    0    0 -0.27150650049E-01 -0.10754203890E-01  0.34847971885E+00  0.34970156744E+00  0.51100000000E-03 0. -1.
    9000002    1    1    2    0    0  0.36374507498E+00  0.20291804090E-01  0.89321784671E-01  0.10102200840E+01  0.93800000000E+00 0.  1.
         22    1    1    2    0    0 -0.33659442493E+00 -0.95376001993E-02  0.35621984638E+01  0.35780783486E+01  0.00000000000E+00 0. -1.
</event>
<event>
 5    1  0.6776507E+001  0.1599677E+01  0.7818608E-02  0.3353714E+00
         11   -1    0    0    0    0  0.00000000000E+00  0.00000000000E+00  0.39999999674E+01  0.40000000000E+01  0.51100000000E-03 0.  1.
    9000002   -1    0    0    0    0 -0.00000000000E+00 -0.00000000000E+00  0.00000000000E+00  0.93800000000E+00  0.93800000000E+00 0. -1.
         11    1    1    2    0    0 -0.15332062063E+00 -0.89522653932E-01  0.92441450365E+00  0.94130970141E+00  0.51100000000E-03 0.  1.
    9000002    1    1    2    0    0  0.60517076753E+00  0.35280281098E+00  0.35073931009E+00  0.12221143747E+01  0.93800000000E+00 0. -1.
         22    1    1    2    0    0 -0.45185014689E+00 -0.26328015704E+00  0.27248461536E+01  0.27745759239E+01  0.00000000000E+00 0.  1.
</event>
<event>
 5    1  0.6776507E+001  0.1599161E+01  0.7818608E-02  0.3354274E+00
         11   -1    0    0    0    0  0.00000000000E+00  0.00000000000E+00  0.39999999674E+01  0.40000000000E+01  0.51100000000E-03 0.  1.
    9000002   -1    0    0    0    0 -0.00000000000E+00 -0.00000000000E+00  0.00000000000E+00  0.93800000000E+00  0.93800000000E+00 0.  1.
         11    1    1    2    0    0  0.82005977779E-01 -0.18209959515E+00  0.14084375350E+01  0.14225265531E+01  0.51100000000E-03 0.  1.
    9000002    1    1    2    0    0 -0.28774223143E+00  0.46628792867E+00  0.20776653957E+00  0.11059977211E+01  0.93800000000E+00 0.  1.
         22    1    1    2    0    0  0.20573625365E+00 -0.28418833352E+00  0.23837958928E+01  0.24094757258E+01  0.00000000000E+00 0.  1.
</event>
<event>
 5    1  0.6776507E+001  0.1539769E+01  0.7818608E-02  0.3421448E+00
         11   -1    0    0    0    0  0.00000000000E+00  0.00000000000E+00  0.39999999674E+01  0.40000000000E+01  0.51100000000E-03 0. -1.
    9000002   -1    0    0    0    0 -0.00000000000E+00 -0.00000000000E+00  0.00000000000E+00  0.93800000000E+00  0.93800000000E+00 0. -1.
         11    1    1    2    0    0 -0.12477894968E+00  0.22502971923E+00  0.11457079819E+01  0.11742466528E+01  0.51100000000E-03 0. -1.
    9000002    1    1    2    0    0 -0.13097089092E+00 -0.42471543058E-01  0.57958984775E-01  0.94982127274E+00  0.93800000000E+00 0. -1.
         22    1    1    2    0    0  0.25574984060E+00 -0.18255817617E+00  0.27963330007E+01  0.28139320744E+01  0.00000000000E+00 0. -1.
</event>
<event>
 5    1  0.6776507E+001  0.1599669E+01  0.7818608E-02  0.3353723E+00
         11   -1    0    0    0    0  0.00000000000E+00  0.00000000000E+00  0.39999999674E+01  0.40000000000E+01  0.51100000000E-03 0. -1.
    9000002   -1    0    0    0    0 -0.00000000000E+00 -0.00000000000E+00  0.00000000000E+00  0.93800000000E+00  0.93800000000E+00 0. -1.
         11    1    1    2    0    0  0.10637877011E+00 -0.78734293969E-01  0.13999460451E+01  0.14061880109E+01  0.51100000000E-03 0. -1.
    9000002    1    1    2    0    0 -0.28801778886E+00  0.22023957993E+00  0.88276509445E-01  0.10095030765E+01  0.93800000000E+00 0. -1.
         22    1    1    2    0    0  0.18163901875E+00 -0.14150528596E+00  0.25117774128E+01  0.25223089126E+01  0.00000000000E+00 0. -1.
</event>
<event>
 5    1  0.1417816E+002  0.1597649E+01  0.7818608E-02  0.3355919E+00
         11   -1    0    0    0    0  0.00000000000E+00  0.00000000000E+00  0.39999999674E+01  0.40000000000E+01  0.51100000000E-03 0.  1.
    9000002   -1    0    0    0    0 -0.00000000000E+00 -0.00000000000E+00  0.00000000000E+00  0.93800000000E+00  0.93800000000E+00 0.  1.
         11    1    1    2    0    0 -0.86548673910E-01 -0.63128181530E-02  0.13008519912E+01  0.13037433370E+01  0.51100000000E-03 0.  1.
    9000002    1    1    2    0    0  0.25912714492E+00  0.17330700643E+00  0.66502526433E-01  0.99068096870E+00  0.93800000000E+00 0.  1.
         22    1    1    2    0    0 -0.17257847101E+00 -0.16699418828E+00  0.26326454497E+01  0.26435756943E+01  0.00000000000E+00 0.  1.
</event>
<event>
 5    1  0.6776507E+001  0.1597340E+01  0.7818608E-02  0.3356256E+00
         11   -1    0    0    0    0  0.00000000000E+00  0.00000000000E+00  0.39999999674E+01  0.40000000000E+01  0.51100000000E-03 0. -1.
    9000002   -1    0    0    0    0 -0.00000000000E+00 -0.00000000000E+00  0.00000000000E+00  0.93800000000E+00  0.93800000000E+00 0. -1.
         11    1    1    2    0    0  0.11438353494E-01  0.25978921125E-01  0.87386477029E+00  0.87432581922E+00  0.51100000000E-03 0. -1.
    9000002    1    1    2    0    0 -0.28398431905E-01 -0.33319657426E+00  0.76722021913E-01  0.99877760121E+00  0.93800000000E+00 0. -1.
         22    1    1    2    0    0  0.16960078411E-01  0.30721765314E+00  0.30494131752E+01  0.30648965796E+01  0.00000000000E+00 0. -1.
</event>
<event>
 5    1  0.6776507E+001  0.1599674E+01  0.7818608E-02  0.3353717E+00
         11   -1    0    0    0    0  0.00000000000E+00  0.00000000000E+00  0.39999999674E+01  0.40000000000E+01  0.51100000000E-03 0. -1.
    9000002   -1    0    0    0    0 -0.00000000000E+00 -0.00000000000E+00  0.00000000000E+00  0.93800000000E+00  0.93800000000E+00 0. -1.
         11    1    1    2    0    0  0.27325261366E-01 -0.10269824809E-01  0.32306321170E+00  0.32437977601E+00  0.51100000000E-03 0. -1.
    9000002    1    1    2    0    0 -0.33741375070E+00  0.11312784257E+00  0.84975408275E-01  0.10068320455E+01  0.93800000000E+00 0. -1.
         22    1    1    2    0    0  0.31008848934E+00 -0.10285801777E+00  0.35919613474E+01  0.36067881784E+01  0.00000000000E+00 0. -1.
</event>
<event>
 5    1  0.6776507E+001  0.1574315E+01  0.7818608E-02  0.3381721E+00
         11   -1    0    0    0    0  0.00000000000E+00  0.00000000000E+00  0.39999999674E+01  0.40000000000E+01  0.51100000000E-03 0. -1.
    9000002   -1    0    0    0    0 -0.00000000000E+00 -0.00000000000E+00  0.00000000000E+00  0.93800000000E+00  0.93800000000E+00 0.  1.
         11    1    1    2    0    0 -0.10489028524E+00 -0.60869748826E-03  0.63609456835E+00  0.64468511962E+00  0.51100000000E-03 0. -1.
    9000002    1    1    2    0    0 -0.21763904259E+00  0.10988093051E+00  0.59053342373E-01  0.97096440151E+00  0.93800000000E+00 0.  1.
         22    1    1    2    0    0  0.32252932783E+00 -0.10927223302E+00  0.33048520566E+01  0.33223504789E+01  0.00000000000E+00 0. -1.
</event>
<event>
 5    1  0.6776507E+001  0.1599663E+01  0.7818608E-02  0.3353729E+00
         11   -1    0    0    0    0  0.00000000000E+00  0.00000000000E+00  0.39999999674E+01  0.40000000000E+01  0.51100000000E-03 0.  1.
    9000002   -1    0    0    0    0 -0.00000000000E+00 -0.00000000000E+00  0.00000000000E+00  0.93800000000E+00  0.93800000000E+00 0. -1.
         11    1    1    2    0    0  0.20295321559E+00  0.15852392643E-01  0.13431983299E+01  0.13585371988E+01  0.51100000000E-03 0.  1.
    9000002    1    1    2    0    0 -0.57361818524E+00 -0.55787739645E-01  0.23061618946E+00  0.11248012807E+01  0.93800000000E+00 0. -1.
         22    1    1    2    0    0  0.37066496965E+00  0.39935347002E-01  0.24261854480E+01  0.24546615204E+01  0.00000000000E+00 0. -1.
</event>
<event>
 5    1  0.6776507E+001  0.1597188E+01  0.7818608E-02  0.3356421E+00
         11   -1    0    0    0    0  0.00000000000E+00  0.00000000000E+00  0.39999999674E+01  0.40000000000E+01  0.51100000000E-03 0.  1.
    9000002   -1    0    0    0    0 -0.00000000000E+00 -0.00000000000E+00  0.00000000000E+00  0.93800000000E+00  0.93800000000E+00 0. -1.
         11    1    1    2    0    0  0.15558533214E+00 -0.21341962810E-01  0.91453831324E+00  0.92792395295E+00  0.51100000000E-03 0.  1.
    9000002    1    1    2    0    0 -0.56088817179E+00  0.28439384838E+00  0.28024885538E+00  0.11635543920E+01  0.93800000000E+00 0. -1.
         22    1    1    2    0    0  0.40530283965E+00 -0.26305188557E+00  0.28052127987E+01  0.28465216550E+01  0.00000000000E+00 0.  1.
</event>
<event>
 5    1  0.6776507E+001  0.1596396E+01  0.7818608E-02  0.3357285E+00
         11   -1    0    0    0    0  0.00000000000E+00  0.00000000000E+00  0.39999999674E+01  0.40000000000E+01  0.51100000000E-03 0. -1.
    9000002   -1    0    0    0    0 -0.00000000000E+00 -0.00000000000E+00  0.00000000000E+00  0.93800000000E+00  0.93800000000E+00 0. -1.
         11    1    1    2    0    0 -0.89487777294E-01  0.19168706839E+00  0.13338312145E+01  0.13505028561E+01  0.51100000000E-03 0. -1.
    9000002    1    1    2    0    0  0.11869337132E+00 -0.42608363586E+00  0.13554537318E+00  0.10458737636E+01  0.93800000000E+00 0. -1.
         22    1    1    2    0    0 -0.29205594030E-01  0.23439656747E+00  0.25306233797E+01  0.25416233803E+01  0.00000000000E+00 0. -1.
</event>
<event>
 5    1  0.6776507E+001  0.1598997E+01  0.7818608E-02  0.3354453E+00
         11   -1    0    0    0    0  0.00000000000E+00  0.00000000000E+00  0.39999999674E+01  0.40000000000E+01  0.51100000000E-03 0.  1.
    9000002   -1    0    0    0    0 -0.00000000000E+00 -0.00000000000E+00  0.00000000000E+00  0.93800000000E+00  0.93800000000E+00 0. -1.
         11    1    1    2    0    0 -0.74296173179E-01  0.23964558962E-01  0.93214710780E+00  0.93541045169E+00  0.51100000000E-03 0.  1.
    9000002    1    1    2    0    0  0.41950891155E+00 -0.81925699739E-01  0.12426412220E+00  0.10382606220E+01  0.93800000000E+00 0. -1.
         22    1    1    2    0    0 -0.34521273837E+00  0.57961140777E-01  0.29435887374E+01  0.29643289263E+01  0.00000000000E+00 0.  1.
</event>
<event>
 5    1  0.6776507E+001  0.1505039E+01  0.7818608E-02  0.3463353E+00
         11   -1    0    0    0    0  0.00000000000E+00  0.00000000000E+00  0.39999999674E+01  0.40000000000E+01  0.51100000000E-03 0. -1.
    9000002   -1    0    0    0    0 -0.00000000000E+00 -0.00000000000E+00  0.00000000000E+00  0.93800000000E+00  0.93800000000E+00 0. -1.
         11    1    1    2    0    0 -0.32742228942E+00 -0.52093691661E-01  0.36394482648E+00  0.49231616484E+00  0.51100000000E-03 0. -1.
    9000002    1    1    2    0    0 -0.11979636793E+00  0.17747361795E-01  0.18263573603E+00  0.96325798761E+00  0.93800000000E+00 0. -1.
         22    1    1    2    0    0  0.44721865735E+00  0.34346329866E-01  0.34534194049E+01  0.34824258475E+01  0.00000000000E+00 0. -1.
</event>
<event>
 5    1  0.6776507E+001  0.1598949E+01  0.7818608E-02  0.3354505E+00
         11   -1    0    0    0    0  0.00000000000E+00  0.00000000000E+00  0.39999999674E+01  0.40000000000E+01  0.51100000000E-03 0. -1.
    9000002   -1    0    0    0    0 -0.00000000000E+00 -0.00000000000E+00  0.00000000000E+00  0.93800000000E+00  0.93800000000E+00 0.  1.
         11    1    1    2    0    0  0.21434940181E-01 -0.11510296130E-01  0.11231099771E+00  0.11491720892E+00  0.51100000000E-03 0. -1.
    9000002    1    1    2    0    0 -0.35255725108E+00  0.37453862430E+00  0.18222700571E+00  0.10851849971E+01  0.93800000000E+00 0.  1.
         22    1    1    2    0    0  0.33112231090E+00 -0.36302832817E+00  0.37054619639E+01  0.37378977940E+01  0.00000000000E+00 0. -1.
</event>
<event>
 5    1  0.6776507E+001  0.1599527E+01  0.7818608E-02  0.3353877E+00
         11   -1    0    0    0    0  0.00000000000E+00  0.00000000000E+00  0.39999999674E+01  0.40000000000E+01  0.51100000000E-03 0.  1.
    9000002   -1    0    0    0    0 -0.00000000000E+00 -0.00000000000E+00  0.00000000000E+00  0.93800000000E+00  0.93800000000E+00 0.  1.
         11    1    1    2    0    0  0.95567676329E-01 -0.10716433248E+00  0.64887113054E+00  0.66456856688E+00  0.51100000000E-03 0.  1.
    9000002    1    1    2    0    0 -0.47787558121E+00  0.56044544340E+00  0.39185518287E+00  0.12553320877E+01  0.93800000000E+00 0.  1.
         22    1    1    2    0    0  0.38230790488E+00 -0.45328111092E+00  0.29592736540E+01  0.30180993454E+01  0.00000000000E+00 0.  1.
</event>
<event>
 5    1  0.6776507E+001  0.1599658E+01  0.7818608E-02  0.3353735E+00
         11   -1    0    0    0    0  0.00000000000E+00  0.00000000000E+00  0.39999999674E+01  0.40000000000E+01  0.51100000000E-03 0. -1.
    9000002   -1    0    0    0    0 -0.00000000000E+00 -0.00000000000E+00  0.00000000000E+00  0.93800000000E+00  0.93800000000E+00 0.  1.
         11    1    1    2    0    0  0.62927099919E-01  0.43580627065E-01  0.54530680938E+00  0.55065312896E+00  0.51100000000E-03 0. -1.
    9000002    1    1    2    0    0 -0.45301173247E+00 -0.32290584600E+00  0.21404036822E+00  0.11113708177E+01  0.93800000000E+00 0.  1.
         22    1    1    2    0    0  0.39008463255E+00  0.27932521893E+00  0.32406527898E+01  0.32759760534E+01  0.00000000000E+00 0. -1.
</event>
<event>
 5    1  0.6776507E+001  0.1599671E+01  0.7818608E-02  0.3353721E+00
         11   -1    0    0    0    0  0.00000000000E+00  0.00000000000E+00  0.39999999674E+01  0.40000000000E+01  0.51100000000E-03 0. -1.
    9000002   -1    0    0    0    0 -0.00000000000E+00 -0.00000000000E+00  0.00000000000E+00  0.93800000000E+00  0.93800000000E+00 0. -1.
         11    1    1    2    0    0 -0.34387079778E-02  0.63231672002E-02  0.61475143615E-01  0.61897185392E-01  0.51100000000E-03 0. -1.
    9000002    1    1    2    0    0  0.24968993149E+00 -0.38453930443E+00  0.14296156926E+00  0.10538014751E+01  0.93800000000E+00 0. -1.
         22    1    1    2    0    0 -0.24625122351E+00  0.37821613723E+00  0.37955632545E+01  0.38223013396E+01  0.00000000000E+00 0. -1.
</event>
<event>
 5    1  0.6776507E+001  0.1599672E+01  0.7818608E-02  0.3353719E+00
         11   -1    0    0    0    0  0.00000000000E+00  0.00000000000E+00  0.39999999674E+01  0.40000000000E+01  0.51100000000E-03 0.  1.
    9000002   -1    0    0    0    0 -0.00000000000E+00 -0.00000000000E+00  0.00000000000E+00  0.93800000000E+00  0.93800000000E+00 0. -1.
         11    1    1    2    0    0 -0.84214469577E-01  0.31123568608E+00  0.13796061383E+01  0.14167826534E+01  0.51100000000E-03 0.  1.
    9000002    1    1    2    0    0  0.21358898003E+00 -0.79550395852E+00  0.50390804219E+00  0.13461850227E+01  0.93800000000E+00 0. -1.
         22    1    1    2    0    0 -0.12937451045E+00  0.48426827244E+00  0.21164857869E+01  0.21750323238E+01  0.00000000000E+00 0.  1.
</event>
<event>
 5    1  0.1073350E+002  0.1550864E+01  0.7818608E-02  0.3408484E+00
         11   -1    0    0    0    0  0.00000000000E+00  0.00000000000E+00  0.39999999674E+01  0.40000000000E+01  0.51100000000E-03 0.  1.
    9000002   -1    0    0    0    0 -0.00000000000E+00 -0.00000000000E+00  0.00000000000E+00  0.93800000000E+00  0.93800000000E+00 0. -1.
         11    1    1    2    0    0  0.23276689898E+00  0.87072789960E-01  0.13597425230E+01  0.13822670111E+01  0.51100000000E-03 0.  1.
    9000002    1    1    2    0    0 -0.27153775393E-01  0.90040619219E-01  0.42311785812E-01  0.94365191032E+00  0.93800000000E+00 0. -1.
         22    1    1    2    0    0 -0.20561312358E+00 -0.17711340918E+00  0.25979456585E+01  0.26120810785E+01  0.00000000000E+00 0.  1.
</event>
<event>
 5    1  0.6776507E+001  0.1587939E+01  0.7818608E-02  0.3366559E+00
         11   -1    0    0    0    0  0.00000000000E+00  0.00000000000E+00  0.39999999674E+01  0.40000000000E+01  0.51100000000E-03 0.  1.
    9000002   -1    0    0    0    0 -0.00000000000E+00 -0.00000000000E+00  0.00000000000E+00  0.93800000000E+00  0.93800000000E+00 0.  1.
         11    1    1    2    0    0 -0.58063781650E-01 -0.93274307455E-02  0.11748656397E+00  0.13138400793E+00  0.51100000000E-03 0.  1.
    9000002    1    1    2    0    0  0.41846752622E+00 -0.38575178895E-01  0.12941833256E+00  0.10359518424E+01  0.93800000000E+00 0.  1.
         22    1    1    2    0    0 -0.36040374457E+00  0.47902609640E-01  0.37530950708E+01  0.37706641497E+01  0.00000000000E+00 0.  1.
</event>
<event>
 5    1  0.6776507E+001  0.1599472E+01  0.7818608E-02  0.3353937E+00
         11   -1    0    0    0    0  0.00000000000E+00  0.00000000000E+00  0.39999999674E+01  0.40000000000E+01  0.51100000000E-03 0.  1.
    9000002   -1    0    0    0    0 -0.00000000000E+00 -0.00000000000E+00  0.00000000000E+00  0.93800000000E+00  0.93800000000E+00 0. -1.
         11    1    1    2    0    0  0.28333608540E-01 -0.35740850852E-01  0.57727698771E+00  0.57907614650E+00  0.51100000000E-03 0.  1.
    9000002    1    1    2    0    0 -0.20103009051E+00  0.32393647515E+00  0.97979053466E-01  0.10172471834E+01  0.93800000000E+00 0. -1.
         22    1    1    2    0    0  0.17269648197E+00 -0.28819562429E+00  0.33247439262E+01  0.33416766701E+01  0.00000000000E+00 0.  1.
</event>
<event>
 5    1  0.6776507E+001  0.1599673E+01  0.7818608E-02  0.3353718E+00
         11   -1    0    0    0    0  0.00000000000E+00  0.00000000000E+00  0.39999999674E+01  0.40000000000E+01  0.51100000000E-03 0.  1.
    9000002   -1    0    0    0    0 -0.00000000000E+00 -0.00000000000E+00  0.00000000000E+00  0.93800000000E+00  0.93800000000E+00 0.  1.
         11    1    1    2    0    0  0.68338288828E-01  0.12021356108E+00  0.11822525554E+01  0.11903120549E+01  0.51100000000E-03 0.  1.
    9000002    1    1    2    0    0 -0.22841891976E+00 -0.38758654356E+00  0.13746712028E+00  0.10493520576E+01  0.93800000000E+00 0.  1.
         22    1    1    2    0    0  0.16008063093E+00  0.26737298248E+00  0.26802802917E+01  0.26983358875E+01  0.00000000000E+00 0.  1.
</event>
<event>
 5    1  0.6776507E+001  0.1587023E+01  0.7818608E-02  0.3367569E+00
         11   -1    0    0    0    0  0.00000000000E+00  0.00000000000E+00  0.39999999674E+01  0.40000000000E+01  0.51100000000E-03 0. -1.
    9000002   -1    0    0    0    0 -0.00000000000E+00 -0.00000000000E+00  0.00000000000E+00  0.93800000000E+00  0.93800000000E+00 0. -1.
         11    1    1    2    0    0 -0.63223621858E-01 -0.17978946561E-01  0.20700518035E+00  0.21719087157E+00  0.51100000000E-03 0. -1.
    9000002    1    1    2    0    0  0.22800585308E+00 -0.30048513541E+00  0.10613777409E+00  0.10165565467E+01  0.93800000000E+00 0. -1.
         22    1    1    2    0    0 -0.16478223122E+00  0.31846408197E+00  0.36868570129E+01  0.37042525817E+01  0.00000000000E+00 0. -1.
</event>
<event>
 5    1  0.6776507E+001  0.1599613E+01  0.7818608E-02  0.3353784E+00
         11   -1    0    0    0    0  0.00000000000E+00  0.00000000000E+00  0.39999999674E+01  0.40000000000E+01  0.51100000000E-03 0. -1.
    9000002   -1    0    0    0    0 -0.00000000000E+00 -0.00000000000E+00  0.00000000000E+00  0.93800000000E+00  0.93800000000E+00 0.  1.
         11    1    1    2    0    0 -0.29722450556E-01 -0.32727938689E-01  0.46509856963E+00  0.46719533670E+00  0.51100000000E-03 0. -1.
    9000002    1    1    2    0    0  0.25522531939E+00  0.32516338814E+00  0.11551154891E+00  0.10315319242E+01  0.93800000000E+00 0.  1.
         22    1    1    2    0    0 -0.22550286883E+00 -0.29243544945E+00  0.34193898488E+01  0.34392727391E+01  0.00000000000E+00 0. -1.
</event>
<event>
 5    1  0.6776507E+001  0.1561176E+01  0.7818608E-02  0.3396611E+00
         11   -1    0    0    0    0  0.00000000000E+00  0.00000000000E+00  0.39999999674E+01  0.40000000000E+01  0.51100000000E-03 0.  1.
    9000002   -1    0    0    0    0 -0.00000000000E+00 -0.00000000000E+00  0.00000000000E+00  0.93800000000E+00  0.93800000000E+00 0. -1.
         11    1    1    2    0    0  0.84261783222E-01  0.11030173121E+00  0.45956374234E+00  0.48006834348E+00  0.51100000000E-03 0.  1.
    9000002    1    1    2    0    0  0.29858729707E+00 -0.12402397464E+00  0.10106826034E+00  0.99729389525E+00  0.93800000000E+00 0. -1.
         22    1    1    2    0    0 -0.38284908029E+00  0.13722243434E-01  0.34393679647E+01  0.34606377613E+01  0.00000000000E+00 0.  1.
</event>
<event>
 5    1  0.6776507E+001  0.1599442E+01  0.7818608E-02  0.3353970E+00
         11   -1    0    0    0    0  0.00000000000E+00  0.00000000000E+00  0.39999999674E+01  0.40000000000E+01  0.51100000000E-03 0.  1.
    9000002   -1    0    0    0    0 -0.00000000000E+00 -0.00000000000E+00  0.00000000000E+00  0.93800000000E+00  0.93800000000E+00 0. -1.
         11    1    1    2    0    0 -0.99552797571E-01  0.12616432380E-01  0.10678336026E+01  0.10725384831E+01  0.51100000000E-03 0.  1.
    9000002    1    1    2    0    0  0.35045160065E+00 -0.10476083172E+00  0.90059964396E-01  0.10108145000E+01  0.93800000000E+00 0. -1.
         22    1    1    2    0    0 -0.25089880308E+00  0.92144399339E-01  0.28421064004E+01  0.28546470168E+01  0.00000000000E+00 0.  1.
</event>
<event>
 5    1  0.6776507E+001  0.1515798E+01  0.7818608E-02  0.3450150E+00
         11   -1    0    0    0    0  0.00000000000E+00  0.00000000000E+00  0.39999999674E+01  0.40000000000E+01  0.51100000000E-03 0. -1.
    9000002   -1    0    0    0    0 -0.00000000000E+00 -0.00000000000E+00  0.00000000000E+00  0.93800000000E+00  0.93800000000E+00 0. -1.
         11    1    1    2    0    0 -0.10246229769E+00 -0.45527747385E+00  0.14112462930E+01  0.14864025233E+01  0.51100000000E-03 0. -1.
    9000002    1    1    2    0    0  0.34456880781E+00  0.31205986157E+00  0.22451311892E+00  0.10706816339E+01  0.93800000000E+00 0. -1.
         22    1    1    2    0    0 -0.24210651012E+00  0.14321761227E+00  0.23642405554E+01  0.23809158428E+01  0.00000000000E+00 0. -1.
</event>
<event>
 5    1  0.6776507E+001  0.1599676E+01  0.7818608E-02  0.3353715E+00
         11   -1    0    0    0    0  0.00000000000E+00  0.00000000000E+00  0.39999999674E+01  0.40000000000E+01  0.51100000000E-03 0.  1.
    9000002   -1    0    0    0    0 -0.00000000000E+00 -0.00000000000E+00  0.00000000000E+00  0.93800000000E+00  0.93800000000E+00 0. -1.
         11    1    1    2    0    0  0.63678487687E-02 -0.79014254630E-01  0.77339938232E+00  0.77745139245E+00  0.51100000000E-03 0.  1.
    9000002    1    1    2    0    0 -0.35065457259E-01  0.39496422464E+00  0.10600584538E+00  0.10238689195E+01  0.93800000000E+00 0. -1.
         22    1    1    2    0    0  0.28697608490E-01 -0.31594997001E+00  0.31205947397E+01  0.31366796881E+01  0.00000000000E+00 0.  1.
</event>
<event>
 5    1  0.6776507E+001  0.1599623E+01  0.7818608E-02  0.3353773E+00
         11   -1    0    0    0    0  0.00000000000E+00  0.00000000000E+00  0.39999999674E+01  0.40000000000E+01  0.51100000000E-03 0.  1.
    9000002   -1    0    0    0    0 -0.00000000000E+00 -0.00000000000E+00  0.00000000000E+00  0.93800000000E+00  0.93800000000E+00 0. -1.
         11    1    1    2    0    0  0.30399173078E-01 -0.46853824551E-01  0.38727999691E+00  0.39128691228E+00  0.51100000000E-03 0.  1.
    9000002    1    1    2    0    0 -0.25669188981E+00  0.43266498383E+00  0.17339319791E+00  0.10784242744E+01  0.93800000000E+00 0. -1.
         22    1    1    2    0    0  0.22629271673E+00 -0.38581115928E+00  0.34393267725E+01  0.34682888133E+01  0.00000000000E+00 0.  1.
</event>
<event>
 5    1  0.6776507E+001  0.1514921E+01  0.7818608E-02  0.3451218E+00
         11   -1    0    0    0    0  0.00000000000E+00  0.00000000000E+00  0.39999999674E+01  0.40000000000E+01  0.51100000000E-03 0.  1.
    9000002   -1    0    0    0    0 -0.00000000000E+00 -0.00000000000E+00  0.00000000000E+00  0.93800000000E+00  0.93800000000E+00 0.  1.
         11    1    1    2    0    0 -0.33998778718E+00 -0.15273034266E+00  0.10363891159E+01  0.11013722866E+01  0.51100000000E-03 0.  1.
    9000002    1    1    2    0    0  0.10220234686E+00  0.41342023209E+00  0.19850459367E+00  0.10490994623E+01  0.93800000000E+00 0.  1.
         22    1    1    2    0    0  0.23778544032E+00 -0.26068988943E+00  0.27651062578E+01  0.27875282512E+01  0.00000000000E+00 0.  1.
</event>
<event>
 5    1  0.6776507E+001  0.1599673E+01  0.7818608E-02  0.3353719E+00
         11   -1    0    0    0    0  0.00000000000E+00  0.00000000000E+00  0.39999999674E+01  0.40000000000E+01  0.51100000000E-03 0.  1.
    9000002   -1    0    0    0    0 -0.00000000000E+00 -0.00000000000E+00  0.00000000000E+00  0.93800000000E+00  0.93800000000E+00 0.  1.
         11    1    1    2    0    0 -0.19165026011E+00 -0.10684124539E-01  0.90655778384E+00  0.92665594979E+00  0.51100000000E-03 0.  1.
    9000002    1    1    2    0    0  0.75545652753E+00  0.34137305703E-01  0.41536461578E+00  0.12744613312E+01  0.93800000000E+00 0. -1.
         22    1    1    2    0    0 -0.56380626742E+00 -0.23453181164E-01  0.26780775677E+01  0.27368827190E+01  0.00000000000E+00 0.  1.
</event>
<event>
 5    1  0.6776507E+001  0.1598895E+01  0.7818608E-02  0.3354563E+00
         11   -1    0    0    0    0  0.00000000000E+00  0.00000000000E+00  0.39999999674E+01  0.40000000000E+01  0.51100000000E-03 0. -1.
    9000002   -1    0    0    0    0 -0.00000000000E+00 -0.00000000000E+00  0.00000000000E+00  0.93800000000E+00  0.93800000000E+00 0. -1.
         11    1    1    2    0    0 -0.56134604351E-01  0.17135905915E-01  0.82066784715E+00  0.82276406675E+00  0.51100000000E-03 0. -1.
    9000002    1    1    2    0    0  0.36802094469E+00 -0.16289597574E+00  0.10994153401E+00  0.10265990724E+01  0.93800000000E+00 0. -1.
         22    1    1    2    0    0 -0.31188634034E+00  0.14576006982E+00  0.30693905862E+01  0.30886368608E+01  0.00000000000E+00 0. -1.
</event>
<event>
 5    1  0.6776507E+001  0.1598918E+01  0.7818608E-02  0.3354539E+00
         11   -1    0    0    0    0  0.00000000000E+00  0.00000000000E+00  0.39999999674E+01  0.40000000000E+01  0.51100000000E-03 0.  1.
    9000002   -1    0    0    0    0 -0.00000000000E+00 -0.00000000000E+00  0.00000000000E+00  0.93800000000E+00  0.93800000000E+00 0.  1.
         11    1    1    2    0    0 -0.58444309536E-01 -0.10060386645E+00  0.59691812017E+00  0.60815160821E+00  0.51100000000E-03 0.  1.
    9000002    1    1    2    0    0  0.31076963826E+00  0.49084808165E+00  0.23528402504E+00  0.11281454604E+01  0.93800000000E+00 0.  1.
         22    1    1    2    0    0 -0.25232532872E+00 -0.39024421520E+00  0.31677978222E+01  0.32017029314E+01  0.00000000000E+00 0.  1.
</event>
<event>
 5    1  0.6776507E+001  0.1598758E+01  0.7818608E-02  0.3354712E+00
         11   -1    0    0    0    0  0.00000000000E+00  0.00000000000E+00  0.39999999674E+01  0.40000000000E+01  0.51100000000E-03 0. -1.
    9000002   -1    0    0    0    0 -0.00000000000E+00 -0.00000000000E+00  0.00000000000E+00  0.93800000000E+00  0.93800000000E+00 0. -1.
         11    1    1    2    0    0 -0.14237664176E+00 -0.45107976116E-01  0.11212950029E+01  0.11311978529E+01  0.51100000000E-03 0. -1.
    9000002    1    1    2    0    0  0.54078872218E+00  0.56462126409E-01  0.20482040093E+00  0.11033747371E+01  0.93800000000E+00 0. -1.
         22    1    1    2    0    0 -0.39841208041E+00 -0.11354150292E-01  0.26738845635E+01  0.27034274101E+01  0.00000000000E+00 0. -1.
</event>
<event>
 5    1  0.6849963E+001  0.1577659E+01  0.7818608E-02  0.3377974E+00
         11   -1    0    0    0    0  0.00000000000E+00  0.00000000000E+00  0.39999999674E+01  0.40000000000E+01  0.51100000000E-03 0. -1.
    9000002   -1    0    0    0    0 -0.00000000000E+00 -0.00000000000E+00  0.00000000000E+00  0.93800000000E+00  0.93800000000E+00 0. -1.
         11    1    1    2    0    0 -0.18145656018E+00  0.57625505178E-01  0.12336056341E+01  0.12482108410E+01  0.51100000000E-03 0. -1.
    9000002    1    1    2    0    0  0.20355901367E+00  0.18897132899E+00  0.68603687851E-01  0.98066146106E+00  0.93800000000E+00 0.  1.
         22    1    1    2    0    0 -0.22102453484E-01 -0.24659683417E+00  0.26977906454E+01  0.27091276979E+01  0.00000000000E+00 0. -1.
</event>
<event>
 5    1  0.6776507E+001  0.1525192E+01  0.7818608E-02  0.3438787E+00
         11   -1    0    0    0    0  0.00000000000E+00  0.00000000000E+00  0.39999999674E+01  0.40000000000E+01  0.51100000000E-03 0.  1.
    9000002   -1    0    0    0    0 -0.00000000000E+00 -0.00000000000E+00  0.00000000000E+00  0.93800000000E+00  0.93800000000E+00 0. -1.
         11    1    1    2    0    0  0.13421324616E+00 -0.22695322076E+00  0.87869950194E+00  0.91740614544E+00  0.51100000000E-03 0.  1.
    9000002    1    1    2    0    0 -0.55207676527E-01 -0.86303905019E-01  0.63433621794E-01  0.94570824039E+00  0.93800000000E+00 0. -1.
         22    1    1    2    0    0 -0.79005569629E-01  0.31325712578E+00  0.30578668436E+01  0.30748856142E+01  0.00000000000E+00 0.  1.
</event>
<event>
 5    1  0.6776507E+001  0.1453451E+01  0.7818608E-02  0.3529590E+00
         11   -1    0    0    0    0  0.00000000000E+00  0.00000000000E+00  0.39999999674E+01  0.40000000000E+01  0.51100000000E-03 0.  1.
    9000002   -1    0    0    0    0 -0.00000000000E+00 -0.00000000000E+00  0.00000000000E+00  0.93800000000E+00  0.93800000000E+00 0. -1.
         11    1    1    2    0    0  0.38713021762E+00  0.71128542691E-01  0.88243622512E+00  0.96624170242E+00  0.51100000000E-03 0.  1.
    9000002    1    1    2    0    0  0.76884061861E-01 -0.19046359592E+00  0.15736088970E+00  0.97303339611E+00  0.93800000000E+00 0. -1.
         22    1    1    2    0    0 -0.46401427948E+00  0.11933505323E+00  0.29602028525E+01  0.29987249015E+01  0.00000000000E+00 0.  1.
</event>
<event>
 5    1  0.6776507E+001  0.1599507E+01  0.7818608E-02  0.3353898E+00
         11   -1    0    0    0    0  0.00000000000E+00  0.00000000000E+00  0.39999999674E+01  0.40000000000E+01  0.51100000000E-03 0. -1.
    9000002   -1    0    0    0    0 -0.00000000000E+00 -0.00000000000E+00  0.00000000000E+00  0.93800000000E+00  0.93800000000E+00 0.  1.
         11    1    1    2    0    0  0.12577682460E-01  0.10867675541E+00  0.90472382275E+00  0.91131459543E+00  0.51100000000E-03 0. -1.
    9000002    1    1    2    0    0 -0.23327905518E-02 -0.48540285705E+00  0.16105952045E+00  0.10683658290E+01  0.93800000000E+00 0.  1.
         22    1    1    2    0    0 -0.10244891908E-01  0.37672610165E+00  0.29342166242E+01  0.29583195755E+01  0.00000000000E+00 0. -1.
</event>
<event>
 5    1  0.6776507E+001  0.1599624E+01  0.7818608E-02  0.3353772E+00
         11   -1    0    0    0    0  0.00000000000E+00  0.00000000000E+00  0.39999999674E+01  0.40000000000E+01  0.51100000000E-03 0. -1.
    9000002   -1    0    0    0    0 -0.00000000000E+00 -0.00000000000E+00  0.00000000000E+00  0.93800000000E+00  0.93800000000E+00 0. -1.
         11    1    1    2    0    0  0.60468956265E-02 -0.98646126437E-01  0.83734772280E+00  0.84316018241E+00  0.51100000000E-03 0. -1.
    9000002    1    1    2    0    0 -0.19625132685E-01  0.48474263262E+00  0.16077082631E+00  0.10682002735E+01  0.93800000000E+00 0. -1.
         22    1    1    2    0    0  0.13578237059E-01 -0.38609650618E+00  0.30018814183E+01  0.30266395441E+01  0.00000000000E+00 0. -1.
</event>
<event>
 5    1  0.6776507E+001  0.1574558E+01  0.7818608E-02  0.3381448E+00
         11   -1    0    0    0    0  0.00000000000E+00  0.00000000000E+00  0.39999999674E+01  0.40000000000E+01  0.51100000000E-03 0. -1.
    9000002   -1    0    0    0    0 -0.00000000000E+00 -0.00000000000E+00  0.00000000000E+00  0.93800000000E+00  0.93800000000E+00 0. -1.
         11    1    1    2    0    0 -0.21045356606E-01  0.14473446682E+00  0.49426519673E+00  0.51545059777E+00  0.51100000000E-03 0. -1.
    9000002    1    1    2    0    0 -0.37096746373E+00 -0.27891648111E+00  0.16889740816E+00  0.10600856555E+01  0.93800000000E+00 0. -1.
         22    1    1    2    0    0  0.39201282034E+00  0.13418201429E+00  0.33368373625E+01  0.33624637467E+01  0.00000000000E+00 0. -1.
</event>
<event>
 5    1  0.6776507E+001  0.1599464E+01  0.7818608E-02  0.3353945E+00
         11   -1    0    0    0    0  0.00000000000E+00  0.00000000000E+00  0.39999999674E+01  0.40000000000E+01  0.51100000000E-03 0.  1.
    9000002   -1    0    0    0    0 -0.00000000000E+00 -0.00000000000E+00  0.00000000000E+00  0.93800000000E+00  0.93800000000E+00 0. -1.
         11    1    1    2    0    0 -0.53297178501E-01 -0.10114323928E+00  0.10578238812E+01  0.10639841017E+01  0.51100000000E-03 0.  1.
    9000002    1    1    2    0    0  0.15365769295E+00  0.40972361052E+00  0.13000128790E+00  0.10431818914E+01  0.93800000000E+00 0. -1.
         22    1    1    2    0    0 -0.10036051445E+00 -0.30858037123E+00  0.28121747983E+01  0.28308340069E+01  0.00000000000E+00 0.  1.
</event>
<event>
 5    1  0.6776507E+001  0.1599646E+01  0.7818608E-02  0.3353748E+00
         11   -1    0    0    0    0  0.00000000000E+00  0.00000000000E+00  0.39999999674E+01  0.40000000000E+01  0.51100000000E-03 0. -1.
    9000002   -1    0    0    0    0 -0.00000000000E+00 -0.00000000000E+00  0.00000000000E+00  0.93800000000E+00  0.93800000000E+00 0. -1.
         11    1    1    2    0    0  0.14434301989E-02 -0.12346240669E-02  0.13275049329E-01  0.13419979248E-01  0.51100000000E-03 0.  1.
    9000002    1    1    2    0    0 -0.39951895402E+00  0.18497452116E+00  0.13148726711E+00  0.10444921587E+01  0.93800000000E+00 0. -1.
         22    1    1    2    0    0  0.39807552382E+00 -0.18373989709E+00  0.38552376509E+01  0.38800878621E+01  0.00000000000E+00 0. -1.
</event>
<event>
 5    1  0.6776507E+001  0.1599675E+01  0.7818608E-02  0.3353716E+00
         11   -1    0    0    0    0  0.00000000000E+00  0.00000000000E+00  0.39999999674E+01  0.40000000000E+01  0.51100000000E-03 0.  1.
    9000002   -1    0    0    0    0 -0.00000000000E+00 -0.00000000000E+00  0.00000000000E+00  0.93800000000E+00  0.93800000000E+00 0.  1.
         11    1    1    2    0    0 -0.88544632394E-01  0.13787108843E+00  0.12305327925E+01  0.12413942982E+01  0.51100000000E-03 0.  1.
    9000002    1    1    2    0    0  0.27433799272E+00 -0.42426574516E+00  0.17489777798E+00  0.10796740200E+01  0.93800000000E+00 0.  1.
         22    1    1    2    0    0 -0.18579336032E+00  0.28639465673E+00  0.25945693969E+01  0.26169316818E+01  0.00000000000E+00 0.  1.
</event>
<event>
 5    1  0.6776507E+001  0.1599582E+01  0.7818608E-02  0.3353817E+00
         11   -1    0    0    0    0  0.00000000000E+00  0.00000000000E+00  0.39999999674E+01  0.40000000000E+01  0.51100000000E-03 0. -1.
    9000002   -1    0    0    0    0 -0.00000000000E+00 -0.00000000000E+00  0.00000000000E+00  0.93800000000E+00  0.93800000000E+00 0. -1.
         11    1    1    2    0    0 -0.26579994632E-01 -0.13608022961E+00  0.11549925257E+01  0.11632851415E+01  0.51100000000E-03 0. -1.
    9000002    1    1    2    0    0  0.53122376152E-01  0.45806587639E+00  0.14474951910E+00  0.10551979706E+01  0.93800000000E+00 0. -1.
         22    1    1    2    0    0 -0.26542381520E-01 -0.32198564678E+00  0.27002579226E+01  0.27195168878E+01  0.00000000000E+00 0. -1.
</event>
<event>
 5    1  0.6776507E+001  0.1519098E+01  0.7818608E-02  0.3446142E+00
         11   -1    0    0    0    0  0.00000000000E+00  0.00000000000E+00  0.39999999674E+01  0.40000000000E+01  0.51100000000E-03 0.  1.
    9000002   -1    0    0    0    0 -0.00000000000E+00 -0.00000000000E+00  0.00000000000E+00  0.93800000000E+00  0.93800000000E+00 0.  1.
         11    1    1    2    0    0 -0.22525385749E+00  0.18387944411E-02  0.74911267379E+00  0.78224851590E+00  0.51100000000E-03 0.  1.
    9000002    1    1    2    0    0 -0.22127669567E+00 -0.19606257409E+00  0.12411316512E+00  0.99128804429E+00  0.93800000000E+00 0.  1.
         22    1    1    2    0    0  0.44653055317E+00  0.19422377965E+00  0.31267741285E+01  0.31644634398E+01  0.00000000000E+00 0.  1.
</event>
<event>
 5    1  0.6776507E+001  0.1585266E+01  0.7818608E-02  0.3369512E+00
         11   -1    0    0    0    0  0.00000000000E+00  0.00000000000E+00  0.39999999674E+01  0.40000000000E+01  0.51100000000E-03 0. -1.
    9000002   -1    0    0    0    0 -0.00000000000E+00 -0.00000000000E+00  0.00000000000E+00  0.93800000000E+00  0.93800000000E+00 0. -1.
         11    1    1    2    0    0  0.63866129450E-02  0.98899565677E-01  0.85608320380E+00  0.86180080406E+00  0.51100000000E-03 0. -1.
    9000002    1    1    2    0    0  0.24861220931E+00  0.17364828633E-01  0.52347788933E-01  0.97195363001E+00  0.93800000000E+00 0. -1.
         22    1    1    2    0    0 -0.25499882226E+00 -0.11626439431E+00  0.30915689746E+01  0.31042455659E+01  0.00000000000E+00 0. -1.
</event>
<event>
 5    1  0.6776507E+001  0.1599649E+01  0.7818608E-02  0.3353744E+00
         11   -1    0    0    0    0  0.00000000000E+00  0.00000000000E+00  0.39999999674E+01  0.40000000000E+01  0.51100000000E-03 0. -1.
    9000002   -1    0    0    0    0 -0.00000000000E+00 -0.00000000000E+00  0.00000000000E+00  0.93800000000E+00  0.93800000000E+00 0. -1.
         11    1    1    2    0    0 -0.19664791839E+00  0.48400538744E-01  0.13876764856E+01  0.14023763068E+01  0.51100000000E-03 0. -1.
    9000002    1    1    2    0    0  0.52819351995E+00 -0.14621292231E+00  0.20741335509E+00  0.11059977003E+01  0.93800000000E+00 0. -1.
         22    1    1    2    0    0 -0.33154560155E+00  0.97812383564E-01  0.24049101266E+01  0.24296259929E+01  0.00000000000E+00 0. -1.
</event>
<event>
 5    1  0.6776507E+001  0.1599575E+01  0.7818608E-02  0.3353824E+00
         11   -1    0    0    0    0  0.00000000000E+00  0.00000000000E+00  0.39999999674E+01  0.40000000000E+01  0.51100000000E-03 0. -1.
    9000002   -1    0    0    0    0 -0.00000000000E+00 -0.00000000000E+00  0.00000000000E+00  0.93800000000E+00  0.93800000000E+00 0.  1.
         11    1    1    2    0    0  0.14300429813E+00  0.14970998904E-04  0.11232456862E+01  0.11323123960E+01  0.51100000000E-03 0. -1.
    9000002    1    1    2    0    0 -0.46163707465E+00  0.24380103326E-01  0.14549998855E+00  0.10558017924E+01  0.93800000000E+00 0.  1.
         22    1    1    2    0    0  0.31863277652E+00 -0.24395074325E-01  0.27312542926E+01  0.27498858116E+01  0.00000000000E+00 0. -1.
</event>
<event>
 5    1  0.6776507E+001  0.1599675E+01  0.7818608E-02  0.3353717E+00
         11   -1    0    0    0    0  0.00000000000E+00  0.00000000000E+00  0.39999999674E+01  0.40000000000E+01  0.51100000000E-03 0.  1.
    9000002   -1    0    0    0    0 -0.00000000000E+00 -0.00000000000E+00  0.00000000000E+00  0.93800000000E+00  0.93800000000E+00 0.  1.
         11    1    1    2    0    0  0.37173536478E-01  0.44809674858E-01  0.42275297263E+00  0.42674361830E+00  0.51100000000E-03 0.  1.
    9000002    1    1    2    0    0 -0.34480850638E+00 -0.40203211654E+00  0.19303033435E+00  0.10943616581E+01  0.93800000000E+00 0.  1.
         22    1    1    2    0    0  0.30763496990E+00  0.35722244168E+00  0.33842166604E+01  0.34168947236E+01  0.00000000000E+00 0.  1.
</event>
<event>
 5    1  0.6776507E+001  0.1599676E+01  0.7818608E-02  0.3353716E+00
         11   -1    0    0    0    0  0.00000000000E+00  0.00000000000E+00  0.39999999674E+01  0.40000000000E+01  0.51100000000E-03 0. -1.
    9000002   -1    0    0    0    0 -0.00000000000E+00 -0.00000000000E+00  0.00000000000E+00  0.93800000000E+00  0.93800000000E+00 0.  1.
         11    1    1    2    0    0 -0.79600244497E-02  0.10123441290E+00  0.11215088852E+01  0.11260968915E+01  0.51100000000E-03 0. -1.
    9000002    1    1    2    0    0  0.23303439537E-01 -0.35367920142E+00  0.84280343665E-01  0.10062699460E+01  0.93800000000E+00 0.  1.
         22    1    1    2    0    0 -0.15343415088E-01  0.25244478851E+00  0.27942107385E+01  0.28056331625E+01  0.00000000000E+00 0. -1.
</event>
<event>
 5    1  0.6776507E+001  0.1599620E+01  0.7818608E-02  0.3353776E+00
         11   -1    0    0    0    0  0.00000000000E+00  0.00000000000E+00  0.39999999674E+01  0.40000000000E+01  0.51100000000E-03 0. -1.
    9000002   -1    0    0    0    0 -0.00000000000E+00 -0.00000000000E+00  0.00000000000E+00  0.93800000000E+00  0.93800000000E+00 0. -1.
         11    1    1    2    0    0  0.11512061839E-01 -0.84460108405E-02  0.12810534706E+00  0.12889958779E+00  0.51100000000E-03 0. -1.
    9000002    1    1    2    0    0 -0.25701342994E+00  0.28606337614E+00  0.99607559163E-01  0.10186529459E+01  0.93800000000E+00 0. -1.
         22    1    1    2    0    0  0.24550136810E+00 -0.27761736530E+00  0.37722870611E+01  0.37904474663E+01  0.00000000000E+00 0. -1.
</event>
<event>
 5    1  0.6776507E+001  0.1450943E+01  0.7818608E-02  0.3532942E+00
         11   -1    0    0    0    0  0.00000000000E+00  0.00000000000E+00  0.39999999674E+01  0.40000000000E+01  0.51100000000E-03 0. -1.
    9000002   -1    0    0    0    0 -0.00000000000E+00 -0.00000000000E+00  0.00000000000E+00  0.93800000000E+00  0.93800000000E+00 0.  1.
         11    1    1    2    0    0  0.78222314143E-02 -0.16957396599E+00  0.90790397492E-01  0.19250889498E+00  0.51100000000E-03 0. -1.
    9000002    1    1    2    0    0  0.24528349359E+00 -0.21418215184E+00  0.20625731832E+00  0.10141124532E+01  0.93800000000E+00 0.  1.
         22    1    1    2    0    0 -0.25310572501E+00  0.38375611783E+00  0.37029522515E+01  0.37313786518E+01  0.00000000000E+00 0. -1.
</event>
<event>
 5    1  0.6776507E+001  0.1598141E+01  0.7818608E-02  0.3355383E+00
         11   -1    0    0    0    0  0.00000000000E+00  0.00000000000E+00  0.39999999674E+01  0.40000000000E+01  0.51100000000E-03 0.  1.
    9000002   -1    0    0    0    0 -0.00000000000E+00 -0.00000000000E+00  0.00000000000E+00  0.93800000000E+00  0.93800000000E+00 0.  1.
         11    1    1    2    0    0  0.84443782401E-01  0.24855907084E-02  0.53235295919E+00  0.53901471671E+00  0.51100000000E-03 0.  1.
    9000002    1    1    2    0    0 -0.39615101637E+00  0.71528097536E-01  0.11062446474E+00  0.10267101191E+01  0.93800000000E+00 0.  1.
         22    1    1    2    0    0  0.31170723397E+00 -0.74013688244E-01  0.33570225434E+01  0.33722751642E+01  0.00000000000E+00 0.  1.
</event>
<event>
 5    1  0.6776507E+001  0.1599672E+01  0.7818608E-02  0.3353720E+00
         11   -1    0    0    0    0  0.00000000000E+00  0.00000000000E+00  0.39999999674E+01  0.40000000000E+01  0.51100000000E-03 0. -1.
    9000002   -1    0    0    0    0 -0.00000000000E+00 -0.00000000000E+00  0.00000000000E+00  0.93800000000E+00  0.93800000000E+00 0.  1.
         11    1    1    2    0    0 -0.34222853361E-01  0.11131797121E-02  0.36261134778E+00  0.36422478434E+00  0.51100000000E-03 0. -1.
    9000002    1    1    2    0    0  0.38096915229E+00 -0.22646286388E-01  0.98023207532E-01  0.10174000681E+01  0.93800000000E+00 0.  1.
         22    1    1    2    0    0 -0.34674629893E+00  0.21533106676E-01  0.35393654120E+01  0.35563751476E+01  0.00000000000E+00 0. -1.
</event>
<event>
 5    1  0.9729506E+001  0.1599645E+01  0.7818608E-02  0.3353748E+00
         11   -1    0    0    0    0  0.00000000000E+00  0.00000000000E+00  0.39999999674E+01  0.40000000000E+01  0.51100000000E-03 0.  1.
    9000002   -1    0    0    0    0 -0.00000000000E+00 -0.00000000000E+00  0.00000000000E+00  0.93800000000E+00  0.93800000000E+00 0.  1.
         11    1    1    2    0    0  0.46540061522E-01 -0.12124942220E+00  0.14462196447E+01  0.14520395730E+01  0.51100000000E-03 0.  1.
    9000002    1    1    2    0    0 -0.14329280483E+00  0.32456472471E+00  0.84471007280E-01  0.10064066969E+01  0.93800000000E+00 0.  1.
         22    1    1    2    0    0  0.96752743309E-01 -0.20331530251E+00  0.24693093154E+01  0.24795537302E+01  0.00000000000E+00 0. -1.
</event>
<event>
 5    1  0.6776507E+001  0.1586520E+01  0.7818608E-02  0.3368125E+00
         11   -1    0    0    0    0  0.00000000000E+00  0.00000000000E+00  0.39999999674E+01  0.40000000000E+01  0.51100000000E-03 0. -1.
    9000002   -1    0    0    0    0 -0.00000000000E+00 -0.00000000000E+00  0.00000000000E+00  0.93800000000E+00  0.93800000000E+00 0.  1.
         11    1    1    2    0    0 -0.31445837311E-01  0.39320201633E-01  0.10035991608E+01  0.10048614111E+01  0.51100000000E-03 0. -1.
    9000002    1    1    2    0    0 -0.12947628790E+00  0.24453716335E+00  0.61218125229E-01  0.97987457985E+00  0.93800000000E+00 0.  1.
         22    1    1    2    0    0  0.16092212521E+00 -0.28385736498E+00  0.29351826813E+01  0.29532640090E+01  0.00000000000E+00 0. -1.
</event>
<event>
 5    1  0.6776507E+001  0.1599374E+01  0.7818608E-02  0.3354043E+00
         11   -1    0    0    0    0  0.00000000000E+00  0.00000000000E+00  0.39999999674E+01  0.40000000000E+01  0.51100000000E-03 0.  1.
    9000002   -1    0    0    0    0 -0.00000000000E+00 -0.00000000000E+00  0.00000000000E+00  0.93800000000E+00  0.93800000000E+00 0. -1.
         11    1    1    2    0    0  0.25733526460E-01  0.14685440496E+00  0.14397439148E+01  0.14474429978E+01  0.51100000000E-03 0.  1.
    9000002    1    1    2    0    0 -0.22957085182E-01 -0.42429006895E+00  0.12244475141E+00  0.10370081039E+01  0.93800000000E+00 0. -1.
         22    1    1    2    0    0 -0.27764412782E-02  0.27743566399E+00  0.24378113012E+01  0.24535488983E+01  0.00000000000E+00 0.  1.
</event>
<event>
 5    1  0.6776507E+001  0.1599304E+01  0.7818608E-02  0.3354119E+00
         11   -1    0    0    0    0  0.00000000000E+00  0.00000000000E+00  0.39999999674E+01  0.40000000000E+01  0.51100000000E-03 0.  1.
    9000002   -1    0    0    0    0 -0.00000000000E+00 -0.00000000000E+00  0.00000000000E+00  0.93800000000E+00  0.93800000000E+00 0.  1.
         11    1    1    2    0    0 -0.14202815759E+00  0.35358217159E-01  0.93331157365E+00  0.94471845314E+00  0.51100000000E-03 0.  1.
    9000002    1    1    2    0    0  0.49862165405E+00 -0.15626065964E+00  0.18798378833E+00  0.10900563528E+01  0.93800000000E+00 0.  1.
         22    1    1    2    0    0 -0.35659349646E+00  0.12090244248E+00  0.28787046054E+01  0.29032251940E+01  0.00000000000E+00 0.  1.
</event>
<event>
 5    1  0.6776507E+001  0.1538216E+01  0.7818608E-02  0.3423279E+00
         11   -1    0    0    0    0  0.00000000000E+00  0.00000000000E+00  0.39999999674E+01  0.40000000000E+01  0.51100000000E-03 0.  1.
    9000002   -1    0    0    0    0 -0.00000000000E+00 -0.00000000000E+00  0.00000000000E+00  0.93800000000E+00  0.93800000000E+00 0.  1.
         11    1    1    2    0    0  0.19924184798E+00 -0.10817727260E+00  0.83924722700E+00  0.86933066519E+00  0.51100000000E-03 0.  1.
    9000002    1    1    2    0    0  0.10911716980E+00  0.26167715226E-01  0.54699737748E-01  0.94627024014E+00  0.93800000000E+00 0.  1.
         22    1    1    2    0    0 -0.30835901778E+00  0.82009557375E-01  0.31060530026E+01  0.31223990947E+01  0.00000000000E+00 0.  1.
</event>
<event>
 5    1  0.6776507E+001  0.1598982E+01  0.7818608E-02  0.3354469E+00
         11   -1    0    0    0    0  0.00000000000E+00  0.00000000000E+00  0.39999999674E+01  0.40000000000E+01  0.51100000000E-03 0. -1.
    9000002   -1    0    0    0    0 -0.00000000000E+00 -0.00000000000E+00  0.00000000000E+00  0.93800000000E+00  0.93800000000E+00 0. -1.
         11    1    1    2    0    0  0.37017099299E-01  0.69154853517E-02  0.18856744734E+00  0.19229153100E+00  0.51100000000E-03 0. -1.
    9000002    1    1    2    0    0 -0.47190261527E+00 -0.17827886238E+00  0.17496240373E+00  0.10793198200E+01  0.93800000000E+00 0. -1.
         22    1    1    2    0    0  0.43488551598E+00  0.17136337703E+00  0.36364701163E+01  0.36663886490E+01  0.00000000000E+00 0. -1.
</event>
<event>
 5    1  0.6776507E+001  0.1598573E+01  0.7818608E-02  0.3354913E+00
         11   -1    0    0    0    0  0.00000000000E+00  0.00000000000E+00  0.39999999674E+01  0.40000000000E+01  0.51100000000E-03 0. -1.
    9000002   -1    0    0    0    0 -0.00000000000E+00 -0.00000000000E+00  0.00000000000E+00  0.93800000000E+00  0.93800000000E+00 0.  1.
         11    1    1    2    0    0 -0.13201290565E+00  0.25737320676E-02  0.12366977262E+01  0.12437264805E+01  0.51100000000E-03 0. -1.
    9000002    1    1    2    0    0  0.44595324697E+00 -0.11926943850E+00  0.14594891244E+00  0.10555778429E+01  0.93800000000E+00 0.  1.
         22    1    1    2    0    0 -0.31394034132E+00  0.11669570643E+00  0.26173533288E+01  0.26386956765E+01  0.00000000000E+00 0. -1.
</event>
<event>
 5    1  0.6776507E+001  0.1561858E+01  0.7818608E-02  0.3395831E+00
         11   -1    0    0    0    0  0.00000000000E+00  0.00000000000E+00  0.39999999674E+01  0.40000000000E+01  0.51100000000E-03 0.  1.
    9000002   -1    0    0    0    0 -0.00000000000E+00 -0.00000000000E+00  0.00000000000E+00  0.93800000000E+00  0.93800000000E+00 0. -1.
         11    1    1    2    0    0 -0.14182593424E+00 -0.35086859667E-01  0.26966592873E+00  0.30670125135E+00  0.51100000000E-03 0.  1.
    9000002    1    1    2    0    0  0.25041622155E+00  0.39258034845E+00  0.18147759314E+00  0.10628291165E+01  0.93800000000E+00 0. -1.
         22    1    1    2    0    0 -0.10859028731E+00 -0.35749348878E+00  0.35488564455E+01  0.35684696322E+01  0.00000000000E+00 0.  1.
</event>
<event>
 5    1  0.6776507E+001  0.1599671E+01  0.7818608E-02  0.3353720E+00
         11   -1    0    0    0    0  0.00000000000E+00  0.00000000000E+00  0.39999999674E+01  0.40000000000E+01  0.51100000000E-03 0.  1.
    9000002   -1    0    0    0    0 -0.00000000000E+00 -0.00000000000E+00  0.00000000000E+00  0.93800000000E+00  0.93800000000E+00 0.  1.
         11    1    1    2    0    0  0.25520777173E+00  0.61232247101E-01  0.13181847121E+01  0.13440578824E+01  0.51100000000E-03 0.  1.
    9000002    1    1    2    0    0 -0.70808538856E+00 -0.16574141318E+00  0.38083296398E+00  0.12464882190E+01  0.93800000000E+00 0.  1.
         22    1    1    2    0    0  0.45287761683E+00  0.10450916608E+00  0.23009822913E+01  0.23474538987E+01  0.00000000000E+00 0. -1.
</event>
<event>
 5    1  0.6776507E+001  0.1599526E+01  0.7818608E-02  0.3353878E+00
         11   -1    0    0    0    0  0.00000000000E+00  0.00000000000E+00  0.39999999674E+01  0.40000000000E+01  0.51100000000E-03 0. -1.
    9000002   -1    0    0    0    0 -0.00000000000E+00 -0.00000000000E+00  0.00000000000E+00  0.93800000000E+00  0.93800000000E+00 0.  1.
         11    1    1    2    0    0 -0.12511085888E+00  0.64406995625E-01  0.12351103229E+01  0.12431004621E+01  0.51100000000E-03 0. -1.
    9000002    1    1    2    0    0  0.38678647484E+00 -0.15957756978E+00  0.11850131326E+00  0.10339029641E+01  0.93800000000E+00 0.  1.
         22    1    1    2    0    0 -0.26167561596E+00  0.95170574152E-01  0.26463883312E+01  0.26609965738E+01  0.00000000000E+00 0. -1.
</event>
<event>
 5    1  0.6776507E+001  0.1599602E+01  0.7818608E-02  0.3353796E+00
         11   -1    0    0    0    0  0.00000000000E+00  0.00000000000E+00  0.39999999674E+01  0.40000000000E+01  0.51100000000E-03 0.  1.
    9000002   -1    0    0    0    0 -0.00000000000E+00 -0.00000000000E+00  0.00000000000E+00  0.93800000000E+00  0.93800000000E+00 0. -1.
         11    1    1    2    0    0  0.87473664584E-01  0.10065663094E+00  0.11141208896E+01  0.11220735346E+01  0.51100000000E-03 0.  1.
    9000002    1    1    2    0    0 -0.27492364554E+00 -0.36556236493E+00  0.14232025462E+00  0.10532416192E+01  0.93800000000E+00 0. -1.
         22    1    1    2    0    0  0.18744998096E+00  0.26490573399E+00  0.27435588231E+01  0.27626848462E+01  0.00000000000E+00 0.  1.
</event>
<event>
 5    1  0.6776507E+001  0.1461100E+01  0.7818608E-02  0.3519449E+00
         11   -1    0    0    0    0  0.00000000000E+00  0.00000000000E+00  0.39999999674E+01  0.40000000000E+01  0.51100000000E-03 0.  1.
    9000002   -1    0    0    0    0 -0.00000000000E+00 -0.00000000000E+00  0.00000000000E+00  0.93800000000E+00  0.93800000000E+00 0.  1.
         11    1    1    2    0    0 -0.67552219242E-01  0.24543915132E+00  0.30270117530E+00  0.39551478098E+00  0.51100000000E-03 0.  1.
    9000002    1    1    2    0    0  0.18938965497E+00  0.53309522728E-01  0.13765235791E+00  0.96824713697E+00  0.93800000000E+00 0.  1.
         22    1    1    2    0    0 -0.12183743572E+00 -0.29874867404E+00  0.35596464342E+01  0.35742380820E+01  0.00000000000E+00 0.  1.
</event>
<event>
 5    1  0.6776507E+001  0.1591787E+01  0.7818608E-02  0.3362326E+00
         11   -1    0    0    0    0  0.00000000000E+00  0.00000000000E+00  0.39999999674E+01  0.40000000000E+01  0.51100000000E-03 0. -1.
    9000002   -1    0    0    0    0 -0.00000000000E+00 -0.00000000000E+00  0.00000000000E+00  0.93800000000E+00  0.93800000000E+00 0.  1.
         11    1    1    2    0    0 -0.29261590246E-01  0.62618045709E-02  0.23577661087E+00  0.23766851330E+00  0.51100000000E-03 0. -1.
    9000002    1    1    2    0    0 -0.31480986917E+00  0.16438075950E+00  0.91017710204E-01  0.10071020362E+01  0.93800000000E+00 0.  1.
         22    1    1    2    0    0  0.34407145942E+00 -0.17064256407E+00  0.36732056463E+01  0.36932294505E+01  0.00000000000E+00 0. -1.
</event>
<event>
 5    1  0.6776507E+001  0.1583099E+01  0.7818608E-02  0.3371914E+00
         11   -1    0    0    0    0  0.00000000000E+00  0.00000000000E+00  0.39999999674E+01  0.40000000000E+01  0.51100000000E-03 0. -1.
    9000002   -1    0    0    0    0 -0.00000000000E+00 -0.00000000000E+00  0.00000000000E+00  0.93800000000E+00  0.93800000000E+00 0.  1.
         11    1    1    2    0    0  0.26702257536E-01 -0.80225081211E-01  0.13561195925E+01  0.13587529887E+01  0.51100000000E-03 0. -1.
    9000002    1    1    2    0    0  0.22156401851E+00 -0.73205300771E-01  0.48813567184E-01  0.96782043515E+00  0.93800000000E+00 0.  1.
         22    1    1    2    0    0 -0.24826627604E+00  0.15343038198E+00  0.25950668077E+01  0.26114265761E+01  0.00000000000E+00 0. -1.
</event>
<event>
 5    1  0.6776507E+001  0.1599673E+01  0.7818608E-02  0.3353719E+00
         11   -1    0    0    0    0  0.00000000000E+00  0.00000000000E+00  0.39999999674E+01  0.40000000000E+01  0.51100000000E-03 0. -1.
    9000002   -1    0    0    0    0 -0.00000000000E+00 -0.00000000000E+00  0.00000000000E+00  0.93800000000E+00  0.93800000000E+00 0.  1.
         11    1    1    2    0    0  0.13534334899E+00 -0.12969041692E-01  0.14435110890E+01  0.14499001839E+01  0.51100000000E-03 0. -1.
    9000002    1    1    2    0    0 -0.37183285775E+00  0.38637799135E-01  0.93965269826E-01  0.10141134185E+01  0.93800000000E+00 0.  1.
         22    1    1    2    0    0  0.23648950876E+00 -0.25668757443E-01  0.24625236085E+01  0.24739863976E+01  0.00000000000E+00 0. -1.
</event>
<event>
 5    1  0.6776507E+001  0.1599067E+01  0.7818608E-02  0.3354377E+00
         11   -1    0    0    0    0  0.00000000000E+00  0.00000000000E+00  0.39999999674E+01  0.40000000000E+01  0.51100000000E-03 0.  1.
    9000002   -1    0    0    0    0 -0.00000000000E+00 -0.00000000000E+00  0.00000000000E+00  0.93800000000E+00  0.93800000000E+00 0.  1.
         11    1    1    2    0    0  0.62318554428E-01 -0.87763209161E-01  0.57187814825E+00  0.58191997790E+00  0.51100000000E-03 0.  1.
    9000002    1    1    2    0    0 -0.29749603445E+00  0.65353472495E+00  0.37102738880E+00  0.12381909588E+01  0.93800000000E+00 0.  1.
         22    1    1    2    0    0  0.23517748002E+00 -0.56577151579E+00  0.30570944303E+01  0.31178890633E+01  0.00000000000E+00 0.  1.
</event>
<event>
 5    1  0.6776507E+001  0.1570480E+01  0.7818608E-02  0.3386040E+00
         11   -1    0    0    0    0  0.00000000000E+00  0.00000000000E+00  0.39999999674E+01  0.40000000000E+01  0.51100000000E-03 0.  1.
    9000002   -1    0    0    0    0 -0.00000000000E+00 -0.00000000000E+00  0.00000000000E+00  0.93800000000E+00  0.93800000000E+00 0. -1.
         11    1    1    2    0    0 -0.11948345661E+00 -0.26354134127E+00  0.14671606110E+01  0.14954233028E+01  0.51100000000E-03 0.  1.
    9000002    1    1    2    0    0 -0.15841191710E+00  0.45932251303E+00  0.18768409503E+00  0.10729123105E+01  0.93800000000E+00 0. -1.
         22    1    1    2    0    0  0.27789537371E+00 -0.19578117176E+00  0.23451552613E+01  0.23696643867E+01  0.00000000000E+00 0.  1.
</event>
<event>
 5    1  0.6776507E+001  0.1599599E+01  0.7818608E-02  0.3353799E+00
         11   -1    0    0    0    0  0.00000000000E+00  0.00000000000E+00  0.39999999674E+01  0.40000000000E+01  0.51100000000E-03 0.  1.
    9000002   -1    0    0    0    0 -0.00000000000E+00 -0.00000000000E+00  0.00000000000E+00  0.93800000000E+00  0.93800000000E+00 0. -1.
         11    1    1    2    0    0 -0.97631715993E-02 -0.33556995688E-01  0.44743878800E+00  0.44880187345E+00  0.51100000000E-03 0.  1.
    9000002    1    1    2    0    0  0.80566332909E-01  0.35256696181E+00  0.87877438347E-01  0.10091386628E+01  0.93800000000E+00 0. -1.
         22    1    1    2    0    0 -0.70803161310E-01 -0.31900996612E+00  0.34646837410E+01  0.34800594638E+01  0.00000000000E+00 0.  1.
</event>
<event>
 5    1  0.6776507E+001  0.1599671E+01  0.7818608E-02  0.3353721E+00
         11   -1    0    0    0    0  0.00000000000E+00  0.00000000000E+00  0.39999999674E+01  0.40000000000E+01  0.51100000000E-03 0. -1.
    9000002   -1    0    0    0    0 -0.00000000000E+00 -0.00000000000E+00  0.00000000000E+00  0.93800000000E+00  0.93800000000E+00 0. -1.
         11    1    1    2    0    0  0.32118205022E-01  0.10375700843E+00  0.88742884912E+00  0.89405107196E+00  0.51100000000E-03 0. -1.
    9000002    1    1    2    0    0 -0.12945092658E+00 -0.44647844853E+00  0.14710594634E+00  0.10571587898E+01  0.93800000000E+00 0. -1.
         22    1    1    2    0    0  0.97332721553E-01  0.34272144010E+00  0.29654651719E+01  0.29867901382E+01  0.00000000000E+00 0. -1.
</event>
<event>
 5    1  0.6776507E+001  0.1599612E+01  0.7818608E-02  0.3353785E+00
         11   -1    0    0    0    0  0.00000000000E+00  0.00000000000E+00  0.39999999674E+01  0.40000000000E+01  0.51100000000E-03 0.  1.
    9000002   -1    0    0    0    0 -0.00000000000E+00 -0.00000000000E+00  0.00000000000E+00  0.93800000000E+00  0.93800000000E+00 0. -1.
         11    1    1    2    0    0  0.98782878325E-01  0.13674051640E+00  0.14296557607E+01  0.14395735067E+01  0.51100000000E-03 0.  1.
    9000002    1    1    2    0    0 -0.28719123100E+00 -0.35431356989E+00  0.14146629306E+00  0.10525557567E+01  0.93800000000E+00 0. -1.
         22    1    1    2    0    0  0.18840835267E+00  0.21757305348E+00  0.24288779136E+01  0.24458707366E+01  0.00000000000E+00 0. -1.
</event>
<event>
 5    1  0.6776507E+001  0.1599622E+01  0.7818608E-02  0.3353774E+00
         11   -1    0    0    0    0  0.00000000000E+00  0.00000000000E+00  0.39999999674E+01  0.40000000000E+01  0.51100000000E-03 0.  1.
    9000002   -1    0    0    0    0 -0.00000000000E+00 -0.00000000000E+00  0.00000000000E+00  0.93800000000E+00  0.93800000000E+00 0.  1.
         11    1    1    2    0    0 -0.81142920737E-01  0.12617378621E+00  0.12607219886E+01  0.12696157653E+01  0.51100000000E-03 0.  1.
    9000002    1    1    2    0    0  0.24363417025E+00 -0.41017596974E+00  0.15527351193E+00  0.10637461157E+01  0.93800000000E+00 0.  1.
         22    1    1    2    0    0 -0.16249124951E+00  0.28400218353E+00  0.25840044668E+01  0.26046381190E+01  0.00000000000E+00 0.  1.
</event>
<event>
 5    1  0.6776507E+001  0.1553960E+01  0.7818608E-02  0.3404902E+00
         11   -1    0    0    0    0  0.00000000000E+00  0.00000000000E+00  0.39999999674E+01  0.40000000000E+01  0.51100000000E-03 0. -1.
    9000002   -1    0    0    0    0 -0.00000000000E+00 -0.00000000000E+00  0.00000000000E+00  0.93800000000E+00  0.93800000000E+00 0.  1.
         11    1    1    2    0    0  0.21161854527E+00  0.41682276059E-01  0.11176681130E+01  0.11382891077E+01  0.51100000000E-03 0. -1.
    9000002    1    1    2    0    0  0.48793056384E-01  0.44259217539E-01  0.36835942225E-01  0.94103162929E+00  0.93800000000E+00 0.  1.
         22    1    1    2    0    0 -0.26041160166E+00 -0.85941493598E-01  0.28454959121E+01  0.28586792630E+01  0.00000000000E+00 0. -1.
</event>
<event>
 5    1  0.6776507E+001  0.1596870E+01  0.7818608E-02  0.3356767E+00
         11   -1    0    0    0    0  0.00000000000E+00  0.00000000000E+00  0.39999999674E+01  0.40000000000E+01  0.51100000000E-03 0.  1.
    9000002   -1    0    0    0    0 -0.00000000000E+00 -0.00000000000E+00  0.00000000000E+00  0.93800000000E+00  0.93800000000E+00 0.  1.
         11    1    1    2    0    0 -0.94594844227E-01  0.13314365859E-01  0.12771121461E+01  0.12806799568E+01  0.51100000000E-03 0.  1.
    9000002    1    1    2    0    0  0.39002061628E+00  0.11091227157E+00  0.11332967362E+00  0.10281562274E+01  0.93800000000E+00 0.  1.
         22    1    1    2    0    0 -0.29542577205E+00 -0.12422663742E+00  0.26095581476E+01  0.26291638158E+01  0.00000000000E+00 0.  1.
</event>
<event>
 5    1  0.6776507E+001  0.1599286E+01  0.7818608E-02  0.3354139E+00
         11   -1    0    0    0    0  0.00000000000E+00  0.00000000000E+00  0.39999999674E+01  0.40000000000E+01  0.51100000000E-03 0. -1.
    9000002   -1    0    0    0    0 -0.00000000000E+00 -0.00000000000E+00  0.00000000000E+00  0.93800000000E+00  0.93800000000E+00 0.  1.
         11    1    1    2    0    0  0.53644905969E-01 -0.36125012298E-01  0.34263014821E+00  0.34868104628E+00  0.51100000000E-03 0. -1.
    9000002    1    1    2    0    0 -0.44889200605E+00  0.34423762582E+00  0.22207343043E+00  0.11176601382E+01  0.93800000000E+00 0.  1.
         22    1    1    2    0    0  0.39524710009E+00 -0.30811261352E+00  0.34352963887E+01  0.34716588155E+01  0.00000000000E+00 0. -1.
</event>
<event>
 5    1  0.6776507E+001  0.1599677E+01  0.7818608E-02  0.3353714E+00
         11   -1    0    0    0    0  0.00000000000E+00  0.00000000000E+00  0.39999999674E+01  0.40000000000E+01  0.51100000000E-03 0. -1.
    9000002   -1    0    0    0    0 -0.00000000000E+00 -0.00000000000E+00  0.00000000000E+00  0.93800000000E+00  0.93800000000E+00 0. -1.
         11    1    1    2    0    0  0.77625071768E-01 -0.42570647768E-01  0.78736300171E+00  0.79232485093E+00  0.51100000000E-03 0.  1.
    9000002    1    1    2    0    0 -0.38056262304E+00  0.21143714569E+00  0.12845617547E+00  0.10420549725E+01  0.93800000000E+00 0. -1.
         22    1    1    2    0    0  0.30293755127E+00 -0.16886649792E+00  0.30841807902E+01  0.31036201766E+01  0.00000000000E+00 0. -1.
</event>
<event>
 5    1  0.7878434E+001  0.1597701E+01  0.7818608E-02  0.3355862E+00
         11   -1    0    0    0    0  0.00000000000E+00  0.00000000000E+00  0.39999999674E+01  0.40000000000E+01  0.51100000000E-03 0. -1.
    9000002   -1    0    0    0    0 -0.00000000000E+00 -0.00000000000E+00  0.00000000000E+00  0.93800000000E+00  0.93800000000E+00 0.  1.
         11    1    1    2    0    0 -0.59994718902E-01 -0.61198006633E-01  0.11554867351E+01  0.11586606140E+01  0.51100000000E-03 0. -1.
    9000002    1    1    2    0    0  0.82928606207E-01  0.32118728976E+00  0.75213087737E-01  0.99776722606E+00  0.93800000000E+00 0.  1.
         22    1    1    2    0    0 -0.22933887305E-01 -0.25998928313E+00  0.27693001445E+01  0.27815721599E+01  0.00000000000E+00 0. -1.
</event>
<event>
 5    1  0.6776507E+001  0.1599604E+01  0.7818608E-02  0.3353793E+00
         11   -1    0    0    0    0  0.00000000000E+00  0.00000000000E+00  0.39999999674E+01  0.40000000000E+01  0.51100000000E-03 0. -1.
    9000002   -1    0    0    0    0 -0.00000000000E+00 -0.00000000000E+00  0.00000000000E+00  0.93800000000E+00  0.93800000000E+00 0.  1.
         11    1    1    2    0    0  0.84315946001E-01  0.10492680150E-01  0.46610248225E+00  0.47378376942E+00  0.51100000000E-03 0. -1.
    9000002    1    1    2    0    0 -0.62107051726E+00 -0.69071065654E-01  0.27402201321E+00  0.11599273526E+01  0.93800000000E+00 0.  1.
         22    1    1    2    0    0  0.53675457126E+00  0.58578385504E-01  0.32598754719E+01  0.33042888780E+01  0.00000000000E+00 0. -1.
</event>
<event>
 5    1  0.6776507E+001  0.1599233E+01  0.7818608E-02  0.3354197E+00
         11   -1    0    0    0    0  0.00000000000E+00  0.00000000000E+00  0.39999999674E+01  0.40000000000E+01  0.51100000000E-03 0.  1.
    9000002   -1    0    0    0    0 -0.00000000000E+00 -0.00000000000E+00  0.00000000000E+00  0.93800000000E+00  0.93800000000E+00 0. -1.
         11    1    1    2    0    0 -0.41963817898E-01 -0.55077286840E-01  0.32234840767E+00  0.32970172367E+00  0.51100000000E-03 0.  1.
    9000002    1    1    2    0    0  0.42420428292E+00  0.47793605197E+00  0.28788174613E+00  0.11709363959E+01  0.93800000000E+00 0. -1.
         22    1    1    2    0    0 -0.38224046503E+00 -0.42285876513E+00  0.33897698136E+01  0.34373618805E+01  0.00000000000E+00 0.  1.
</event>
<event>
 5    1  0.6776507E+001  0.1599608E+01  0.7818608E-02  0.3353789E+00
         11   -1    0    0    0    0  0.00000000000E+00  0.00000000000E+00  0.39999999674E+01  0.40000000000E+01  0.51100000000E-03 0. -1.
    9000002   -1    0    0    0    0 -0.00000000000E+00 -0.00000000000E+00  0.00000000000E+00  0.93800000000E+00  0.93800000000E+00 0.  1.
         11    1    1    2    0    0 -0.28614329873E-01 -0.70422661256E-01  0.83617501887E+00  0.83962316213E+00  0.51100000000E-03 0. -1.
    9000002    1    1    2    0    0  0.10448637439E+00  0.35408221629E+00  0.91640975025E-01  0.10121925146E+01  0.93800000000E+00 0.  1.
         22    1    1    2    0    0 -0.75872044512E-01 -0.28365955503E+00  0.30721839735E+01  0.30861843233E+01  0.00000000000E+00 0. -1.
</event>
<event>
 5    1  0.6776507E+001  0.1589103E+01  0.7818608E-02  0.3365276E+00
         11   -1    0    0    0    0  0.00000000000E+00  0.00000000000E+00  0.39999999674E+01  0.40000000000E+01  0.51100000000E-03 0. -1.
    9000002   -1    0    0    0    0 -0.00000000000E+00 -0.00000000000E+00  0.00000000000E+00  0.93800000000E+00  0.93800000000E+00 0. -1.
         11    1    1    2    0    0  0.85272932484E-01 -0.14608441741E-01  0.99145035981E+00  0.99521804478E+00  0.51100000000E-03 0. -1.
    9000002    1    1    2    0    0 -0.31904166124E+00  0.47096418660E+00  0.23456981147E+00  0.11218118573E+01  0.93800000000E+00 0. -1.
         22    1    1    2    0    0  0.23376872875E+00 -0.45635574485E+00  0.27739797961E+01  0.28209700979E+01  0.00000000000E+00 0. -1.
</event>
<event>
 5    1  0.6776507E+001  0.1599674E+01  0.7818608E-02  0.3353717E+00
         11   -1    0    0    0    0  0.00000000000E+00  0.00000000000E+00  0.39999999674E+01  0.40000000000E+01  0.51100000000E-03 0. -1.
    9000002   -1    0    0    0    0 -0.00000000000E+00 -0.00000000000E+00  0.00000000000E+00  0.93800000000E+00  0.93800000000E+00 0. -1.
         11    1    1    2    0    0 -0.11039068196E+00  0.15832670325E+00  0.12557855857E+01  0.12705318359E+01  0.51100000000E-03 0. -1.
    9000002    1    1    2    0    0  0.32927510792E+00 -0.48041155006E+00  0.23580520214E+00  0.11290108270E+01  0.93800000000E+00 0. -1.
         22    1    1    2    0    0 -0.21888442596E+00  0.32208484680E+00  0.25084091795E+01  0.25384573371E+01  0.00000000000E+00 0. -1.
</event>
<event>
 5    1  0.6776507E+001  0.1599187E+01  0.7818608E-02  0.3354246E+00
         11   -1    0    0    0    0  0.00000000000E+00  0.00000000000E+00  0.39999999674E+01  0.40000000000E+01  0.51100000000E-03 0.  1.
    9000002   -1    0    0    0    0 -0.00000000000E+00 -0.00000000000E+00  0.00000000000E+00  0.93800000000E+00  0.93800000000E+00 0. -1.
         11    1    1    2    0    0  0.84536868553E-01  0.13299838564E+00  0.12949799048E+01  0.13045337357E+01  0.51100000000E-03 0.  1.
    9000002    1    1    2    0    0 -0.18301926241E+00 -0.37168035306E+00  0.11640510648E+00  0.10320060485E+01  0.93800000000E+00 0. -1.
         22    1    1    2    0    0  0.98482393854E-01  0.23868196742E+00  0.25886149561E+01  0.26014602158E+01  0.00000000000E+00 0.  1.
</event>
<event>
 5    1  0.6776507E+001  0.1597651E+01  0.7818608E-02  0.3355917E+00
         11   -1    0    0    0    0  0.00000000000E+00  0.00000000000E+00  0.39999999674E+01  0.40000000000E+01  0.51100000000E-03 0.  1.
    9000002   -1    0    0    0    0 -0.00000000000E+00 -0.00000000000E+00  0.00000000000E+00  0.93800000000E+00  0.93800000000E+00 0. -1.
         11    1    1    2    0    0  0.14291307584E+00  0.96701875425E-01  0.93022495231E+00  0.94609414065E+00  0.51100000000E-03 0.  1.
    9000002    1    1    2    0    0 -0.39113575028E+00 -0.38480819243E+00  0.20980607259E+00  0.11067642514E+01  0.93800000000E+00 0. -1.
         22    1    1    2    0    0  0.24822267444E+00  0.28810631701E+00  0.28599689425E+01  0.28851416079E+01  0.00000000000E+00 0.  1.
</event>
<event>
 5    1  0.6776507E+001  0.1466625E+01  0.7818608E-02  0.3512194E+00
         11   -1    0    0    0    0  0.00000000000E+00  0.00000000000E+00  0.39999999674E+01  0.40000000000E+01  0.51100000000E-03 0. -1.
    9000002   -1    0    0    0    0 -0.00000000000E+00 -0.00000000000E+00  0.00000000000E+00  0.93800000000E+00  0.93800000000E+00 0. -1.
         11    1    1    2    0    0  0.55629074042E-01 -0.27927086059E+00  0.30352765506E+00  0.41619239056E+00  0.51100000000E-03 0. -1.
    9000002    1    1    2    0    0  0.13764777010E+00  0.12228191753E-02  0.15075595207E+00  0.95995820794E+00  0.93800000000E+00 0. -1.
         22    1    1    2    0    0 -0.19327684414E+00  0.27804804141E+00  0.35457163602E+01  0.35618494015E+01  0.00000000000E+00 0. -1.
</event>
<event>
 5    1  0.6776507E+001  0.1596238E+01  0.7818608E-02  0.3357457E+00
         11   -1    0    0    0    0  0.00000000000E+00  0.00000000000E+00  0.39999999674E+01  0.40000000000E+01  0.51100000000E-03 0.  1.
    9000002   -1    0    0    0    0 -0.00000000000E+00 -0.00000000000E+00  0.00000000000E+00  0.93800000000E+00  0.93800000000E+00 0.  1.
         11    1    1    2    0    0 -0.11671498100E+00  0.39398912081E-01  0.63381583967E+00  0.64567595650E+00  0.51100000000E-03 0.  1.
    9000002    1    1    2    0    0  0.38884803164E+00 -0.24225293979E+00  0.14572203147E+00  0.10540247573E+01  0.93800000000E+00 0.  1.
         22    1    1    2    0    0 -0.27213305065E+00  0.20285402771E+00  0.32204620962E+01  0.32382992862E+01  0.00000000000E+00 0.  1.
</event>
<event>
 5    1  0.6776507E+001  0.1592031E+01  0.7818608E-02  0.3362059E+00
         11   -1    0    0    0    0  0.00000000000E+00  0.00000000000E+00  0.39999999674E+01  0.40000000000E+01  0.51100000000E-03 0.  1.
    9000002   -1    0    0    0    0 -0.00000000000E+00 -0.00000000000E+00  0.00000000000E+00  0.93800000000E+00  0.93800000000E+00 0. -1.
         11    1    1    2    0    0  0.20971667786E+00  0.77250382385E-01  0.77962867044E+00  0.81103010514E+00  0.51100000000E-03 0.  1.
    9000002    1    1    2    0    0 -0.87250020614E+00  0.46556802687E-01  0.58927513567E+00  0.14108555316E+01  0.93800000000E+00 0. -1.
         22    1    1    2    0    0  0.66278352828E+00 -0.12380718507E+00  0.26310961613E+01  0.27161143632E+01  0.00000000000E+00 0.  1.
</event>
<event>
 5    1  0.6776507E+001  0.1599676E+01  0.7818608E-02  0.3353715E+00
         11   -1    0    0    0    0  0.00000000000E+00  0.00000000000E+00  0.39999999674E+01  0.40000000000E+01  0.51100000000E-03 0.  1.
    9000002   -1    0    0    0    0 -0.00000000000E+00 -0.00000000000E+00  0.00000000000E+00  0.93800000000E+00  0.93800000000E+00 0. -1.
         11    1    1    2    0    0  0.85433868070E-01 -0.85058507219E-01  0.10784532835E+01  0.10851707890E+01  0.51100000000E-03 0.  1.
    9000002    1    1    2    0    0 -0.30959673410E+00  0.30565020549E+00  0.12827376706E+00  0.10419070713E+01  0.93800000000E+00 0. -1.
         22    1    1    2    0    0  0.22416286603E+00 -0.22059169827E+00  0.27932729168E+01  0.28109221398E+01  0.00000000000E+00 0.  1.
</event>
<event>
 5    1  0.6776507E+001  0.1599165E+01  0.7818608E-02  0.3354270E+00
         11   -1    0    0    0    0  0.00000000000E+00  0.00000000000E+00  0.39999999674E+01  0.40000000000E+01  0.51100000000E-03 0. -1.
    9000002   -1    0    0    0    0 -0.00000000000E+00 -0.00000000000E+00  0.00000000000E+00  0.93800000000E+00  0.93800000000E+00 0.  1.
         11    1    1    2    0    0 -0.95151287876E-02 -0.42292452804E-01  0.33369186770E+00  0.33649623018E+00  0.51100000000E-03 0. -1.
    9000002    1    1    2    0    0  0.23765116508E+00  0.36695645073E+00  0.13001315931E+00  0.10430160759E+01  0.93800000000E+00 0.  1.
         22    1    1    2    0    0 -0.22813603629E+00 -0.32466399793E+00  0.35362949403E+01  0.35584876939E+01  0.00000000000E+00 0. -1.
</event>
<event>
 5    1  0.6776507E+001  0.1523296E+01  0.7818608E-02  0.3441069E+00
         11   -1    0    0    0    0  0.00000000000E+00  0.00000000000E+00  0.39999999674E+01  0.40000000000E+01  0.51100000000E-03 0. -1.
    9000002   -1    0    0    0    0 -0.00000000000E+00 -0.00000000000E+00  0.00000000000E+00  0.93800000000E+00  0.93800000000E+00 0.  1.
         11    1    1    2    0    0 -0.18673358898E+00 -0.68194737899E-01  0.52939972780E+00  0.56549472893E+00  0.51100000000E-03 0. -1.
    9000002    1    1    2    0    0 -0.30581267181E+00  0.27073020142E+00  0.17961979179E+00  0.10387124250E+01  0.93800000000E+00 0.  1.
         22    1    1    2    0    0  0.49254626080E+00 -0.20253546353E+00  0.32909804478E+01  0.33337928461E+01  0.00000000000E+00 0. -1.
</event>
<event>
 5    1  0.6776507E+001  0.1599339E+01  0.7818608E-02  0.3354081E+00
         11   -1    0    0    0    0  0.00000000000E+00  0.00000000000E+00  0.39999999674E+01  0.40000000000E+01  0.51100000000E-03 0.  1.
    9000002   -1    0    0    0    0 -0.00000000000E+00 -0.00000000000E+00  0.00000000000E+00  0.93800000000E+00  0.93800000000E+00 0.  1.
         11    1    1    2    0    0 -0.70183344852E-01 -0.12283494749E+00  0.12284806100E+01  0.12365997721E+01  0.51100000000E-03 0.  1.
    9000002    1    1    2    0    0  0.21222291502E+00  0.32512326892E+00  0.10180793944E+00  0.10202708279E+01  0.93800000000E+00 0.  1.
         22    1    1    2    0    0 -0.14203957017E+00 -0.20228832143E+00  0.26697114179E+01  0.26811294000E+01  0.00000000000E+00 0.  1.
</event>
<event>
 5    1  0.6776507E+001  0.1554669E+01  0.7818608E-02  0.3404084E+00
         11   -1    0    0    0    0  0.00000000000E+00  0.00000000000E+00  0.39999999674E+01  0.40000000000E+01  0.51100000000E-03 0. -1.
    9000002   -1    0    0    0    0 -0.00000000000E+00 -0.00000000000E+00  0.00000000000E+00  0.93800000000E+00  0.93800000000E+00 0. -1.
         11    1    1    2    0    0  0.16053601090E+00 -0.89888935293E-01  0.82444156691E+00  0.84472243361E+00  0.51100000000E-03 0. -1.
    9000002    1    1    2    0    0 -0.15024536907E-02 -0.20476368093E+00  0.62348029780E-01  0.96211314263E+00  0.93800000000E+00 0. -1.
         22    1    1    2    0    0 -0.15903355721E+00  0.29465261622E+00  0.31132103707E+01  0.31311644238E+01  0.00000000000E+00 0. -1.
</event>
<event>
 5    1  0.6776507E+001  0.1529293E+01  0.7818608E-02  0.3433873E+00
         11   -1    0    0    0    0  0.00000000000E+00  0.00000000000E+00  0.39999999674E+01  0.40000000000E+01  0.51100000000E-03 0. -1.
    9000002   -1    0    0    0    0 -0.00000000000E+00 -0.00000000000E+00  0.00000000000E+00  0.93800000000E+00  0.93800000000E+00 0. -1.
         11    1    1    2    0    0  0.16678973716E+00 -0.26860812679E+00  0.12693969852E+01  0.13081812219E+01  0.51100000000E-03 0. -1.
    9000002    1    1    2    0    0 -0.68256839991E-01  0.21493675408E-01  0.56399309280E-01  0.94241490670E+00  0.93800000000E+00 0. -1.
         22    1    1    2    0    0 -0.98532897170E-01  0.24711445139E+00  0.26742036729E+01  0.26874038714E+01  0.00000000000E+00 0. -1.
</event>
<event>
 5    1  0.6776507E+001  0.1597856E+01  0.7818608E-02  0.3355693E+00
         11   -1    0    0    0    0  0.00000000000E+00  0.00000000000E+00  0.39999999674E+01  0.40000000000E+01  0.51100000000E-03 0.  1.
    9000002   -1    0    0    0    0 -0.00000000000E+00 -0.00000000000E+00  0.00000000000E+00  0.93800000000E+00  0.93800000000E+00 0. -1.
         11    1    1    2    0    0 -0.83803362983E-02 -0.40612719147E-01  0.89306308134E+00  0.89402547580E+00  0.51100000000E-03 0.  1.
    9000002    1    1    2    0    0  0.20047126201E+00  0.27373828976E+00  0.78558559816E-01  0.10005682513E+01  0.93800000000E+00 0. -1.
         22    1    1    2    0    0 -0.19209092571E+00 -0.23312557061E+00  0.30283783262E+01  0.30434062729E+01  0.00000000000E+00 0.  1.
</event>
<event>
 5    1  0.6776507E+001  0.1599018E+01  0.7818608E-02  0.3354430E+00
         11   -1    0    0    0    0  0.00000000000E+00  0.00000000000E+00  0.39999999674E+01  0.40000000000E+01  0.51100000000E-03 0. -1.
    9000002   -1    0    0    0    0 -0.00000000000E+00 -0.00000000000E+00  0.00000000000E+00  0.93800000000E+00  0.93800000000E+00 0. -1.
         11    1    1    2    0    0 -0.90755502810E-01 -0.11056517486E+00  0.92772714070E+00  0.93869011281E+00  0.51100000000E-03 0. -1.
    9000002    1    1    2    0    0  0.27382400940E+00  0.50097620703E+00  0.22669348609E+00  0.11212451493E+01  0.93800000000E+00 0. -1.
         22    1    1    2    0    0 -0.18306850659E+00 -0.39041103217E+00  0.28455793406E+01  0.28780647379E+01  0.00000000000E+00 0.  1.
</event>
<event>
 5    1  0.6776507E+001  0.1599674E+01  0.7818608E-02  0.3353717E+00
         11   -1    0    0    0    0  0.00000000000E+00  0.00000000000E+00  0.39999999674E+01  0.40000000000E+01  0.51100000000E-03 0. -1.
    9000002   -1    0    0    0    0 -0.00000000000E+00 -0.00000000000E+00  0.00000000000E+00  0.93800000000E+00  0.93800000000E+00 0. -1.
         11    1    1    2    0    0  0.58608943973E-01 -0.83617245497E-01  0.10475837974E+01  0.10525487760E+01  0.51100000000E-03 0. -1.
    9000002    1    1    2    0    0 -0.21498334853E+00  0.31747600046E+00  0.98957120417E-01  0.10181578280E+01  0.93800000000E+00 0. -1.
         22    1    1    2    0    0  0.15637440456E+00 -0.23385875497E+00  0.28534590495E+01  0.28672933960E+01  0.00000000000E+00 0. -1.
</event>
<event>
 5    1  0.6776507E+001  0.1599605E+01  0.7818608E-02  0.3353792E+00
         11   -1    0    0    0    0  0.00000000000E+00  0.00000000000E+00  0.39999999674E+01  0.40000000000E+01  0.51100000000E-03 0. -1.
    9000002   -1    0    0    0    0 -0.00000000000E+00 -0.00000000000E+00  0.00000000000E+00  0.93800000000E+00  0.93800000000E+00 0. -1.
         11    1    1    2    0    0 -0.33536888495E-02  0.67623633776E-01  0.65199560696E+00  0.65550189602E+00  0.51100000000E-03 0. -1.
    9000002    1    1    2    0    0  0.40015966560E-01 -0.36431542585E+00  0.90294670942E-01  0.10111004573E+01  0.93800000000E+00 0. -1.
         22    1    1    2    0    0 -0.36662277710E-01  0.29669179207E+00  0.32577096895E+01  0.32713976467E+01  0.00000000000E+00 0. -1.
</event>
<event>
 5    1  0.6776507E+001  0.1185896E+01  0.7818608E-02  0.4026559E+00
         11   -1    0    0    0    0  0.00000000000E+00  0.00000000000E+00  0.39999999674E+01  0.40000000000E+01  0.51100000000E-03 0.  1.
    9000002   -1    0    0    0    0 -0.00000000000E+00 -0.00000000000E+00  0.00000000000E+00  0.93800000000E+00  0.93800000000E+00 0. -1.
         11    1    1    2    0    0  0.59891627953E+00  0.20768640309E+00  0.53604970139E+00  0.83017100371E+00  0.51100000000E-03 0.  1.
    9000002    1    1    2    0    0 -0.97468126174E-01 -0.25968746817E+00  0.49479151055E+00  0.10961752851E+01  0.93800000000E+00 0. -1.
         22    1    1    2    0    0 -0.50144815336E+00  0.52001065089E-01  0.29691587554E+01  0.30116537112E+01  0.00000000000E+00 0.  1.
</event>
<event>
 5    1  0.6776507E+001  0.1599666E+01  0.7818608E-02  0.3353726E+00
         11   -1    0    0    0    0  0.00000000000E+00  0.00000000000E+00  0.39999999674E+01  0.40000000000E+01  0.51100000000E-03 0.  1.
    9000002   -1    0    0    0    0 -0.00000000000E+00 -0.00000000000E+00  0.00000000000E+00  0.93800000000E+00  0.93800000000E+00 0.  1.
         11    1    1    2    0    0  0.48184878006E-01 -0.15857751537E+00  0.14093529535E+01  0.14190646988E+01  0.51100000000E-03 0.  1.
    9000002    1    1    2    0    0 -0.12156029766E+00  0.43494405156E+00  0.13856422330E+00  0.10502367723E+01  0.93800000000E+00 0.  1.
         22    1    1    2    0    0  0.73375419651E-01 -0.27636653619E+00  0.24520827906E+01  0.24686985288E+01  0.00000000000E+00 0. -1.
</event>
<event>
 5    1  0.6776507E+001  0.1599676E+01  0.7818608E-02  0.3353715E+00
         11   -1    0    0    0    0  0.00000000000E+00  0.00000000000E+00  0.39999999674E+01  0.40000000000E+01  0.51100000000E-03 0. -1.
    9000002   -1    0    0    0    0 -0.00000000000E+00 -0.00000000000E+00  0.00000000000E+00  0.93800000000E+00  0.93800000000E+00 0. -1.
         11    1    1    2    0    0 -0.49045306511E-01  0.20941194769E-01  0.46526157149E+00  0.46830819633E+00  0.51100000000E-03 0.  1.
    9000002    1    1    2    0    0  0.40473077398E+00 -0.17967437012E+00  0.13304258546E+00  0.10457696726E+01  0.93800000000E+00 0. -1.
         22    1    1    2    0    0 -0.35568546747E+00  0.15873317535E+00  0.34016958104E+01  0.34239221310E+01  0.00000000000E+00 0. -1.
</event>
<event>
 5    1  0.6776507E+001  0.1599173E+01  0.7818608E-02  0.3354262E+00
         11   -1    0    0    0    0  0.00000000000E+00  0.00000000000E+00  0.39999999674E+01  0.40000000000E+01  0.51100000000E-03 0.  1.
    9000002   -1    0    0    0    0 -0.00000000000E+00 -0.00000000000E+00  0.00000000000E+00  0.93800000000E+00  0.93800000000E+00 0.  1.
         11    1    1    2    0    0 -0.65107608067E-01  0.81565427985E-01  0.13896746973E+01  0.13935881548E+01  0.51100000000E-03 0.  1.
    9000002    1    1    2    0    0  0.25671436864E+00 -0.22947182902E+00  0.79850861237E-01  0.10023870248E+01  0.93800000000E+00 0.  1.
         22    1    1    2    0    0 -0.19160676057E+00  0.14790640104E+00  0.25304744088E+01  0.25420248204E+01  0.00000000000E+00 0.  1.
</event>
<event>
 5    1  0.6776507E+001  0.1599577E+01  0.7818608E-02  0.3353823E+00
         11   -1    0    0    0    0  0.00000000000E+00  0.00000000000E+00  0.39999999674E+01  0.40000000000E+01  0.51100000000E-03 0. -1.
    9000002   -1    0    0    0    0 -0.00000000000E+00 -0.00000000000E+00  0.00000000000E+00  0.93800000000E+00  0.93800000000E+00 0. -1.
         11    1    1    2    0    0  0.21116214745E+00 -0.14942193954E+00  0.13082975486E+01  0.13336262990E+01  0.51100000000E-03 0. -1.
    9000002    1    1    2    0    0 -0.56989745878E+00  0.44223268129E+00  0.37419402625E+00  0.12410552072E+01  0.93800000000E+00 0. -1.
         22    1    1    2    0    0  0.35873531133E+00 -0.29281074175E+00  0.23175083925E+01  0.23633184938E+01  0.00000000000E+00 0. -1.
</event>
<event>
 5    1  0.6776507E+001  0.1599226E+01  0.7818608E-02  0.3354204E+00
         11   -1    0    0    0    0  0.00000000000E+00  0.00000000000E+00  0.39999999674E+01  0.40000000000E+01  0.51100000000E-03 0. -1.
    9000002   -1    0    0    0    0 -0.00000000000E+00 -0.00000000000E+00  0.00000000000E+00  0.93800000000E+00  0.93800000000E+00 0. -1.
         11    1    1    2    0    0  0.14473669517E+00  0.57120738850E-01  0.11995637388E+01  0.12096135393E+01  0.51100000000E-03 0. -1.
    9000002    1    1    2    0    0 -0.51739145485E+00 -0.13332259104E+00  0.19701719784E+00  0.10973279396E+01  0.93800000000E+00 0. -1.
         22    1    1    2    0    0  0.37265475967E+00  0.76201852187E-01  0.26034190307E+01  0.26310585211E+01  0.00000000000E+00 0. -1.
</event>
<event>
 5    1  0.6776507E+001  0.1599677E+01  0.7818608E-02  0.3353714E+00
         11   -1    0    0    0    0  0.00000000000E+00  0.00000000000E+00  0.39999999674E+01  0.40000000000E+01  0.51100000000E-03 0.  1.
    9000002   -1    0    0    0    0 -0.00000000000E+00 -0.00000000000E+00  0.00000000000E+00  0.93800000000E+00  0.93800000000E+00 0.  1.
         11    1    1    2    0    0 -0.13930830086E+00  0.27592339419E-01  0.12439857233E+01  0.12520658453E+01  0.51100000000E-03 0. -1.
    9000002    1    1    2    0    0  0.43283638309E+00 -0.86343859957E-01  0.13214043605E+00  0.10450395646E+01  0.93800000000E+00 0.  1.
         22    1    1    2    0    0 -0.29352808222E+00  0.58751520538E-01  0.26238738080E+01  0.26408945902E+01  0.00000000000E+00 0.  1.
</event>
<event>
 5    1  0.6776507E+001  0.1591468E+01  0.7818608E-02  0.3362676E+00
         11   -1    0    0    0    0  0.00000000000E+00  0.00000000000E+00  0.39999999674E+01  0.40000000000E+01  0.51100000000E-03 0.  1.
    9000002   -1    0    0    0    0 -0.00000000000E+00 -0.00000000000E+00  0.00000000000E+00  0.93800000000E+00  0.93800000000E+00 0.  1.
         11    1    1    2    0    0  0.30111670868E+00 -0.22951383373E+00  0.76598536479E+00  0.85444819171E+00  0.51100000000E-03 0.  1.
    9000002    1    1    2    0    0 -0.86871329006E+00  0.64032571198E+00  0.10068995103E+01  0.17488197224E+01  0.93800000000E+00 0.  1.
         22    1    1    2    0    0  0.56759658138E+00 -0.41081187825E+00  0.22271150923E+01  0.23347320858E+01  0.00000000000E+00 0.  1.
</event>
<event>
 5    1  0.6776507E+001  0.1599602E+01  0.7818608E-02  0.3353795E+00
         11   -1    0    0    0    0  0.00000000000E+00  0.00000000000E+00  0.39999999674E+01  0.40000000000E+01  0.51100000000E-03 0.  1.
    9000002   -1    0    0    0    0 -0.00000000000E+00 -0.00000000000E+00  0.00000000000E+00  0.93800000000E+00  0.93800000000E+00 0.  1.
         11    1    1    2    0    0 -0.17421933699E-02  0.87512022921E-01  0.88317195682E+00  0.88749893286E+00  0.51100000000E-03 0.  1.
    9000002    1    1    2    0    0  0.13532332190E-01 -0.42248682007E+00  0.12094885885E+00  0.10359299511E+01  0.93800000000E+00 0.  1.
         22    1    1    2    0    0 -0.11790138821E-01  0.33497479715E+00  0.29958791517E+01  0.30145711160E+01  0.00000000000E+00 0.  1.
</event>
<event>
 5    1  0.6776507E+001  0.1527816E+01  0.7818608E-02  0.3435640E+00
         11   -1    0    0    0    0  0.00000000000E+00  0.00000000000E+00  0.39999999674E+01  0.40000000000E+01  0.51100000000E-03 0.  1.
    9000002   -1    0    0    0    0 -0.00000000000E+00 -0.00000000000E+00  0.00000000000E+00  0.93800000000E+00  0.93800000000E+00 0.  1.
         11    1    1    2    0    0 -0.39510212818E-01  0.27429692786E+00  0.82744986797E+00  0.87262443621E+00  0.51100000000E-03 0.  1.
    9000002    1    1    2    0    0  0.20412542595E+00 -0.42163750702E-01  0.84882038452E-01  0.96462113384E+00  0.93800000000E+00 0.  1.
         22    1    1    2    0    0 -0.16461521313E+00 -0.23213317716E+00  0.30876680609E+01  0.31007544300E+01  0.00000000000E+00 0.  1.
</event>
<event>
 5    1  0.6776507E+001  0.1584772E+01  0.7818608E-02  0.3370059E+00
         11   -1    0    0    0    0  0.00000000000E+00  0.00000000000E+00  0.39999999674E+01  0.40000000000E+01  0.51100000000E-03 0.  1.
    9000002   -1    0    0    0    0 -0.00000000000E+00 -0.00000000000E+00  0.00000000000E+00  0.93800000000E+00  0.93800000000E+00 0.  1.
         11    1    1    2    0    0 -0.12672175298E-01  0.19374887021E+00  0.13986859954E+01  0.14120984327E+01  0.51100000000E-03 0.  1.
    9000002    1    1    2    0    0 -0.22525630502E+00 -0.24651621559E+00  0.86623232118E-01  0.99942895287E+00  0.93800000000E+00 0.  1.
         22    1    1    2    0    0  0.23792848032E+00  0.52767345379E-01  0.25146907399E+01  0.25264726145E+01  0.00000000000E+00 0.  1.
</event>
<event>
 5    1  0.6776507E+001  0.1599614E+01  0.7818608E-02  0.3353782E+00
         11   -1    0    0    0    0  0.00000000000E+00  0.00000000000E+00  0.39999999674E+01  0.40000000000E+01  0.51100000000E-03 0.  1.
    9000002   -1    0    0    0    0 -0.00000000000E+00 -0.00000000000E+00  0.00000000000E+00  0.93800000000E+00  0.93800000000E+00 0. -1.
         11    1    1    2    0    0 -0.24271433619E-01  0.12171872059E+00  0.13616541897E+01  0.13672991417E+01  0.51100000000E-03 0.  1.
    9000002    1    1    2    0    0  0.44584073161E-01 -0.35671063286E+00  0.86793117079E-01  0.10082694384E+01  0.93800000000E+00 0. -1.
         22    1    1    2    0    0 -0.20312639542E-01  0.23499191228E+00  0.25515526606E+01  0.25624314199E+01  0.00000000000E+00 0.  1.
</event>
<event>
 5    1  0.6776507E+001  0.1595223E+01  0.7818608E-02  0.3358565E+00
         11   -1    0    0    0    0  0.00000000000E+00  0.00000000000E+00  0.39999999674E+01  0.40000000000E+01  0.51100000000E-03 0. -1.
    9000002   -1    0    0    0    0 -0.00000000000E+00 -0.00000000000E+00  0.00000000000E+00  0.93800000000E+00  0.93800000000E+00 0. -1.
         11    1    1    2    0    0  0.58552889188E-01 -0.23320645419E-01  0.74469173800E+00  0.74735422599E+00  0.51100000000E-03 0. -1.
    9000002    1    1    2    0    0 -0.73793142366E-01  0.35708992970E+00  0.92925898885E-01  0.10106620941E+01  0.93800000000E+00 0. -1.
         22    1    1    2    0    0  0.15240253179E-01 -0.33376928428E+00  0.31623823305E+01  0.31799836799E+01  0.00000000000E+00 0. -1.
</event>
<event>
 5    1  0.6776507E+001  0.1599674E+01  0.7818608E-02  0.3353717E+00
         11   -1    0    0    0    0  0.00000000000E+00  0.00000000000E+00  0.39999999674E+01  0.40000000000E+01  0.51100000000E-03 0.  1.
    9000002   -1    0    0    0    0 -0.00000000000E+00 -0.00000000000E+00  0.00000000000E+00  0.93800000000E+00  0.93800000000E+00 0.  1.
         11    1    1    2    0    0 -0.77787942946E-01  0.34932909560E-01  0.64682932054E+00  0.65242601363E+00  0.51100000000E-03 0.  1.
    9000002    1    1    2    0    0  0.45435427026E+00 -0.20118879629E+00  0.16894193332E+00  0.10748488784E+01  0.93800000000E+00 0.  1.
         22    1    1    2    0    0 -0.37656632732E+00  0.16625588673E+00  0.31842287135E+01  0.32107251079E+01  0.00000000000E+00 0.  1.
</event>
<event>
 5    1  0.6776507E+001  0.1599420E+01  0.7818608E-02  0.3353993E+00
         11   -1    0    0    0    0  0.00000000000E+00  0.00000000000E+00  0.39999999674E+01  0.40000000000E+01  0.51100000000E-03 0.  1.
    9000002   -1    0    0    0    0 -0.00000000000E+00 -0.00000000000E+00  0.00000000000E+00  0.93800000000E+00  0.93800000000E+00 0. -1.
         11    1    1    2    0    0 -0.83552608111E-02 -0.14357493911E+00  0.10200271514E+01  0.10301161217E+01  0.51100000000E-03 0.  1.
    9000002    1    1    2    0    0 -0.23874636431E-01  0.50569682012E+00  0.17586991906E+00  0.10803117608E+01  0.93800000000E+00 0. -1.
         22    1    1    2    0    0  0.32229897242E-01 -0.36212188101E+00  0.28041028969E+01  0.28275721175E+01  0.00000000000E+00 0.  1.
</event>
<event>
 5    1  0.6776507E+001  0.1599090E+01  0.7818608E-02  0.3354352E+00
         11   -1    0    0    0    0  0.00000000000E+00  0.00000000000E+00  0.39999999674E+01  0.40000000000E+01  0.51100000000E-03 0. -1.
    9000002   -1    0    0    0    0 -0.00000000000E+00 -0.00000000000E+00  0.00000000000E+00  0.93800000000E+00  0.93800000000E+00 0. -1.
         11    1    1    2    0    0 -0.19903842040E+00  0.50183616252E-01  0.11246097056E+01  0.11431893716E+01  0.51100000000E-03 0. -1.
    9000002    1    1    2    0    0  0.58358948632E+00 -0.21261224405E+00  0.27100405660E+00  0.11571809943E+01  0.93800000000E+00 0. -1.
         22    1    1    2    0    0 -0.38455106593E+00  0.16242862780E+00  0.26043862051E+01  0.26376296341E+01  0.00000000000E+00 0. -1.
</event>
<event>
 5    1  0.6776507E+001  0.1599661E+01  0.7818608E-02  0.3353731E+00
         11   -1    0    0    0    0  0.00000000000E+00  0.00000000000E+00  0.39999999674E+01  0.40000000000E+01  0.51100000000E-03 0.  1.
    9000002   -1    0    0    0    0 -0.00000000000E+00 -0.00000000000E+00  0.00000000000E+00  0.93800000000E+00  0.93800000000E+00 0.  1.
         11    1    1    2    0    0  0.43794291535E-01  0.72011408710E-01  0.95400658212E+00  0.95772250825E+00  0.51100000000E-03 0.  1.
    9000002    1    1    2    0    0 -0.19447128709E+00 -0.30329123960E+00  0.87148530613E-01  0.10085849116E+01  0.93800000000E+00 0.  1.
         22    1    1    2    0    0  0.15067699556E+00  0.23127983089E+00  0.29588448546E+01  0.29716925801E+01  0.00000000000E+00 0.  1.
</event>
<event>
 5    1  0.6776507E+001  0.1598427E+01  0.7818608E-02  0.3355073E+00
         11   -1    0    0    0    0  0.00000000000E+00  0.00000000000E+00  0.39999999674E+01  0.40000000000E+01  0.51100000000E-03 0.  1.
    9000002   -1    0    0    0    0 -0.00000000000E+00 -0.00000000000E+00  0.00000000000E+00  0.93800000000E+00  0.93800000000E+00 0.  1.
         11    1    1    2    0    0 -0.63439256800E-01 -0.13858925482E+00  0.13099856331E+01  0.13188230135E+01  0.51100000000E-03 0.  1.
    9000002    1    1    2    0    0  0.10492298717E+00  0.49144080382E+00  0.17406886343E+00  0.10782703122E+01  0.93800000000E+00 0.  1.
         22    1    1    2    0    0 -0.41483730366E-01 -0.35285154900E+00  0.25159454709E+01  0.25409066744E+01  0.00000000000E+00 0.  1.
</event>
<event>
 5    1  0.6776507E+001  0.1594453E+01  0.7818608E-02  0.3359406E+00
         11   -1    0    0    0    0  0.00000000000E+00  0.00000000000E+00  0.39999999674E+01  0.40000000000E+01  0.51100000000E-03 0.  1.
    9000002   -1    0    0    0    0 -0.00000000000E+00 -0.00000000000E+00  0.00000000000E+00  0.93800000000E+00  0.93800000000E+00 0. -1.
         11    1    1    2    0    0 -0.97966584004E-01 -0.31536192570E-01  0.99320204131E+00  0.99852017456E+00  0.51100000000E-03 0.  1.
    9000002    1    1    2    0    0  0.24061455035E+00  0.38278241591E+00  0.14341432310E+00  0.10511086565E+01  0.93800000000E+00 0. -1.
         22    1    1    2    0    0 -0.14264796634E+00 -0.35124622334E+00  0.28633836029E+01  0.28883711689E+01  0.00000000000E+00 0.  1.
</event>
<event>
 5    1  0.6776507E+001  0.1595641E+01  0.7818608E-02  0.3358108E+00
         11   -1    0    0    0    0  0.00000000000E+00  0.00000000000E+00  0.39999999674E+01  0.40000000000E+01  0.51100000000E-03 0.  1.
    9000002   -1    0    0    0    0 -0.00000000000E+00 -0.00000000000E+00  0.00000000000E+00  0.93800000000E+00  0.93800000000E+00 0.  1.
         11    1    1    2    0    0 -0.13309482338E-01  0.20239513901E-01  0.11135069465E+01  0.11137705156E+01  0.51100000000E-03 0.  1.
    9000002    1    1    2    0    0  0.19834382766E+00 -0.26191271120E+00  0.75424218192E-01  0.99673033211E+00  0.93800000000E+00 0.  1.
         22    1    1    2    0    0 -0.18503434533E+00  0.24167319730E+00  0.28110688026E+01  0.28274991523E+01  0.00000000000E+00 0.  1.
</event>
<event>
 5    1  0.6776507E+001  0.1599674E+01  0.7818608E-02  0.3353717E+00
         11   -1    0    0    0    0  0.00000000000E+00  0.00000000000E+00  0.39999999674E+01  0.40000000000E+01  0.51100000000E-03 0. -1.
    9000002   -1    0    0    0    0 -0.00000000000E+00 -0.00000000000E+00  0.00000000000E+00  0.93800000000E+00  0.93800000000E+00 0. -1.
         11    1    1    2    0    0  0.14569045047E-01  0.13973258948E+00  0.82927335534E+00  0.84108977680E+00  0.51100000000E-03 0. -1.
    9000002    1    1    2    0    0 -0.64921404469E-01 -0.62018692166E+00  0.27270970903E+00  0.11589051695E+01  0.93800000000E+00 0. -1.
         22    1    1    2    0    0  0.50352359422E-01  0.48045433217E+00  0.28980169030E+01  0.29380050537E+01  0.00000000000E+00 0. -1.
</event>
<event>
 5    1  0.6776507E+001  0.1528610E+01  0.7818608E-02  0.3434689E+00
         11   -1    0    0    0    0  0.00000000000E+00  0.00000000000E+00  0.39999999674E+01  0.40000000000E+01  0.51100000000E-03 0. -1.
    9000002   -1    0    0    0    0 -0.00000000000E+00 -0.00000000000E+00  0.00000000000E+00  0.93800000000E+00  0.93800000000E+00 0. -1.
         11    1    1    2    0    0 -0.94069088353E-01 -0.30587924122E+00  0.13120513134E+01  0.13505147217E+01  0.51100000000E-03 0. -1.
    9000002    1    1    2    0    0  0.25288858591E-01  0.45859456168E-01  0.55250750942E-01  0.94108408847E+00  0.93800000000E+00 0. -1.
         22    1    1    2    0    0  0.68780229762E-01  0.26001978506E+00  0.26326979031E+01  0.26464011898E+01  0.00000000000E+00 0. -1.
</event>
<event>
 5    1  0.6776507E+001  0.1599674E+01  0.7818608E-02  0.3353718E+00
         11   -1    0    0    0    0  0.00000000000E+00  0.00000000000E+00  0.39999999674E+01  0.40000000000E+01  0.51100000000E-03 0. -1.
    9000002   -1    0    0    0    0 -0.00000000000E+00 -0.00000000000E+00  0.00000000000E+00  0.93800000000E+00  0.93800000000E+00 0.  1.
         11    1    1    2    0    0  0.70178680355E-01  0.85903630301E-01  0.96431179294E+00  0.97067088964E+00  0.51100000000E-03 0. -1.
    9000002    1    1    2    0    0 -0.28857012013E+00 -0.34555001281E+00  0.13766229868E+00  0.10495105688E+01  0.93800000000E+00 0.  1.
         22    1    1    2    0    0  0.21839143978E+00  0.25964638250E+00  0.28980258757E+01  0.29178185415E+01  0.00000000000E+00 0. -1.
</event>
<event>
 5    1  0.6776507E+001  0.1599071E+01  0.7818608E-02  0.3354372E+00
         11   -1    0    0    0    0  0.00000000000E+00  0.00000000000E+00  0.39999999674E+01  0.40000000000E+01  0.51100000000E-03 0.  1.
    9000002   -1    0    0    0    0 -0.00000000000E+00 -0.00000000000E+00  0.00000000000E+00  0.93800000000E+00  0.93800000000E+00 0. -1.
         11    1    1    2    0    0  0.39538910553E-01  0.57697588391E-01  0.33585828298E+00  0.34306469437E+00  0.51100000000E-03 0.  1.
    9000002    1    1    2    0    0 -0.42930889997E+00 -0.45039910636E+00  0.27206258923E+00  0.11580274345E+01  0.93800000000E+00 0. -1.
         22    1    1    2    0    0  0.38976998942E+00  0.39270151797E+00  0.33920790951E+01  0.34369078711E+01  0.00000000000E+00 0.  1.
</event>
<event>
 5    1  0.6776507E+001  0.1599677E+01  0.7818608E-02  0.3353714E+00
         11   -1    0    0    0    0  0.00000000000E+00  0.00000000000E+00  0.39999999674E+01  0.40000000000E+01  0.51100000000E-03 0.  1.
    9000002   -1    0    0    0    0 -0.00000000000E+00 -0.00000000000E+00  0.00000000000E+00  0.93800000000E+00  0.93800000000E+00 0. -1.
         11    1    1    2    0    0 -0.87803216304E-01 -0.15890022409E+00  0.11321632521E+01  0.11466266073E+01  0.51100000000E-03 0.  1.
    9000002    1    1    2    0    0  0.29052232402E+00  0.52469253091E+00  0.25095308015E+00  0.11412830154E+01  0.93800000000E+00 0. -1.
         22    1    1    2    0    0 -0.20271910772E+00 -0.36579230682E+00  0.26168836351E+01  0.26500903774E+01  0.00000000000E+00 0.  1.
</event>
<event>
 5    1  0.6776507E+001  0.1597887E+01  0.7818608E-02  0.3355660E+00
         11   -1    0    0    0    0  0.00000000000E+00  0.00000000000E+00  0.39999999674E+01  0.40000000000E+01  0.51100000000E-03 0. -1.
    9000002   -1    0    0    0    0 -0.00000000000E+00 -0.00000000000E+00  0.00000000000E+00  0.93800000000E+00  0.93800000000E+00 0. -1.
         11    1    1    2    0    0  0.81776027170E-01 -0.19530240792E-02  0.11969735993E+01  0.11997654735E+01  0.51100000000E-03 0. -1.
    9000002    1    1    2    0    0 -0.40351240701E+00  0.72674393905E-01  0.11503869381E+00  0.10301367536E+01  0.93800000000E+00 0. -1.
         22    1    1    2    0    0  0.32173637984E+00 -0.70721369826E-01  0.26879876743E+01  0.27080977728E+01  0.00000000000E+00 0. -1.
</event>
<event>
 5    1  0.6776507E+001  0.1599356E+01  0.7818608E-02  0.3354063E+00
         11   -1    0    0    0    0  0.00000000000E+00  0.00000000000E+00  0.39999999674E+01  0.40000000000E+01  0.51100000000E-03 0.  1.
    9000002   -1    0    0    0    0 -0.00000000000E+00 -0.00000000000E+00  0.00000000000E+00  0.93800000000E+00  0.93800000000E+00 0.  1.
         11    1    1    2    0    0 -0.15870268227E+00 -0.91037191460E-01  0.81458642876E+00  0.83488060382E+00  0.51100000000E-03 0.  1.
    9000002    1    1    2    0    0  0.63618212418E+00  0.45294712375E+00  0.44683310969E+00  0.12997663713E+01  0.93800000000E+00 0.  1.
         22    1    1    2    0    0 -0.47747944191E+00 -0.36190993229E+00  0.27385804289E+01  0.28033530249E+01  0.00000000000E+00 0.  1.
</event>
<event>
 5    1  0.7016996E+001  0.1599625E+01  0.7818608E-02  0.3353770E+00
         11   -1    0    0    0    0  0.00000000000E+00  0.00000000000E+00  0.39999999674E+01  0.40000000000E+01  0.51100000000E-03 0. -1.
    9000002   -1    0    0    0    0 -0.00000000000E+00 -0.00000000000E+00  0.00000000000E+00  0.93800000000E+00  0.93800000000E+00 0.  1.
         11    1    1    2    0    0  0.23542629242E+00 -0.44965399919E-01  0.14364080858E+01  0.14562677901E+01  0.51100000000E-03 0. -1.
    9000002    1    1    2    0    0 -0.62743658812E+00  0.12717621876E+00  0.28859239537E+00  0.11717423067E+01  0.93800000000E+00 0.  1.
         22    1    1    2    0    0  0.39201029569E+00 -0.82210818841E-01  0.22749994862E+01  0.23099899032E+01  0.00000000000E+00 0. -1.
</event>
<event>
 5    1  0.6776507E+001  0.1599676E+01  0.7818608E-02  0.3353715E+00
         11   -1    0    0    0    0  0.00000000000E+00  0.00000000000E+00  0.39999999674E+01  0.40000000000E+01  0.51100000000E-03 0. -1.
    9000002   -1    0    0    0    0 -0.00000000000E+00 -0.00000000000E+00  0.00000000000E+00  0.93800000000E+00  0.93800000000E+00 0.  1.
         11    1    1    2    0    0  0.34504202435E-01  0.51395157572E-01  0.68634070198E+00  0.68912685518E+00  0.51100000000E-03 0. -1.
    9000002    1    1    2    0    0 -0.19429718101E+00 -0.29717195041E+00  0.84574519443E-01  0.10065085255E+01  0.93800000000E+00 0.  1.
         22    1    1    2    0    0  0.15979297858E+00  0.24577679284E+00  0.32290847459E+01  0.32423646193E+01  0.00000000000E+00 0. -1.
</event>
<event>
 5    1  0.6776507E+001  0.1597037E+01  0.7818608E-02  0.3356586E+00
         11   -1    0    0    0    0  0.00000000000E+00  0.00000000000E+00  0.39999999674E+01  0.40000000000E+01  0.51100000000E-03 0. -1.
    9000002   -1    0    0    0    0 -0.00000000000E+00 -0.00000000000E+00  0.00000000000E+00  0.93800000000E+00  0.93800000000E+00 0. -1.
         11    1    1    2    0    0 -0.22287968095E+00  0.13284854373E-01  0.10209885390E+01  0.10451170736E+01  0.51100000000E-03 0. -1.
    9000002    1    1    2    0    0  0.62292895915E+00 -0.12646492762E+00  0.28687754619E+00  0.11688355712E+01  0.93800000000E+00 0. -1.
         22    1    1    2    0    0 -0.40004927820E+00  0.11318007325E+00  0.26921338821E+01  0.27240473552E+01  0.00000000000E+00 0. -1.
</event>
<event>
 5    1  0.6776507E+001  0.1594388E+01  0.7818608E-02  0.3359477E+00
         11   -1    0    0    0    0  0.00000000000E+00  0.00000000000E+00  0.39999999674E+01  0.40000000000E+01  0.51100000000E-03 0. -1.
    9000002   -1    0    0    0    0 -0.00000000000E+00 -0.00000000000E+00  0.00000000000E+00  0.93800000000E+00  0.93800000000E+00 0.  1.
         11    1    1    2    0    0 -0.23935625097E-01 -0.12520370969E-01  0.13296547063E+01  0.13299291609E+01  0.51100000000E-03 0. -1.
    9000002    1    1    2    0    0  0.24534594174E+00  0.20894038581E+00  0.73631364177E-01  0.99454325886E+00  0.93800000000E+00 0.  1.
         22    1    1    2    0    0 -0.22141031664E+00 -0.19642001484E+00  0.25967138968E+01  0.26135275802E+01  0.00000000000E+00 0. -1.
</event>
<event>
 5    1  0.6776507E+001  0.1599672E+01  0.7818608E-02  0.3353720E+00
         11   -1    0    0    0    0  0.00000000000E+00  0.00000000000E+00  0.39999999674E+01  0.40000000000E+01  0.51100000000E-03 0. -1.
    9000002   -1    0    0    0    0 -0.00000000000E+00 -0.00000000000E+00  0.00000000000E+00  0.93800000000E+00  0.93800000000E+00 0. -1.
         11    1    1    2    0    0  0.61126186872E-01  0.42962177544E-01  0.61569968740E+00  0.62021651510E+00  0.51100000000E-03 0. -1.
    9000002    1    1    2    0    0 -0.37064870677E+00 -0.27289027133E+00  0.14411077384E+00  0.10547328947E+01  0.93800000000E+00 0.  1.
         22    1    1    2    0    0  0.30952251989E+00  0.22992809379E+00  0.32401895061E+01  0.32630505902E+01  0.00000000000E+00 0. -1.
</event>
<event>
 5    1  0.6776507E+001  0.1599677E+01  0.7818608E-02  0.3353714E+00
         11   -1    0    0    0    0  0.00000000000E+00  0.00000000000E+00  0.39999999674E+01  0.40000000000E+01  0.51100000000E-03 0. -1.
    9000002   -1    0    0    0    0 -0.00000000000E+00 -0.00000000000E+00  0.00000000000E+00  0.93800000000E+00  0.93800000000E+00 0. -1.
         11    1    1    2    0    0  0.10295450532E+00  0.13678300784E+00  0.13701288024E+01  0.13807832624E+01  0.51100000000E-03 0. -1.
    9000002    1    1    2    0    0 -0.28761824345E+00 -0.38422091979E+00  0.15717089473E+00  0.10653152863E+01  0.93800000000E+00 0. -1.
         22    1    1    2    0    0  0.18466373814E+00  0.24743791195E+00  0.24727002702E+01  0.24919014513E+01  0.00000000000E+00 0. -1.
</event>
<event>
 5    1  0.6776507E+001  0.1599676E+01  0.7818608E-02  0.3353715E+00
         11   -1    0    0    0    0  0.00000000000E+00  0.00000000000E+00  0.39999999674E+01  0.40000000000E+01  0.51100000000E-03 0. -1.
    9000002   -1    0    0    0    0 -0.00000000000E+00 -0.00000000000E+00  0.00000000000E+00  0.93800000000E+00  0.93800000000E+00 0. -1.
         11    1    1    2    0    0  0.12105032060E+00 -0.94828279718E-01  0.13882811916E+01  0.13967714598E+01  0.51100000000E-03 0. -1.
    9000002    1    1    2    0    0 -0.33688912145E+00  0.26258840158E+00  0.12351109774E+00  0.10380491029E+01  0.93800000000E+00 0. -1.
         22    1    1    2    0    0  0.21583880084E+00 -0.16776012186E+00  0.24882076780E+01  0.25031794373E+01  0.00000000000E+00 0. -1.
</event>
<event>
 5    1  0.6776507E+001  0.1599623E+01  0.7818608E-02  0.3353772E+00
         11   -1    0    0    0    0  0.00000000000E+00  0.00000000000E+00  0.39999999674E+01  0.40000000000E+01  0.51100000000E-03 0. -1.
    9000002   -1    0    0    0    0 -0.00000000000E+00 -0.00000000000E+00  0.00000000000E+00  0.93800000000E+00  0.93800000000E+00 0. -1.
         11    1    1    2    0    0 -0.67648205893E-02 -0.49866105657E-01  0.45451240802E+00  0.45729004084E+00  0.51100000000E-03 0. -1.
    9000002    1    1    2    0    0  0.60210075550E-01  0.37926919277E+00  0.99316832943E-01  0.10184194652E+01  0.93800000000E+00 0. -1.
         22    1    1    2    0    0 -0.53445254961E-01 -0.32940308712E+00  0.34461707264E+01  0.34622904940E+01  0.00000000000E+00 0. -1.
</event>
<event>
 5    1  0.6776507E+001  0.1599677E+01  0.7818608E-02  0.3353714E+00
         11   -1    0    0    0    0  0.00000000000E+00  0.00000000000E+00  0.39999999674E+01  0.40000000000E+01  0.51100000000E-03 0. -1.
    9000002   -1    0    0    0    0 -0.00000000000E+00 -0.00000000000E+00  0.00000000000E+00  0.93800000000E+00  0.93800000000E+00 0. -1.
         11    1    1    2    0    0 -0.16219182221E+00 -0.28427455489E-01  0.14422450609E+01  0.14516147506E+01  0.51100000000E-03 0. -1.
    9000002    1    1    2    0    0  0.43493198163E+00  0.75661149624E-01  0.13220190186E+00  0.10450893651E+01  0.93800000000E+00 0. -1.
         22    1    1    2    0    0 -0.27274015941E+00 -0.47233694136E-01  0.24255530046E+01  0.24412958843E+01  0.00000000000E+00 0. -1.
</event>
<event>
 5    1  0.6776507E+001  0.1597790E+01  0.7818608E-02  0.3355765E+00
         11   -1    0    0    0    0  0.00000000000E+00  0.00000000000E+00  0.39999999674E+01  0.40000000000E+01  0.51100000000E-03 0. -1.
    9000002   -1    0    0    0    0 -0.00000000000E+00 -0.00000000000E+00  0.00000000000E+00  0.93800000000E+00  0.93800000000E+00 0. -1.
         11    1    1    2    0    0 -0.42046648788E-02 -0.16987475261E+00  0.10879101690E+01  0.11011012250E+01  0.51100000000E-03 0. -1.
    9000002    1    1    2    0    0  0.61490760102E-01  0.44170434037E+00  0.13662494838E+00  0.10475658521E+01  0.93800000000E+00 0. -1.
         22    1    1    2    0    0 -0.57286095223E-01 -0.27182958776E+00  0.27754648500E+01  0.27893329230E+01  0.00000000000E+00 0. -1.
</event>
<event>
 5    1  0.6776507E+001  0.1599669E+01  0.7818608E-02  0.3353723E+00
         11   -1    0    0    0    0  0.00000000000E+00  0.00000000000E+00  0.39999999674E+01  0.40000000000E+01  0.51100000000E-03 0. -1.
    9000002   -1    0    0    0    0 -0.00000000000E+00 -0.00000000000E+00  0.00000000000E+00  0.93800000000E+00  0.93800000000E+00 0.  1.
         11    1    1    2    0    0  0.16269840774E+00 -0.40032589671E-01  0.14112260464E+01  0.14211377819E+01  0.51100000000E-03 0. -1.
    9000002    1    1    2    0    0 -0.43714862744E+00  0.11370726328E+00  0.13861448159E+00  0.10502791242E+01  0.93800000000E+00 0.  1.
         22    1    1    2    0    0  0.27445021969E+00 -0.73674673612E-01  0.24501594394E+01  0.24665830939E+01  0.00000000000E+00 0. -1.
</event>
<event>
 5    1  0.6776507E+001  0.1597548E+01  0.7818608E-02  0.3356029E+00
         11   -1    0    0    0    0  0.00000000000E+00  0.00000000000E+00  0.39999999674E+01  0.40000000000E+01  0.51100000000E-03 0. -1.
    9000002   -1    0    0    0    0 -0.00000000000E+00 -0.00000000000E+00  0.00000000000E+00  0.93800000000E+00  0.93800000000E+00 0.  1.
         11    1    1    2    0    0  0.82412819828E-03 -0.17490054136E-01  0.14979868737E+00  0.15081939212E+00  0.51100000000E-03 0. -1.
    9000002    1    1    2    0    0 -0.38359673258E+00  0.34094027902E-01  0.10160594557E+00  0.10190567326E+01  0.93800000000E+00 0.  1.
         22    1    1    2    0    0  0.38277260438E+00 -0.16603973766E-01  0.37485953344E+01  0.37681238753E+01  0.00000000000E+00 0. -1.
</event>
<event>
 5    1  0.6776507E+001  0.1489540E+01  0.7818608E-02  0.3482731E+00
         11   -1    0    0    0    0  0.00000000000E+00  0.00000000000E+00  0.39999999674E+01  0.40000000000E+01  0.51100000000E-03 0.  1.
    9000002   -1    0    0    0    0 -0.00000000000E+00 -0.00000000000E+00  0.00000000000E+00  0.93800000000E+00  0.93800000000E+00 0.  1.
         11    1    1    2    0    0  0.27771752672E+00 -0.15930260903E-01  0.22223475422E+00  0.35604682973E+00  0.51100000000E-03 0.  1.
    9000002    1    1    2    0    0 -0.16156087025E-01 -0.28459620944E+00  0.22360742719E+00  0.10055348343E+01  0.93800000000E+00 0.  1.
         22    1    1    2    0    0 -0.26156143969E+00  0.30052647035E+00  0.35541577860E+01  0.35764183359E+01  0.00000000000E+00 0.  1.
</event>
<event>
 5    1  0.6776507E+001  0.1244483E+01  0.7818608E-02  0.3893992E+00
         11   -1    0    0    0    0  0.00000000000E+00  0.00000000000E+00  0.39999999674E+01  0.40000000000E+01  0.51100000000E-03 0.  1.
    9000002   -1    0    0    0    0 -0.00000000000E+00 -0.00000000000E+00  0.00000000000E+00  0.93800000000E+00  0.93800000000E+00 0. -1.
         11    1    1    2    0    0 -0.47783819222E+00 -0.23495780905E+00  0.33447791349E+00  0.62881654376E+00  0.51100000000E-03 0.  1.
    9000002    1    1    2    0    0  0.19802909289E+00  0.38763781561E+00  0.53837821549E+00  0.11658360522E+01  0.93800000000E+00 0. -1.
         22    1    1    2    0    0  0.27980909933E+00 -0.15268000656E+00  0.31271438384E+01  0.31433474040E+01  0.00000000000E+00 0. -1.
</event>
<event>
 5    1  0.6776507E+001  0.1577813E+01  0.7818608E-02  0.3377802E+00
         11   -1    0    0    0    0  0.00000000000E+00  0.00000000000E+00  0.39999999674E+01  0.40000000000E+01  0.51100000000E-03 0.  1.
    9000002   -1    0    0    0    0 -0.00000000000E+00 -0.00000000000E+00  0.00000000000E+00  0.93800000000E+00  0.93800000000E+00 0.  1.
         11    1    1    2    0    0 -0.12240710107E+00  0.59508282945E-02  0.99542082018E+00  0.10029365788E+01  0.51100000000E-03 0.  1.
    9000002    1    1    2    0    0 -0.10213125912E+00 -0.19759842289E+00  0.49507125174E-01  0.96528280118E+00  0.93800000000E+00 0.  1.
         22    1    1    2    0    0  0.22453836019E+00  0.19164759460E+00  0.29550720220E+01  0.29697806200E+01  0.00000000000E+00 0.  1.
</event>
<event>
 5    1  0.6776507E+001  0.1599676E+01  0.7818608E-02  0.3353715E+00
         11   -1    0    0    0    0  0.00000000000E+00  0.00000000000E+00  0.39999999674E+01  0.40000000000E+01  0.51100000000E-03 0. -1.
    9000002   -1    0    0    0    0 -0.00000000000E+00 -0.00000000000E+00  0.00000000000E+00  0.93800000000E+00  0.93800000000E+00 0. -1.
         11    1    1    2    0    0 -0.44161458454E-01  0.33617703860E-01  0.35908166123E+00  0.36334595770E+00  0.51100000000E-03 0. -1.
    9000002    1    1    2    0    0  0.45829784348E+00 -0.35483113311E+00  0.23339169721E+00  0.11270571107E+01  0.93800000000E+00 0. -1.
         22    1    1    2    0    0 -0.41413638503E+00  0.32121342925E+00  0.34075266089E+01  0.34475969316E+01  0.00000000000E+00 0. -1.
</event>
<event>
 5    1  0.6776507E+001  0.1599136E+01  0.7818608E-02  0.3354301E+00
         11   -1    0    0    0    0  0.00000000000E+00  0.00000000000E+00  0.39999999674E+01  0.40000000000E+01  0.51100000000E-03 0. -1.
    9000002   -1    0    0    0    0 -0.00000000000E+00 -0.00000000000E+00  0.00000000000E+00  0.93800000000E+00  0.93800000000E+00 0. -1.
         11    1    1    2    0    0 -0.18726583869E-01  0.38134659852E-01  0.47635983546E+00  0.47825086637E+00  0.51100000000E-03 0. -1.
    9000002    1    1    2    0    0  0.42308962417E-01 -0.41216565025E+00  0.11646750644E+00  0.10320267688E+01  0.93800000000E+00 0. -1.
         22    1    1    2    0    0 -0.23582378548E-01  0.37403099040E+00  0.34071726255E+01  0.34277223648E+01  0.00000000000E+00 0. -1.
</event>
<event>
 5    1  0.6776507E+001  0.1599677E+01  0.7818608E-02  0.3353714E+00
         11   -1    0    0    0    0  0.00000000000E+00  0.00000000000E+00  0.39999999674E+01  0.40000000000E+01  0.51100000000E-03 0. -1.
    9000002   -1    0    0    0    0 -0.00000000000E+00 -0.00000000000E+00  0.00000000000E+00  0.93800000000E+00  0.93800000000E+00 0. -1.
         11    1    1    2    0    0 -0.17034398356E+00  0.34729078455E+00  0.12305083495E+01  0.12898755836E+01  0.51100000000E-03 0. -1.
    9000002    1    1    2    0    0  0.44042228991E+00 -0.90060476007E+00  0.80972507619E+00  0.15939132430E+01  0.93800000000E+00 0. -1.
         22    1    1    2    0    0 -0.27007830635E+00  0.55331397552E+00  0.19597665417E+01  0.20542111734E+01  0.00000000000E+00 0. -1.
</event>
<event>
 5    1  0.6776507E+001  0.1583727E+01  0.7818608E-02  0.3371218E+00
         11   -1    0    0    0    0  0.00000000000E+00  0.00000000000E+00  0.39999999674E+01  0.40000000000E+01  0.51100000000E-03 0. -1.
    9000002   -1    0    0    0    0 -0.00000000000E+00 -0.00000000000E+00  0.00000000000E+00  0.93800000000E+00  0.93800000000E+00 0.  1.
         11    1    1    2    0    0  0.17020401142E+00 -0.34893926967E-01  0.67814409781E+00  0.70004761992E+00  0.51100000000E-03 0. -1.
    9000002    1    1    2    0    0 -0.44192782719E+00 -0.21211705236E+00  0.17861271546E+00  0.10733314262E+01  0.93800000000E+00 0.  1.
         22    1    1    2    0    0  0.27172381578E+00  0.24701097932E+00  0.31432431541E+01  0.31646209539E+01  0.00000000000E+00 0. -1.
</event>
<event>
 5    1  0.6776507E+001  0.1549665E+01  0.7818608E-02  0.3409875E+00
         11   -1    0    0    0    0  0.00000000000E+00  0.00000000000E+00  0.39999999674E+01  0.40000000000E+01  0.51100000000E-03 0.  1.
    9000002   -1    0    0    0    0 -0.00000000000E+00 -0.00000000000E+00  0.00000000000E+00  0.93800000000E+00  0.93800000000E+00 0.  1.
         11    1    1    2    0    0  0.72992238282E-01  0.13247211118E+00  0.41898918086E+00  0.44545361362E+00  0.51100000000E-03 0.  1.
    9000002    1    1    2    0    0 -0.39961564824E+00  0.31672956952E+00  0.22525880483E+00  0.10911442690E+01  0.93800000000E+00 0.  1.
         22    1    1    2    0    0  0.32662340996E+00 -0.44920168071E+00  0.33557519817E+01  0.34014021174E+01  0.00000000000E+00 0.  1.
</event>
<event>
 5    1  0.6776507E+001  0.1585083E+01  0.7818608E-02  0.3369715E+00
         11   -1    0    0    0    0  0.00000000000E+00  0.00000000000E+00  0.39999999674E+01  0.40000000000E+01  0.51100000000E-03 0.  1.
    9000002   -1    0    0    0    0 -0.00000000000E+00 -0.00000000000E+00  0.00000000000E+00  0.93800000000E+00  0.93800000000E+00 0.  1.
         11    1    1    2    0    0  0.67212469904E-01 -0.24630000253E-02  0.58938106985E+00  0.59320644728E+00  0.51100000000E-03 0.  1.
    9000002    1    1    2    0    0  0.23765312973E+00 -0.75624323284E-01  0.52549822893E-01  0.97201004739E+00  0.93800000000E+00 0.  1.
         22    1    1    2    0    0 -0.30486559963E+00  0.78087323309E-01  0.33580690746E+01  0.33727835053E+01  0.00000000000E+00 0.  1.
</event>
<event>
 5    1  0.6776507E+001  0.1599671E+01  0.7818608E-02  0.3353721E+00
         11   -1    0    0    0    0  0.00000000000E+00  0.00000000000E+00  0.39999999674E+01  0.40000000000E+01  0.51100000000E-03 0. -1.
    9000002   -1    0    0    0    0 -0.00000000000E+00 -0.00000000000E+00  0.00000000000E+00  0.93800000000E+00  0.93800000000E+00 0. -1.
         11    1    1    2    0    0  0.29869289309E-01  0.71892406743E-01  0.79245788000E+00  0.79627284601E+00  0.51100000000E-03 0. -1.
    9000002    1    1    2    0    0 -0.15174907621E+00 -0.36393556755E+00  0.10480126801E+00  0.10228901140E+01  0.93800000000E+00 0. -1.
         22    1    1    2    0    0  0.12187978690E+00  0.29204316080E+00  0.31027408194E+01  0.31188370400E+01  0.00000000000E+00 0.  1.
</event>
<event>
 5    1  0.6776507E+001  0.1599677E+01  0.7818608E-02  0.3353714E+00
         11   -1    0    0    0    0  0.00000000000E+00  0.00000000000E+00  0.39999999674E+01  0.40000000000E+01  0.51100000000E-03 0. -1.
    9000002   -1    0    0    0    0 -0.00000000000E+00 -0.00000000000E+00  0.00000000000E+00  0.93800000000E+00  0.93800000000E+00 0.  1.
         11    1    1    2    0    0  0.62352494365E-01  0.12557684242E+00  0.90813169643E+00  0.91889107955E+00  0.51100000000E-03 0. -1.
    9000002    1    1    2    0    0 -0.26058646041E+00 -0.52106296509E+00  0.23594578677E+00  0.11291263575E+01  0.93800000000E+00 0.  1.
         22    1    1    2    0    0  0.19823396604E+00  0.39548612267E+00  0.28559224842E+01  0.28899825629E+01  0.00000000000E+00 0. -1.
</event>
<event>
 5    1  0.6776507E+001  0.1516751E+01  0.7818608E-02  0.3448991E+00
         11   -1    0    0    0    0  0.00000000000E+00  0.00000000000E+00  0.39999999674E+01  0.40000000000E+01  0.51100000000E-03 0. -1.
    9000002   -1    0    0    0    0 -0.00000000000E+00 -0.00000000000E+00  0.00000000000E+00  0.93800000000E+00  0.93800000000E+00 0.  1.
         11    1    1    2    0    0  0.79917070024E-01 -0.10359687517E+00  0.14205786245E+00  0.19313142684E+00  0.51100000000E-03 0. -1.
    9000002    1    1    2    0    0  0.11681606826E+00 -0.17822729005E+00  0.95355308117E-01  0.96661657109E+00  0.93800000000E+00 0.  1.
         22    1    1    2    0    0 -0.19673313828E+00  0.28182416522E+00  0.37625867968E+01  0.37782520021E+01  0.00000000000E+00 0. -1.
</event>
<event>
 5    1  0.6776507E+001  0.1599673E+01  0.7818608E-02  0.3353718E+00
         11   -1    0    0    0    0  0.00000000000E+00  0.00000000000E+00  0.39999999674E+01  0.40000000000E+01  0.51100000000E-03 0. -1.
    9000002   -1    0    0    0    0 -0.00000000000E+00 -0.00000000000E+00  0.00000000000E+00  0.93800000000E+00  0.93800000000E+00 0. -1.
         11    1    1    2    0    0  0.12485424590E+00  0.64764512360E-01  0.12973936504E+01  0.13049956207E+01  0.51100000000E-03 0. -1.
    9000002    1    1    2    0    0 -0.36739058615E+00 -0.19560377925E+00  0.11710394515E+00  0.10328572095E+01  0.93800000000E+00 0. -1.
         22    1    1    2    0    0  0.24253634024E+00  0.13083926689E+00  0.25855023718E+01  0.26001471698E+01  0.00000000000E+00 0. -1.
</event>
<event>
 5    1  0.6776507E+001  0.1599677E+01  0.7818608E-02  0.3353715E+00
         11   -1    0    0    0    0  0.00000000000E+00  0.00000000000E+00  0.39999999674E+01  0.40000000000E+01  0.51100000000E-03 0.  1.
    9000002   -1    0    0    0    0 -0.00000000000E+00 -0.00000000000E+00  0.00000000000E+00  0.93800000000E+00  0.93800000000E+00 0. -1.
         11    1    1    2    0    0 -0.13181542509E+00  0.39767334971E-01  0.14596749822E+01  0.14661541740E+01  0.51100000000E-03 0.  1.
    9000002    1    1    2    0    0  0.35499855421E+00 -0.10607153235E+00  0.92260074419E-01  0.10127344493E+01  0.93800000000E+00 0. -1.
         22    1    1    2    0    0 -0.22318312912E+00  0.66304197374E-01  0.24480649108E+01  0.24591113767E+01  0.00000000000E+00 0.  1.
</event>
<event>
 5    1  0.8214334E+001  0.1599565E+01  0.7818608E-02  0.3353836E+00
         11   -1    0    0    0    0  0.00000000000E+00  0.00000000000E+00  0.39999999674E+01  0.40000000000E+01  0.51100000000E-03 0. -1.
    9000002   -1    0    0    0    0 -0.00000000000E+00 -0.00000000000E+00  0.00000000000E+00  0.93800000000E+00  0.93800000000E+00 0.  1.
         11    1    1    2    0    0 -0.93856689926E-01 -0.69769765511E-01  0.14095805297E+01  0.14144237092E+01  0.51100000000E-03 0. -1.
    9000002    1    1    2    0    0  0.29436322570E+00  0.18759487023E+00  0.81777796608E-01  0.10041778488E+01  0.93800000000E+00 0.  1.
         22    1    1    2    0    0 -0.20050653578E+00 -0.11782510472E+00  0.25086416411E+01  0.25193984420E+01  0.00000000000E+00 0. -1.
</event>
<event>
 5    1  0.6776507E+001  0.1583894E+01  0.7818608E-02  0.3371032E+00
         11   -1    0    0    0    0  0.00000000000E+00  0.00000000000E+00  0.39999999674E+01  0.40000000000E+01  0.51100000000E-03 0.  1.
    9000002   -1    0    0    0    0 -0.00000000000E+00 -0.00000000000E+00  0.00000000000E+00  0.93800000000E+00  0.93800000000E+00 0.  1.
         11    1    1    2    0    0  0.65620934771E+00 -0.30112209399E+00  0.10868383506E+01  0.13048000172E+01  0.51100000000E-03 0.  1.
    9000002    1    1    2    0    0 -0.11760425180E+01  0.38518133666E+00  0.16557458978E+01  0.22699733796E+01  0.93800000000E+00 0.  1.
         22    1    1    2    0    0  0.51983317025E+00 -0.84059242669E-01  0.12574157190E+01  0.13632266032E+01  0.00000000000E+00 0. -1.
</event>
<event>
 5    1  0.6776507E+001  0.1539989E+01  0.7818608E-02  0.3421188E+00
         11   -1    0    0    0    0  0.00000000000E+00  0.00000000000E+00  0.39999999674E+01  0.40000000000E+01  0.51100000000E-03 0.  1.
    9000002   -1    0    0    0    0 -0.00000000000E+00 -0.00000000000E+00  0.00000000000E+00  0.93800000000E+00  0.93800000000E+00 0. -1.
         11    1    1    2    0    0 -0.19074252326E+00  0.18287371277E+00  0.11846791371E+01  0.12137917548E+01  0.51100000000E-03 0.  1.
    9000002    1    1    2    0    0 -0.10006618121E+00 -0.91634878682E-01  0.57402295818E-01  0.94949945507E+00  0.93800000000E+00 0. -1.
         22    1    1    2    0    0  0.29080870447E+00 -0.91238834092E-01  0.27579185345E+01  0.27747087902E+01  0.00000000000E+00 0.  1.
</event>
<event>
 5    1  0.6776507E+001  0.1599676E+01  0.7818608E-02  0.3353715E+00
         11   -1    0    0    0    0  0.00000000000E+00  0.00000000000E+00  0.39999999674E+01  0.40000000000E+01  0.51100000000E-03 0.  1.
    9000002   -1    0    0    0    0 -0.00000000000E+00 -0.00000000000E+00  0.00000000000E+00  0.93800000000E+00  0.93800000000E+00 0. -1.
         11    1    1    2    0    0 -0.64532024219E-01  0.94290815169E-01  0.10685899667E+01  0.10746813100E+01  0.51100000000E-03 0.  1.
    9000002    1    1    2    0    0  0.23588041088E+00 -0.33947614715E+00  0.11546713761E+00  0.10315329770E+01  0.93800000000E+00 0. -1.
         22    1    1    2    0    0 -0.17134838666E+00  0.24518533198E+00  0.28159428631E+01  0.28317857130E+01  0.00000000000E+00 0.  1.
</event>
<event>
 5    1  0.6776507E+001  0.1599673E+01  0.7818608E-02  0.3353718E+00
         11   -1    0    0    0    0  0.00000000000E+00  0.00000000000E+00  0.39999999674E+01  0.40000000000E+01  0.51100000000E-03 0. -1.
    9000002   -1    0    0    0    0 -0.00000000000E+00 -0.00000000000E+00  0.00000000000E+00  0.93800000000E+00  0.93800000000E+00 0.  1.
         11    1    1    2    0    0 -0.12361892394E+00  0.98062127873E-02  0.11985353812E+01  0.12049336584E+01  0.51100000000E-03 0. -1.
    9000002    1    1    2    0    0  0.39724348759E+00 -0.37751947401E-01  0.10739228262E+00  0.10249900977E+01  0.93800000000E+00 0.  1.
         22    1    1    2    0    0 -0.27362456365E+00  0.27945734614E-01  0.26940723036E+01  0.27080762439E+01  0.00000000000E+00 0. -1.
</event>
<event>
 5    1  0.6776507E+001  0.1599677E+01  0.7818608E-02  0.3353714E+00
         11   -1    0    0    0    0  0.00000000000E+00  0.00000000000E+00  0.39999999674E+01  0.40000000000E+01  0.51100000000E-03 0. -1.
    9000002   -1    0    0    0    0 -0.00000000000E+00 -0.00000000000E+00  0.00000000000E+00  0.93800000000E+00  0.93800000000E+00 0.  1.
         11    1    1    2    0    0  0.11004787498E+00  0.10227501135E+00  0.14866248101E+01  0.14941968745E+01  0.51100000000E-03 0. -1.
    9000002    1    1    2    0    0 -0.28950971783E+00 -0.26657275838E+00  0.10438214045E+00  0.10225539318E+01  0.93800000000E+00 0.  1.
         22    1    1    2    0    0  0.17946184285E+00  0.16429774703E+00  0.24089930168E+01  0.24212491936E+01  0.00000000000E+00 0. -1.
</event>
<event>
 5    1  0.6776507E+001  0.1599677E+01  0.7818608E-02  0.3353714E+00
         11   -1    0    0    0    0  0.00000000000E+00  0.00000000000E+00  0.39999999674E+01  0.40000000000E+01  0.51100000000E-03 0.  1.
    9000002   -1    0    0    0    0 -0.00000000000E+00 -0.00000000000E+00  0.00000000000E+00  0.93800000000E+00  0.93800000000E+00 0. -1.
         11    1    1    2    0    0 -0.80436804081E-01 -0.11247893255E+00  0.12787984288E+01  0.12862531914E+01  0.51100000000E-03 0.  1.
    9000002    1    1    2    0    0  0.24336740313E+00  0.33955048577E+00  0.11799463864E+00  0.10335806500E+01  0.93800000000E+00 0. -1.
         22    1    1    2    0    0 -0.16293059905E+00 -0.22707155322E+00  0.26032068999E+01  0.26181661586E+01  0.00000000000E+00 0.  1.
</event>
<event>
 5    1  0.6776507E+001  0.1597264E+01  0.7818608E-02  0.3356338E+00
         11   -1    0    0    0    0  0.00000000000E+00  0.00000000000E+00  0.39999999674E+01  0.40000000000E+01  0.51100000000E-03 0. -1.
    9000002   -1    0    0    0    0 -0.00000000000E+00 -0.00000000000E+00  0.00000000000E+00  0.93800000000E+00  0.93800000000E+00 0. -1.
         11    1    1    2    0    0 -0.92308482604E-02 -0.26902601685E-02  0.20574396021E-01  0.22715918472E-01  0.51100000000E-03 0. -1.
    9000002    1    1    2    0    0  0.27292838186E+00 -0.25925323992E+00  0.97280441993E-01  0.10153864429E+01  0.93800000000E+00 0. -1.
         22    1    1    2    0    0 -0.26369753360E+00  0.26194350009E+00  0.38821451293E+01  0.38998976386E+01  0.00000000000E+00 0. -1.
</event>
<event>
 5    1  0.6776507E+001  0.1599675E+01  0.7818608E-02  0.3353716E+00
         11   -1    0    0    0    0  0.00000000000E+00  0.00000000000E+00  0.39999999674E+01  0.40000000000E+01  0.51100000000E-03 0.  1.
    9000002   -1    0    0    0    0 -0.00000000000E+00 -0.00000000000E+00  0.00000000000E+00  0.93800000000E+00  0.93800000000E+00 0.  1.
         11    1    1    2    0    0  0.43771275382E-01  0.87335498875E-01  0.92786749521E+00  0.93299612202E+00  0.51100000000E-03 0.  1.
    9000002    1    1    2    0    0 -0.18122149298E+00 -0.37059896784E+00  0.11498262134E+00  0.10311400621E+01  0.93800000000E+00 0.  1.
         22    1    1    2    0    0  0.13745021760E+00  0.28326346897E+00  0.29571498508E+01  0.29738638159E+01  0.00000000000E+00 0.  1.
</event>
<event>
 5    1  0.6776507E+001  0.1595552E+01  0.7818608E-02  0.3358206E+00
         11   -1    0    0    0    0  0.00000000000E+00  0.00000000000E+00  0.39999999674E+01  0.40000000000E+01  0.51100000000E-03 0. -1.
    9000002   -1    0    0    0    0 -0.00000000000E+00 -0.00000000000E+00  0.00000000000E+00  0.93800000000E+00  0.93800000000E+00 0.  1.
         11    1    1    2    0    0  0.84167960519E-01  0.21188858651E+00  0.13186764593E+01  0.13382409664E+01  0.51100000000E-03 0. -1.
    9000002    1    1    2    0    0 -0.59778362553E-01 -0.50483502483E+00  0.18091523602E+00  0.10821303884E+01  0.93800000000E+00 0.  1.
         22    1    1    2    0    0 -0.24389597965E-01  0.29294643832E+00  0.25004082721E+01  0.25176286452E+01  0.00000000000E+00 0. -1.
</event>
<event>
 5    1  0.6776507E+001  0.1599294E+01  0.7818608E-02  0.3354130E+00
         11   -1    0    0    0    0  0.00000000000E+00  0.00000000000E+00  0.39999999674E+01  0.40000000000E+01  0.51100000000E-03 0. -1.
    9000002   -1    0    0    0    0 -0.00000000000E+00 -0.00000000000E+00  0.00000000000E+00  0.93800000000E+00  0.93800000000E+00 0. -1.
         11    1    1    2    0    0 -0.64506782339E-01  0.97152452382E-01  0.78034324978E+00  0.78900923478E+00  0.51100000000E-03 0. -1.
    9000002    1    1    2    0    0  0.28244442677E+00 -0.55276096994E+00  0.27045051553E+00  0.11568522055E+01  0.93800000000E+00 0. -1.
         22    1    1    2    0    0 -0.21793764443E+00  0.45560851756E+00  0.29492062020E+01  0.29921385597E+01  0.00000000000E+00 0. -1.
</event>
<event>
 5    1  0.8344588E+001  0.1589446E+01  0.7818608E-02  0.3364898E+00
         11   -1    0    0    0    0  0.00000000000E+00  0.00000000000E+00  0.39999999674E+01  0.40000000000E+01  0.51100000000E-03 0.  1.
    9000002   -1    0    0    0    0 -0.00000000000E+00 -0.00000000000E+00  0.00000000000E+00  0.93800000000E+00  0.93800000000E+00 0.  1.
         11    1    1    2    0    0  0.74973406937E-02  0.60063969738E-01  0.13784786041E+01  0.13798070205E+01  0.51100000000E-03 0.  1.
    9000002    1    1    2    0    0  0.20773755382E+00  0.69296716774E-01  0.39547006348E-01  0.96403573167E+00  0.93800000000E+00 0.  1.
         22    1    1    2    0    0 -0.21523489451E+00 -0.12936068651E+00  0.25819743569E+01  0.25941572479E+01  0.00000000000E+00 0.  1.
</event>
<event>
 5    1  0.6776507E+001  0.1599644E+01  0.7818608E-02  0.3353749E+00
         11   -1    0    0    0    0  0.00000000000E+00  0.00000000000E+00  0.39999999674E+01  0.40000000000E+01  0.51100000000E-03 0.  1.
    9000002   -1    0    0    0    0 -0.00000000000E+00 -0.00000000000E+00  0.00000000000E+00  0.93800000000E+00  0.93800000000E+00 0.  1.
         11    1    1    2    0    0  0.12477752862E-01 -0.16236848915E-02  0.11974146626E+00  0.12040187097E+00  0.51100000000E-03 0.  1.
    9000002    1    1    2    0    0 -0.44546944282E+00 -0.96719027115E-02  0.13478347578E+00  0.10471614754E+01  0.93800000000E+00 0.  1.
         22    1    1    2    0    0  0.43299168996E+00  0.11295587603E-01  0.37454750253E+01  0.37704366536E+01  0.00000000000E+00 0.  1.
</event>
<event>
 5    1  0.6776507E+001  0.1596601E+01  0.7818608E-02  0.3357061E+00
         11   -1    0    0    0    0  0.00000000000E+00  0.00000000000E+00  0.39999999674E+01  0.40000000000E+01  0.51100000000E-03 0.  1.
    9000002   -1    0    0    0    0 -0.00000000000E+00 -0.00000000000E+00  0.00000000000E+00  0.93800000000E+00  0.93800000000E+00 0. -1.
         11    1    1    2    0    0  0.12533614887E+00 -0.26909744277E-01  0.11914086314E+01  0.11982854721E+01  0.51100000000E-03 0.  1.
    9000002    1    1    2    0    0 -0.29403496281E+00  0.25237375271E+00  0.10366043406E+00  0.10201659453E+01  0.93800000000E+00 0. -1.
         22    1    1    2    0    0  0.16869881394E+00 -0.22546400843E+00  0.27049309019E+01  0.27195485826E+01  0.00000000000E+00 0.  1.
</event>
<event>
 5    1  0.6776507E+001  0.1496348E+01  0.7818608E-02  0.3474166E+00
         11   -1    0    0    0    0  0.00000000000E+00  0.00000000000E+00  0.39999999674E+01  0.40000000000E+01  0.51100000000E-03 0. -1.
    9000002   -1    0    0    0    0 -0.00000000000E+00 -0.00000000000E+00  0.00000000000E+00  0.93800000000E+00  0.93800000000E+00 0. -1.
         11    1    1    2    0    0  0.13127094041E+00  0.45895971233E+00  0.10360270827E+01  0.11407140108E+01  0.51100000000E-03 0. -1.
    9000002    1    1    2    0    0  0.10682638828E+00 -0.11992504017E-01  0.17190561609E+00  0.95966204376E+00  0.93800000000E+00 0. -1.
         22    1    1    2    0    0 -0.23809732869E+00 -0.44696720831E+00  0.27920672686E+01  0.28376239454E+01  0.00000000000E+00 0. -1.
</event>
<event>
 5    1  0.6776507E+001  0.1599673E+01  0.7818608E-02  0.3353718E+00
         11   -1    0    0    0    0  0.00000000000E+00  0.00000000000E+00  0.39999999674E+01  0.40000000000E+01  0.51100000000E-03 0.  1.
    9000002   -1    0    0    0    0 -0.00000000000E+00 -0.00000000000E+00  0.00000000000E+00  0.93800000000E+00  0.93800000000E+00 0. -1.
         11    1    1    2    0    0  0.22144570632E-01  0.46224140640E-02  0.23631796611E+00  0.23739880148E+00  0.51100000000E-03 0.  1.
    9000002    1    1    2    0    0 -0.35030515576E+00 -0.69919971366E-01  0.85631014962E-01  0.10073624845E+01  0.93800000000E+00 0. -1.
         22    1    1    2    0    0  0.32816058512E+00  0.65297557302E-01  0.36780509863E+01  0.36932387140E+01  0.00000000000E+00 0.  1.
</event>
<event>
 5    1  0.6776507E+001  0.1599567E+01  0.7818608E-02  0.3353833E+00
         11   -1    0    0    0    0  0.00000000000E+00  0.00000000000E+00  0.39999999674E+01  0.40000000000E+01  0.51100000000E-03 0. -1.
    9000002   -1    0    0    0    0 -0.00000000000E+00 -0.00000000000E+00  0.00000000000E+00  0.93800000000E+00  0.93800000000E+00 0. -1.
         11    1    1    2    0    0  0.60062986278E-01  0.86244381750E-01  0.96894851669E+00  0.97463179962E+00  0.51100000000E-03 0. -1.
    9000002    1    1    2    0    0 -0.22976820263E+00 -0.30496698943E+00  0.98210880202E-01  0.10174908690E+01  0.93800000000E+00 0. -1.
         22    1    1    2    0    0  0.16970521636E+00  0.21872260768E+00  0.29328405705E+01  0.29458773313E+01  0.00000000000E+00 0. -1.
</event>
<event>
 5    1  0.6776507E+001  0.1511847E+01  0.7818608E-02  0.3454975E+00
         11   -1    0    0    0    0  0.00000000000E+00  0.00000000000E+00  0.39999999674E+01  0.40000000000E+01  0.51100000000E-03 0. -1.
    9000002   -1    0    0    0    0 -0.00000000000E+00 -0.00000000000E+00  0.00000000000E+00  0.93800000000E+00  0.93800000000E+00 0.  1.
         11    1    1    2    0    0  0.22909955478E-01 -0.19728475773E+00  0.36444782959E+00  0.41505255487E+00  0.51100000000E-03 0. -1.
    9000002    1    1    2    0    0 -0.32082835377E+00 -0.16857561481E+00  0.16326075166E+00  0.10187475858E+01  0.93800000000E+00 0.  1.
         22    1    1    2    0    0  0.29791839829E+00  0.36586037254E+00  0.34722913861E+01  0.35041998594E+01  0.00000000000E+00 0. -1.
</event>
<event>
 5    1  0.6776507E+001  0.1565369E+01  0.7818608E-02  0.3391830E+00
         11   -1    0    0    0    0  0.00000000000E+00  0.00000000000E+00  0.39999999674E+01  0.40000000000E+01  0.51100000000E-03 0.  1.
    9000002   -1    0    0    0    0 -0.00000000000E+00 -0.00000000000E+00  0.00000000000E+00  0.93800000000E+00  0.93800000000E+00 0.  1.
         11    1    1    2    0    0  0.71399427594E-01 -0.12805292719E+00  0.11140432323E+01  0.11236494182E+01  0.51100000000E-03 0.  1.
    9000002    1    1    2    0    0  0.39423530961E+00  0.16465058597E+00  0.15328680535E+00  0.10420518891E+01  0.93800000000E+00 0.  1.
         22    1    1    2    0    0 -0.46563473721E+00 -0.36597658780E-01  0.27326699297E+01  0.27722986928E+01  0.00000000000E+00 0.  1.
</event>
<event>
 5    1  0.8186632E+001  0.1535906E+01  0.7818608E-02  0.3426008E+00
         11   -1    0    0    0    0  0.00000000000E+00  0.00000000000E+00  0.39999999674E+01  0.40000000000E+01  0.51100000000E-03 0. -1.
    9000002   -1    0    0    0    0 -0.00000000000E+00 -0.00000000000E+00  0.00000000000E+00  0.93800000000E+00  0.93800000000E+00 0. -1.
         11    1    1    2    0    0  0.66316824887E-01 -0.28254209678E+00  0.13715441118E+01  0.14019135028E+01  0.51100000000E-03 0. -1.
    9000002    1    1    2    0    0  0.87213975670E-01  0.27113720416E-01  0.53511963093E-01  0.94395389802E+00  0.93800000000E+00 0. -1.
         22    1    1    2    0    0 -0.15353080056E+00  0.25542837637E+00  0.25749438925E+01  0.25921325992E+01  0.00000000000E+00 0. -1.
</event>
<event>
 5    1  0.6776507E+001  0.1526705E+01  0.7818608E-02  0.3436970E+00
         11   -1    0    0    0    0  0.00000000000E+00  0.00000000000E+00  0.39999999674E+01  0.40000000000E+01  0.51100000000E-03 0.  1.
    9000002   -1    0    0    0    0 -0.00000000000E+00 -0.00000000000E+00  0.00000000000E+00  0.93800000000E+00  0.93800000000E+00 0.  1.
         11    1    1    2    0    0  0.16154233957E+00  0.22777109224E+00  0.12213647436E+01  0.12528797612E+01  0.51100000000E-03 0.  1.
    9000002    1    1    2    0    0 -0.24505490548E+00  0.19810383009E+00  0.12633381807E+00  0.99754762682E+00  0.93800000000E+00 0.  1.
         22    1    1    2    0    0  0.83512565906E-01 -0.42587492233E+00  0.26523014057E+01  0.26875726120E+01  0.00000000000E+00 0.  1.
</event>
<event>
 5    1  0.6776507E+001  0.1580865E+01  0.7818608E-02  0.3374397E+00
         11   -1    0    0    0    0  0.00000000000E+00  0.00000000000E+00  0.39999999674E+01  0.40000000000E+01  0.51100000000E-03 0. -1.
    9000002   -1    0    0    0    0 -0.00000000000E+00 -0.00000000000E+00  0.00000000000E+00  0.93800000000E+00  0.93800000000E+00 0. -1.
         11    1    1    2    0    0 -0.67484314565E-01  0.13859316275E+00  0.13080892381E+01  0.13171408101E+01  0.51100000000E-03 0. -1.
    9000002    1    1    2    0    0  0.22425704640E+00  0.50154351162E-01  0.49420597378E-01  0.96700210819E+00  0.93800000000E+00 0. -1.
         22    1    1    2    0    0 -0.15677273183E+00 -0.18874751391E+00  0.26424901318E+01  0.26538570818E+01  0.00000000000E+00 0. -1.
</event>
<event>
 5    1  0.6776507E+001  0.1599669E+01  0.7818608E-02  0.3353723E+00
         11   -1    0    0    0    0  0.00000000000E+00  0.00000000000E+00  0.39999999674E+01  0.40000000000E+01  0.51100000000E-03 0.  1.
    9000002   -1    0    0    0    0 -0.00000000000E+00 -0.00000000000E+00  0.00000000000E+00  0.93800000000E+00  0.93800000000E+00 0.  1.
         11    1    1    2    0    0  0.14538737201E+00 -0.25114104104E-01  0.13533328451E+01  0.13613516287E+01  0.51100000000E-03 0.  1.
    9000002    1    1    2    0    0 -0.41431102586E+00  0.80861239866E-01  0.12055373189E+00  0.10356492498E+01  0.93800000000E+00 0.  1.
         22    1    1    2    0    0  0.26892365385E+00 -0.55747135762E-01  0.25261133904E+01  0.25409991216E+01  0.00000000000E+00 0.  1.
</event>
<event>
 5    1  0.6776507E+001  0.1599571E+01  0.7818608E-02  0.3353829E+00
         11   -1    0    0    0    0  0.00000000000E+00  0.00000000000E+00  0.39999999674E+01  0.40000000000E+01  0.51100000000E-03 0.  1.
    9000002   -1    0    0    0    0 -0.00000000000E+00 -0.00000000000E+00  0.00000000000E+00  0.93800000000E+00  0.93800000000E+00 0.  1.
         11    1    1    2    0    0  0.27330751740E-02  0.36123468473E-01  0.48501228455E+00  0.48636360057E+00  0.51100000000E-03 0.  1.
    9000002    1    1    2    0    0 -0.46632814925E-01 -0.35294955892E+00  0.85128693945E-01  0.10068956774E+01  0.93800000000E+00 0.  1.
         22    1    1    2    0    0  0.43899739751E-01  0.31682609044E+00  0.34298589889E+01  0.34447407221E+01  0.00000000000E+00 0.  1.
</event>
<event>
 5    1  0.6776507E+001  0.1599676E+01  0.7818608E-02  0.3353716E+00
         11   -1    0    0    0    0  0.00000000000E+00  0.00000000000E+00  0.39999999674E+01  0.40000000000E+01  0.51100000000E-03 0. -1.
    9000002   -1    0    0    0    0 -0.00000000000E+00 -0.00000000000E+00  0.00000000000E+00  0.93800000000E+00  0.93800000000E+00 0.  1.
         11    1    1    2    0    0 -0.62873609502E-01  0.11979347112E-01  0.63315981742E+00  0.63638684072E+00  0.51100000000E-03 0. -1.
    9000002    1    1    2    0    0  0.38346360205E+00 -0.68829141102E-01  0.10224636193E+00  0.10208232478E+01  0.93800000000E+00 0.  1.
         22    1    1    2    0    0 -0.32058999255E+00  0.56849793990E-01  0.32645937880E+01  0.32807899115E+01  0.00000000000E+00 0. -1.
</event>
<event>
 5    1  0.6776507E+001  0.1598372E+01  0.7818608E-02  0.3355132E+00
         11   -1    0    0    0    0  0.00000000000E+00  0.00000000000E+00  0.39999999674E+01  0.40000000000E+01  0.51100000000E-03 0. -1.
    9000002   -1    0    0    0    0 -0.00000000000E+00 -0.00000000000E+00  0.00000000000E+00  0.93800000000E+00  0.93800000000E+00 0. -1.
         11    1    1    2    0    0  0.89939563500E-01 -0.15701286406E-01  0.81478941691E+00  0.81988884034E+00  0.51100000000E-03 0. -1.
    9000002    1    1    2    0    0 -0.58031209092E+00  0.47466058126E-01  0.23692654900E+00  0.11291560296E+01  0.93800000000E+00 0. -1.
         22    1    1    2    0    0  0.49037252742E+00 -0.31764771719E-01  0.29482840015E+01  0.29889551301E+01  0.00000000000E+00 0. -1.
</event>
<event>
 5    1  0.6776507E+001  0.1599677E+01  0.7818608E-02  0.3353714E+00
         11   -1    0    0    0    0  0.00000000000E+00  0.00000000000E+00  0.39999999674E+01  0.40000000000E+01  0.51100000000E-03 0.  1.
    9000002   -1    0    0    0    0 -0.00000000000E+00 -0.00000000000E+00  0.00000000000E+00  0.93800000000E+00  0.93800000000E+00 0.  1.
         11    1    1    2    0    0 -0.10174427679E+00  0.54276973088E-01  0.78925515126E+00  0.79763515631E+00  0.51100000000E-03 0. -1.
    9000002    1    1    2    0    0  0.48866708786E+00 -0.25837483015E+00  0.21115740261E+00  0.11090466736E+01  0.93800000000E+00 0.  1.
         22    1    1    2    0    0 -0.38692281107E+00  0.20409785706E+00  0.29995874135E+01  0.30313181701E+01  0.00000000000E+00 0.  1.
</event>
<event>
 5    1  0.6776507E+001  0.1599634E+01  0.7818608E-02  0.3353760E+00
         11   -1    0    0    0    0  0.00000000000E+00  0.00000000000E+00  0.39999999674E+01  0.40000000000E+01  0.51100000000E-03 0. -1.
    9000002   -1    0    0    0    0 -0.00000000000E+00 -0.00000000000E+00  0.00000000000E+00  0.93800000000E+00  0.93800000000E+00 0.  1.
         11    1    1    2    0    0 -0.26538231536E-01 -0.11086960096E+00  0.10266160379E+01  0.10329264720E+01  0.51100000000E-03 0. -1.
    9000002    1    1    2    0    0  0.96106263056E-01  0.44287642330E+00  0.13959077819E+00  0.10510497255E+01  0.93800000000E+00 0.  1.
         22    1    1    2    0    0 -0.69568031520E-01 -0.33200682234E+00  0.28337931513E+01  0.28540238025E+01  0.00000000000E+00 0. -1.
</event>
<event>
 5    1  0.6776507E+001  0.1593252E+01  0.7818608E-02  0.3360720E+00
         11   -1    0    0    0    0  0.00000000000E+00  0.00000000000E+00  0.39999999674E+01  0.40000000000E+01  0.51100000000E-03 0. -1.
    9000002   -1    0    0    0    0 -0.00000000000E+00 -0.00000000000E+00  0.00000000000E+00  0.93800000000E+00  0.93800000000E+00 0. -1.
         11    1    1    2    0    0  0.30341434543E-01 -0.36504618778E-01  0.44149232826E+00  0.44403707827E+00  0.51100000000E-03 0. -1.
    9000002    1    1    2    0    0 -0.24470809011E+00 -0.21673593240E+00  0.76593555525E-01  0.99627661144E+00  0.93800000000E+00 0. -1.
         22    1    1    2    0    0  0.21436665557E+00  0.25324055118E+00  0.34819140836E+01  0.34976863103E+01  0.00000000000E+00 0. -1.
</event>
<event>
 5    1  0.6776507E+001  0.1599660E+01  0.7818608E-02  0.3353732E+00
         11   -1    0    0    0    0  0.00000000000E+00  0.00000000000E+00  0.39999999674E+01  0.40000000000E+01  0.51100000000E-03 0.  1.
    9000002   -1    0    0    0    0 -0.00000000000E+00 -0.00000000000E+00  0.00000000000E+00  0.93800000000E+00  0.93800000000E+00 0.  1.
         11    1    1    2    0    0 -0.42396595248E-02 -0.80630042789E-01  0.71919295408E+00  0.72371123028E+00  0.51100000000E-03 0.  1.
    9000002    1    1    2    0    0  0.33921821784E-01  0.41782977840E+00  0.11884971974E+00  0.10342638298E+01  0.93800000000E+00 0.  1.
         22    1    1    2    0    0 -0.29682162259E-01 -0.33719973561E+00  0.31619572935E+01  0.31800249399E+01  0.00000000000E+00 0.  1.
</event>
<event>
 5    1  0.6776507E+001  0.1599357E+01  0.7818608E-02  0.3354061E+00
         11   -1    0    0    0    0  0.00000000000E+00  0.00000000000E+00  0.39999999674E+01  0.40000000000E+01  0.51100000000E-03 0.  1.
    9000002   -1    0    0    0    0 -0.00000000000E+00 -0.00000000000E+00  0.00000000000E+00  0.93800000000E+00  0.93800000000E+00 0.  1.
         11    1    1    2    0    0 -0.15531826685E+00 -0.83537289128E-01  0.14571212628E+01  0.14677550471E+01  0.51100000000E-03 0.  1.
    9000002    1    1    2    0    0  0.37381742657E+00  0.18369181404E+00  0.11754052664E+00  0.10330256175E+01  0.93800000000E+00 0.  1.
         22    1    1    2    0    0 -0.21849915972E+00 -0.10015452492E+00  0.24253381780E+01  0.24372193355E+01  0.00000000000E+00 0.  1.
</event>
<event>
 5    1  0.6776507E+001  0.1599607E+01  0.7818608E-02  0.3353790E+00
         11   -1    0    0    0    0  0.00000000000E+00  0.00000000000E+00  0.39999999674E+01  0.40000000000E+01  0.51100000000E-03 0.  1.
    9000002   -1    0    0    0    0 -0.00000000000E+00 -0.00000000000E+00  0.00000000000E+00  0.93800000000E+00  0.93800000000E+00 0. -1.
         11    1    1    2    0    0  0.16838662941E-02 -0.11830898713E-03  0.20261223501E-01  0.20337839154E-01  0.51100000000E-03 0.  1.
    9000002    1    1    2    0    0 -0.56981110903E+00  0.57305238011E-01  0.22760051835E+00  0.11223255260E+01  0.93800000000E+00 0. -1.
         22    1    1    2    0    0  0.56812724273E+00 -0.57186929023E-01  0.37521382255E+01  0.37953366349E+01  0.00000000000E+00 0.  1.
</event>
<event>
 5    1  0.6776507E+001  0.1599199E+01  0.7818608E-02  0.3354233E+00
         11   -1    0    0    0    0  0.00000000000E+00  0.00000000000E+00  0.39999999674E+01  0.40000000000E+01  0.51100000000E-03 0. -1.
    9000002   -1    0    0    0    0 -0.00000000000E+00 -0.00000000000E+00  0.00000000000E+00  0.93800000000E+00  0.93800000000E+00 0.  1.
         11    1    1    2    0    0 -0.10992235295E-02 -0.11878170127E-01  0.56428616999E-01  0.57677978080E-01  0.51100000000E-03 0. -1.
    9000002    1    1    2    0    0  0.70861951904E-01  0.38255831442E+00  0.10235767688E+00  0.10206338100E+01  0.93800000000E+00 0.  1.
         22    1    1    2    0    0 -0.69762728374E-01 -0.37068014429E+00  0.38412136735E+01  0.38596882119E+01  0.00000000000E+00 0. -1.
</event>
<event>
 5    1  0.6776507E+001  0.1599676E+01  0.7818608E-02  0.3353715E+00
         11   -1    0    0    0    0  0.00000000000E+00  0.00000000000E+00  0.39999999674E+01  0.40000000000E+01  0.51100000000E-03 0.  1.
    9000002   -1    0    0    0    0 -0.00000000000E+00 -0.00000000000E+00  0.00000000000E+00  0.93800000000E+00  0.93800000000E+00 0. -1.
         11    1    1    2    0    0  0.45356681921E-01 -0.59408046473E-01  0.56601382039E+00  0.57092771046E+00  0.51100000000E-03 0.  1.
    9000002    1    1    2    0    0 -0.31115021733E+00  0.40284295660E+00  0.17763896966E+00  0.10818948696E+01  0.93800000000E+00 0. -1.
         22    1    1    2    0    0  0.26579353541E+00 -0.34343491013E+00  0.32563471773E+01  0.32851774199E+01  0.00000000000E+00 0.  1.
</event>
<event>
 5    1  0.6776507E+001  0.1599669E+01  0.7818608E-02  0.3353723E+00
         11   -1    0    0    0    0  0.00000000000E+00  0.00000000000E+00  0.39999999674E+01  0.40000000000E+01  0.51100000000E-03 0.  1.
    9000002   -1    0    0    0    0 -0.00000000000E+00 -0.00000000000E+00  0.00000000000E+00  0.93800000000E+00  0.93800000000E+00 0.  1.
         11    1    1    2    0    0  0.12847032162E+00  0.74608559449E-01  0.11789857684E+01  0.11883092038E+01  0.51100000000E-03 0.  1.
    9000002    1    1    2    0    0 -0.42581782320E+00 -0.24941784734E+00  0.16653693192E+00  0.10728973067E+01  0.93800000000E+00 0.  1.
         22    1    1    2    0    0  0.29734750157E+00  0.17480928789E+00  0.26544772671E+01  0.26767934895E+01  0.00000000000E+00 0.  1.
</event>
<event>
 5    1  0.6776507E+001  0.1599674E+01  0.7818608E-02  0.3353717E+00
         11   -1    0    0    0    0  0.00000000000E+00  0.00000000000E+00  0.39999999674E+01  0.40000000000E+01  0.51100000000E-03 0. -1.
    9000002   -1    0    0    0    0 -0.00000000000E+00 -0.00000000000E+00  0.00000000000E+00  0.93800000000E+00  0.93800000000E+00 0. -1.
         11    1    1    2    0    0 -0.51718599340E-01  0.23799092691E+00  0.14184086464E+01  0.14391656764E+01  0.51100000000E-03 0. -1.
    9000002    1    1    2    0    0  0.14022238037E+00 -0.62454476758E+00  0.28844166631E+00  0.11716488713E+01  0.93800000000E+00 0. -1.
         22    1    1    2    0    0 -0.88503781030E-01  0.38655384067E+00  0.22931496547E+01  0.23271854524E+01  0.00000000000E+00 0. -1.
</event>
<event>
 5    1  0.6776507E+001  0.1596160E+01  0.7818608E-02  0.3357542E+00
         11   -1    0    0    0    0  0.00000000000E+00  0.00000000000E+00  0.39999999674E+01  0.40000000000E+01  0.51100000000E-03 0.  1.
    9000002   -1    0    0    0    0 -0.00000000000E+00 -0.00000000000E+00  0.00000000000E+00  0.93800000000E+00  0.93800000000E+00 0. -1.
         11    1    1    2    0    0 -0.28699387630E-01 -0.11541438225E+00  0.14588334634E+01  0.14636732797E+01  0.51100000000E-03 0.  1.
    9000002    1    1    2    0    0  0.18362644326E+00  0.45134125595E+00  0.16532995110E+00  0.10698624177E+01  0.93800000000E+00 0. -1.
         22    1    1    2    0    0 -0.15492705563E+00 -0.33592687370E+00  0.23758365528E+01  0.24044643027E+01  0.00000000000E+00 0.  1.
</event>
<event>
 5    1  0.6776507E+001  0.1599674E+01  0.7818608E-02  0.3353717E+00
         11   -1    0    0    0    0  0.00000000000E+00  0.00000000000E+00  0.39999999674E+01  0.40000000000E+01  0.51100000000E-03 0.  1.
    9000002   -1    0    0    0    0 -0.00000000000E+00 -0.00000000000E+00  0.00000000000E+00  0.93800000000E+00  0.93800000000E+00 0. -1.
         11    1    1    2    0    0  0.13134704184E+00  0.24933399940E-01  0.85684370677E+00  0.86721111547E+00  0.51100000000E-03 0.  1.
    9000002    1    1    2    0    0 -0.58026932615E+00 -0.11465053262E+00  0.24365811646E+00  0.11353724117E+01  0.93800000000E+00 0. -1.
         22    1    1    2    0    0  0.44892228431E+00  0.89717132679E-01  0.28994981441E+01  0.29354164728E+01  0.00000000000E+00 0.  1.
</event>
<event>
 5    1  0.6776507E+001  0.1599650E+01  0.7818608E-02  0.3353743E+00
         11   -1    0    0    0    0  0.00000000000E+00  0.00000000000E+00  0.39999999674E+01  0.40000000000E+01  0.51100000000E-03 0.  1.
    9000002   -1    0    0    0    0 -0.00000000000E+00 -0.00000000000E+00  0.00000000000E+00  0.93800000000E+00  0.93800000000E+00 0.  1.
         11    1    1    2    0    0  0.15500450020E-01  0.92361313790E-02  0.15802808962E+00  0.15905567674E+00  0.51100000000E-03 0.  1.
    9000002    1    1    2    0    0 -0.34405295076E+00 -0.27410780928E+00  0.13125742913E+00  0.10443084012E+01  0.93800000000E+00 0.  1.
         22    1    1    2    0    0  0.32855250074E+00  0.26487167790E+00  0.37107144486E+01  0.37346359221E+01  0.00000000000E+00 0.  1.
</event>
<event>
 5    1  0.6776507E+001  0.1599643E+01  0.7818608E-02  0.3353751E+00
         11   -1    0    0    0    0  0.00000000000E+00  0.00000000000E+00  0.39999999674E+01  0.40000000000E+01  0.51100000000E-03 0. -1.
    9000002   -1    0    0    0    0 -0.00000000000E+00 -0.00000000000E+00  0.00000000000E+00  0.93800000000E+00  0.93800000000E+00 0.  1.
         11    1    1    2    0    0  0.51620011022E-01  0.41849820101E-01  0.75407087523E+00  0.75699351316E+00  0.51100000000E-03 0. -1.
    9000002    1    1    2    0    0 -0.28875826503E+00 -0.23611522049E+00  0.93562842127E-01  0.10137700619E+01  0.93800000000E+00 0.  1.
         22    1    1    2    0    0  0.23713825401E+00  0.19426540039E+00  0.31523662500E+01  0.31672364249E+01  0.00000000000E+00 0. -1.
</event>
<event>
 5    1  0.6776507E+001  0.1598738E+01  0.7818608E-02  0.3354734E+00
         11   -1    0    0    0    0  0.00000000000E+00  0.00000000000E+00  0.39999999674E+01  0.40000000000E+01  0.51100000000E-03 0.  1.
    9000002   -1    0    0    0    0 -0.00000000000E+00 -0.00000000000E+00  0.00000000000E+00  0.93800000000E+00  0.93800000000E+00 0.  1.
         11    1    1    2    0    0  0.20634521308E-01 -0.46803530881E-02  0.10326646762E+00  0.10541306196E+00  0.51100000000E-03 0.  1.
    9000002    1    1    2    0    0 -0.33143340851E+00  0.24134086302E+00  0.11431733148E+00  0.10300514398E+01  0.93800000000E+00 0.  1.
         22    1    1    2    0    0  0.31079888720E+00 -0.23666050993E+00  0.37824161683E+01  0.38025354982E+01  0.00000000000E+00 0.  1.
</event>
<event>
 5    1  0.6776507E+001  0.1578311E+01  0.7818608E-02  0.3377245E+00
         11   -1    0    0    0    0  0.00000000000E+00  0.00000000000E+00  0.39999999674E+01  0.40000000000E+01  0.51100000000E-03 0.  1.
    9000002   -1    0    0    0    0 -0.00000000000E+00 -0.00000000000E+00  0.00000000000E+00  0.93800000000E+00  0.93800000000E+00 0.  1.
         11    1    1    2    0    0  0.96516533566E-01  0.21209518406E+00  0.47303129195E+00  0.52731268962E+00  0.51100000000E-03 0.  1.
    9000002    1    1    2    0    0 -0.31665636704E-01 -0.88492616029E+00  0.62936241835E+00  0.14352832736E+01  0.93800000000E+00 0.  1.
         22    1    1    2    0    0 -0.64850896862E-01  0.67283097623E+00  0.28976062571E+01  0.29754040368E+01  0.00000000000E+00 0.  1.
</event>
<event>
 5    1  0.6776507E+001  0.1599638E+01  0.7818608E-02  0.3353756E+00
         11   -1    0    0    0    0  0.00000000000E+00  0.00000000000E+00  0.39999999674E+01  0.40000000000E+01  0.51100000000E-03 0. -1.
    9000002   -1    0    0    0    0 -0.00000000000E+00 -0.00000000000E+00  0.00000000000E+00  0.93800000000E+00  0.93800000000E+00 0.  1.
         11    1    1    2    0    0  0.54183244470E-01 -0.79784562274E-01  0.64612095273E+00  0.65327937900E+00  0.51100000000E-03 0. -1.
    9000002    1    1    2    0    0 -0.34485757932E+00  0.44909009773E+00  0.22217864290E+00  0.11179517052E+01  0.93800000000E+00 0.  1.
         22    1    1    2    0    0  0.29067433485E+00 -0.36930553546E+00  0.31317003717E+01  0.31667689158E+01  0.00000000000E+00 0. -1.
</event>
<event>
 5    1  0.6776507E+001  0.1591782E+01  0.7818608E-02  0.3362332E+00
         11   -1    0    0    0    0  0.00000000000E+00  0.00000000000E+00  0.39999999674E+01  0.40000000000E+01  0.51100000000E-03 0.  1.
    9000002   -1    0    0    0    0 -0.00000000000E+00 -0.00000000000E+00  0.00000000000E+00  0.93800000000E+00  0.93800000000E+00 0. -1.
         11    1    1    2    0    0 -0.28462873195E-01  0.72130499641E-02  0.47551980987E-01  0.55889312548E-01  0.51100000000E-03 0.  1.
    9000002    1    1    2    0    0  0.32025581228E+00 -0.26531196892E+00  0.12357856519E+00  0.10334746673E+01  0.93800000000E+00 0. -1.
         22    1    1    2    0    0 -0.29179293908E+00  0.25809891895E+00  0.38288694212E+01  0.38486360202E+01  0.00000000000E+00 0.  1.
</event>
<event>
 5    1  0.6776507E+001  0.1599069E+01  0.7818608E-02  0.3354374E+00
         11   -1    0    0    0    0  0.00000000000E+00  0.00000000000E+00  0.39999999674E+01  0.40000000000E+01  0.51100000000E-03 0. -1.
    9000002   -1    0    0    0    0 -0.00000000000E+00 -0.00000000000E+00  0.00000000000E+00  0.93800000000E+00  0.93800000000E+00 0.  1.
         11    1    1    2    0    0  0.11615628704E-01  0.13329587295E-01  0.15356080632E+00  0.15457614010E+00  0.51100000000E-03 0. -1.
    9000002    1    1    2    0    0 -0.35808212431E-02 -0.36568114311E+00  0.90324879010E-01  0.10108106175E+01  0.93800000000E+00 0.  1.
         22    1    1    2    0    0 -0.80348074607E-02  0.35235155582E+00  0.37561142820E+01  0.37726132424E+01  0.00000000000E+00 0. -1.
</event>
<event>
 5    1  0.6776507E+001  0.1583412E+01  0.7818608E-02  0.3371566E+00
         11   -1    0    0    0    0  0.00000000000E+00  0.00000000000E+00  0.39999999674E+01  0.40000000000E+01  0.51100000000E-03 0.  1.
    9000002   -1    0    0    0    0 -0.00000000000E+00 -0.00000000000E+00  0.00000000000E+00  0.93800000000E+00  0.93800000000E+00 0. -1.
         11    1    1    2    0    0 -0.39686868089E-01 -0.65146326294E-01  0.20165365884E+00  0.21560044196E+00  0.51100000000E-03 0.  1.
    9000002    1    1    2    0    0 -0.28240757645E+00  0.41462284105E+00  0.18714984403E+00  0.10800625925E+01  0.93800000000E+00 0. -1.
         22    1    1    2    0    0  0.32209444454E+00 -0.34947651475E+00  0.36111964645E+01  0.36423369656E+01  0.00000000000E+00 0.  1.
</event>
<event>
 5    1  0.6776507E+001  0.1505292E+01  0.7818608E-02  0.3463039E+00
         11   -1    0    0    0    0  0.00000000000E+00  0.00000000000E+00  0.39999999674E+01  0.40000000000E+01  0.51100000000E-03 0.  1.
    9000002   -1    0    0    0    0 -0.00000000000E+00 -0.00000000000E+00  0.00000000000E+00  0.93800000000E+00  0.93800000000E+00 0. -1.
         11    1    1    2    0    0  0.28205436224E+00 -0.96565648496E-01  0.78883027174E+00  0.84328704867E+00  0.51100000000E-03 0.  1.
    9000002    1    1    2    0    0  0.74428701422E-01  0.26637966210E+00  0.12789292319E+00  0.98625471141E+00  0.93800000000E+00 0. -1.
         22    1    1    2    0    0 -0.35648306366E+00 -0.16981401361E+00  0.30832767724E+01  0.31084582399E+01  0.00000000000E+00 0.  1.
</event>
<event>
 5    1  0.6776507E+001  0.1599673E+01  0.7818608E-02  0.3353719E+00
         11   -1    0    0    0    0  0.00000000000E+00  0.00000000000E+00  0.39999999674E+01  0.40000000000E+01  0.51100000000E-03 0. -1.
    9000002   -1    0    0    0    0 -0.00000000000E+00 -0.00000000000E+00  0.00000000000E+00  0.93800000000E+00  0.93800000000E+00 0.  1.
         11    1    1    2    0    0  0.65352315317E-02 -0.13666491794E+00  0.10734282297E+01  0.10821129491E+01  0.51100000000E-03 0.  1.
    9000002    1    1    2    0    0 -0.31217154396E-01  0.48678490738E+00  0.16255453685E+00  0.10696737980E+01  0.93800000000E+00 0.  1.
         22    1    1    2    0    0  0.24681922864E-01 -0.35011998943E+00  0.27640172008E+01  0.27862132529E+01  0.00000000000E+00 0. -1.
</event>
<event>
 5    1  0.6776507E+001  0.1537915E+01  0.7818608E-02  0.3423634E+00
         11   -1    0    0    0    0  0.00000000000E+00  0.00000000000E+00  0.39999999674E+01  0.40000000000E+01  0.51100000000E-03 0.  1.
    9000002   -1    0    0    0    0 -0.00000000000E+00 -0.00000000000E+00  0.00000000000E+00  0.93800000000E+00  0.93800000000E+00 0.  1.
         11    1    1    2    0    0  0.24012153873E+00  0.16849121120E+00  0.12962130280E+01  0.13289906383E+01  0.51100000000E-03 0.  1.
    9000002    1    1    2    0    0  0.23388554893E-01 -0.10679353902E+00  0.54484915199E-01  0.94591991757E+00  0.93800000000E+00 0.  1.
         22    1    1    2    0    0 -0.26351009363E+00 -0.61697672176E-01  0.26493020242E+01  0.26630894441E+01  0.00000000000E+00 0. -1.
</event>
<event>
 5    1  0.6776507E+001  0.1597781E+01  0.7818608E-02  0.3355776E+00
         11   -1    0    0    0    0  0.00000000000E+00  0.00000000000E+00  0.39999999674E+01  0.40000000000E+01  0.51100000000E-03 0.  1.
    9000002   -1    0    0    0    0 -0.00000000000E+00 -0.00000000000E+00  0.00000000000E+00  0.93800000000E+00  0.93800000000E+00 0. -1.
         11    1    1    2    0    0 -0.11614657111E+00 -0.98238912519E-01  0.13531444342E+01  0.13616684731E+01  0.51100000000E-03 0.  1.
    9000002    1    1    2    0    0  0.35651908827E+00  0.14095014513E+00  0.10049119391E+00  0.10182903730E+01  0.93800000000E+00 0. -1.
         22    1    1    2    0    0 -0.24037251716E+00 -0.42711232613E-01  0.25463643393E+01  0.25580411539E+01  0.00000000000E+00 0. -1.
</event>
<event>
 5    1  0.6776507E+001  0.1599322E+01  0.7818608E-02  0.3354100E+00
         11   -1    0    0    0    0  0.00000000000E+00  0.00000000000E+00  0.39999999674E+01  0.40000000000E+01  0.51100000000E-03 0.  1.
    9000002   -1    0    0    0    0 -0.00000000000E+00 -0.00000000000E+00  0.00000000000E+00  0.93800000000E+00  0.93800000000E+00 0. -1.
         11    1    1    2    0    0 -0.21141882814E-01  0.18682774804E-01  0.27851043862E+00  0.27993633352E+00  0.51100000000E-03 0.  1.
    9000002    1    1    2    0    0  0.20486419338E+00 -0.39579928027E+00  0.13512408035E+00  0.10472482633E+01  0.93800000000E+00 0. -1.
         22    1    1    2    0    0 -0.18372231057E+00  0.37711650546E+00  0.35863654484E+01  0.36108154031E+01  0.00000000000E+00 0.  1.
</event>
<event>
 5    1  0.6776507E+001  0.1598033E+01  0.7818608E-02  0.3355501E+00
         11   -1    0    0    0    0  0.00000000000E+00  0.00000000000E+00  0.39999999674E+01  0.40000000000E+01  0.51100000000E-03 0. -1.
    9000002   -1    0    0    0    0 -0.00000000000E+00 -0.00000000000E+00  0.00000000000E+00  0.93800000000E+00  0.93800000000E+00 0. -1.
         11    1    1    2    0    0  0.74722557216E-01 -0.65889286442E-01  0.66283861137E+00  0.67028362987E+00  0.51100000000E-03 0. -1.
    9000002    1    1    2    0    0 -0.30775282263E+00  0.54764785944E+00  0.27874140829E+00  0.11628287709E+01  0.93800000000E+00 0. -1.
         22    1    1    2    0    0  0.23303026541E+00 -0.48175857299E+00  0.30584199477E+01  0.31048875992E+01  0.00000000000E+00 0. -1.
</event>
<event>
 5    1  0.6776507E+001  0.1599677E+01  0.7818608E-02  0.3353714E+00
         11   -1    0    0    0    0  0.00000000000E+00  0.00000000000E+00  0.39999999674E+01  0.40000000000E+01  0.51100000000E-03 0.  1.
    9000002   -1    0    0    0    0 -0.00000000000E+00 -0.00000000000E+00  0.00000000000E+00  0.93800000000E+00  0.93800000000E+00 0.  1.
         11    1    1    2    0    0 -0.17694527711E-01 -0.11016234871E+00  0.12381960659E+01  0.12432130139E+01  0.51100000000E-03 0.  1.
    9000002    1    1    2    0    0  0.57130015220E-01  0.35031187307E+00  0.84519146461E-01  0.10064639751E+01  0.93800000000E+00 0.  1.
         22    1    1    2    0    0 -0.39435487509E-01 -0.24014952436E+00  0.26772847550E+01  0.26883230110E+01  0.00000000000E+00 0.  1.
</event>
<event>
 5    1  0.6776507E+001  0.1599255E+01  0.7818608E-02  0.3354172E+00
         11   -1    0    0    0    0  0.00000000000E+00  0.00000000000E+00  0.39999999674E+01  0.40000000000E+01  0.51100000000E-03 0. -1.
    9000002   -1    0    0    0    0 -0.00000000000E+00 -0.00000000000E+00  0.00000000000E+00  0.93800000000E+00  0.93800000000E+00 0.  1.
         11    1    1    2    0    0  0.38305328246E-01 -0.48121245856E-01  0.76814724679E+00  0.77060586966E+00  0.51100000000E-03 0. -1.
    9000002    1    1    2    0    0 -0.14455425169E+00  0.33143842228E+00  0.88123778314E-01  0.10091368390E+01  0.93800000000E+00 0.  1.
         22    1    1    2    0    0  0.10624892345E+00 -0.28331717643E+00  0.31437289423E+01  0.31582572914E+01  0.00000000000E+00 0. -1.
</event>
<event>
 5    1  0.6776507E+001  0.1512887E+01  0.7818608E-02  0.3453702E+00
         11   -1    0    0    0    0  0.00000000000E+00  0.00000000000E+00  0.39999999674E+01  0.40000000000E+01  0.51100000000E-03 0.  1.
    9000002   -1    0    0    0    0 -0.00000000000E+00 -0.00000000000E+00  0.00000000000E+00  0.93800000000E+00  0.93800000000E+00 0.  1.
         11    1    1    2    0    0  0.52340549713E+00  0.24817280020E-01  0.84912999449E+00  0.99779317520E+00  0.51100000000E-03 0.  1.
    9000002    1    1    2    0    0 -0.20923824352E+00  0.23072754774E+00  0.26119586485E+00  0.10222930713E+01  0.93800000000E+00 0.  1.
         22    1    1    2    0    0 -0.31416725360E+00 -0.25554482776E+00  0.28896741080E+01  0.29179137535E+01  0.00000000000E+00 0.  1.
</event>
<event>
 5    1  0.6776507E+001  0.1599105E+01  0.7818608E-02  0.3354335E+00
         11   -1    0    0    0    0  0.00000000000E+00  0.00000000000E+00  0.39999999674E+01  0.40000000000E+01  0.51100000000E-03 0.  1.
    9000002   -1    0    0    0    0 -0.00000000000E+00 -0.00000000000E+00  0.00000000000E+00  0.93800000000E+00  0.93800000000E+00 0. -1.
         11    1    1    2    0    0 -0.67131722757E-03  0.11712063217E-02  0.23365785523E-02  0.27464725375E-02  0.51100000000E-03 0.  1.
    9000002    1    1    2    0    0  0.36841885846E+00  0.21254036719E+00  0.12292133205E+00  0.10372364807E+01  0.93800000000E+00 0. -1.
         22    1    1    2    0    0 -0.36774754123E+00 -0.21371157351E+00  0.38747420568E+01  0.38980170468E+01  0.00000000000E+00 0.  1.
</event>
<event>
 5    1  0.7026601E+001  0.1599676E+01  0.7818608E-02  0.3353715E+00
         11   -1    0    0    0    0  0.00000000000E+00  0.00000000000E+00  0.39999999674E+01  0.40000000000E+01  0.51100000000E-03 0. -1.
    9000002   -1    0    0    0    0 -0.00000000000E+00 -0.00000000000E+00  0.00000000000E+00  0.93800000000E+00  0.93800000000E+00 0.  1.
         11    1    1    2    0    0  0.16531597654E-01  0.12551953116E+00  0.13929948407E+01  0.13987363346E+01  0.51100000000E-03 0. -1.
    9000002    1    1    2    0    0 -0.43094515911E-01 -0.35202278260E+00  0.84379419059E-01  0.10063503680E+01  0.93800000000E+00 0.  1.
         22    1    1    2    0    0  0.26562918257E-01  0.22650325144E+00  0.25226257076E+01  0.25329132974E+01  0.00000000000E+00 0. -1.
</event>
<event>
 5    1  0.6776507E+001  0.1599310E+01  0.7818608E-02  0.3354113E+00
         11   -1    0    0    0    0  0.00000000000E+00  0.00000000000E+00  0.39999999674E+01  0.40000000000E+01  0.51100000000E-03 0.  1.
    9000002   -1    0    0    0    0 -0.00000000000E+00 -0.00000000000E+00  0.00000000000E+00  0.93800000000E+00  0.93800000000E+00 0.  1.
         11    1    1    2    0    0  0.92801010938E-01 -0.74420637510E-01  0.73193723753E+00  0.74154085506E+00  0.51100000000E-03 0.  1.
    9000002    1    1    2    0    0 -0.39543131112E+00  0.34880657419E+00  0.19157227249E+00  0.10929665519E+01  0.93800000000E+00 0.  1.
         22    1    1    2    0    0  0.30263030019E+00 -0.27438593668E+00  0.30764904573E+01  0.31034925930E+01  0.00000000000E+00 0.  1.
</event>
<event>
 5    1  0.6776507E+001  0.1597684E+01  0.7818608E-02  0.3355881E+00
         11   -1    0    0    0    0  0.00000000000E+00  0.00000000000E+00  0.39999999674E+01  0.40000000000E+01  0.51100000000E-03 0.  1.
    9000002   -1    0    0    0    0 -0.00000000000E+00 -0.00000000000E+00  0.00000000000E+00  0.93800000000E+00  0.93800000000E+00 0.  1.
         11    1    1    2    0    0 -0.18311533153E-01 -0.11437058331E-01  0.10577485622E+00  0.10795693530E+00  0.51100000000E-03 0.  1.
    9000002    1    1    2    0    0  0.29905043253E-01  0.38624302730E+00  0.10271572934E+00  0.10200355429E+01  0.93800000000E+00 0.  1.
         22    1    1    2    0    0 -0.11593510100E-01 -0.37480596896E+00  0.37915093818E+01  0.38100075218E+01  0.00000000000E+00 0.  1.
</event>
<event>
 5    1  0.6776507E+001  0.1516835E+01  0.7818608E-02  0.3448889E+00
         11   -1    0    0    0    0  0.00000000000E+00  0.00000000000E+00  0.39999999674E+01  0.40000000000E+01  0.51100000000E-03 0. -1.
    9000002   -1    0    0    0    0 -0.00000000000E+00 -0.00000000000E+00  0.00000000000E+00  0.93800000000E+00  0.93800000000E+00 0.  1.
         11    1    1    2    0    0 -0.23057859914E+00 -0.78356534725E-01  0.63105386580E+00  0.67641368967E+00  0.51100000000E-03 0. -1.
    9000002    1    1    2    0    0  0.81888134439E-01 -0.38191545843E+00  0.17477172851E+00  0.10309967221E+01  0.93800000000E+00 0.  1.
         22    1    1    2    0    0  0.14869046470E+00  0.46027199315E+00  0.31941743730E+01  0.32305895882E+01  0.00000000000E+00 0. -1.
</event>
<event>
 5    1  0.6776507E+001  0.1599645E+01  0.7818608E-02  0.3353748E+00
         11   -1    0    0    0    0  0.00000000000E+00  0.00000000000E+00  0.39999999674E+01  0.40000000000E+01  0.51100000000E-03 0. -1.
    9000002   -1    0    0    0    0 -0.00000000000E+00 -0.00000000000E+00  0.00000000000E+00  0.93800000000E+00  0.93800000000E+00 0. -1.
         11    1    1    2    0    0  0.30013396049E-01  0.45004989336E-01  0.58868835432E+00  0.59116875141E+00  0.51100000000E-03 0. -1.
    9000002    1    1    2    0    0 -0.21318009681E+00 -0.32660067369E+00  0.10250031910E+00  0.10210112973E+01  0.93800000000E+00 0. -1.
         22    1    1    2    0    0  0.18316670076E+00  0.28159568435E+00  0.33088112939E+01  0.33258199513E+01  0.00000000000E+00 0. -1.
</event>
<event>
 5    1  0.6776507E+001  0.1593533E+01  0.7818608E-02  0.3360413E+00
         11   -1    0    0    0    0  0.00000000000E+00  0.00000000000E+00  0.39999999674E+01  0.40000000000E+01  0.51100000000E-03 0. -1.
    9000002   -1    0    0    0    0 -0.00000000000E+00 -0.00000000000E+00  0.00000000000E+00  0.93800000000E+00  0.93800000000E+00 0. -1.
         11    1    1    2    0    0  0.18228487440E+00 -0.16354343607E+00  0.13569024368E+01  0.13788251213E+01  0.51100000000E-03 0. -1.
    9000002    1    1    2    0    0 -0.68894122321E+00  0.30626816037E+00  0.42003159770E+00  0.12746414155E+01  0.93800000000E+00 0. -1.
         22    1    1    2    0    0  0.50665634880E+00 -0.14272472429E+00  0.22230659329E+01  0.22845334632E+01  0.00000000000E+00 0. -1.
</event>
<event>
 5    1  0.6776507E+001  0.1599581E+01  0.7818608E-02  0.3353818E+00
         11   -1    0    0    0    0  0.00000000000E+00  0.00000000000E+00  0.39999999674E+01  0.40000000000E+01  0.51100000000E-03 0. -1.
    9000002   -1    0    0    0    0 -0.00000000000E+00 -0.00000000000E+00  0.00000000000E+00  0.93800000000E+00  0.93800000000E+00 0.  1.
         11    1    1    2    0    0 -0.66732588457E-02 -0.10238385909E+00  0.64800275632E+00  0.65607531604E+00  0.51100000000E-03 0. -1.
    9000002    1    1    2    0    0  0.33672415555E-01  0.54704273106E+00  0.20749414501E+00  0.11060232373E+01  0.93800000000E+00 0.  1.
         22    1    1    2    0    0 -0.26999156709E-01 -0.44465887196E+00  0.31445030660E+01  0.31759014467E+01  0.00000000000E+00 0. -1.
</event>
<event>
 5    1  0.6776507E+001  0.1599676E+01  0.7818608E-02  0.3353715E+00
         11   -1    0    0    0    0  0.00000000000E+00  0.00000000000E+00  0.39999999674E+01  0.40000000000E+01  0.51100000000E-03 0.  1.
    9000002   -1    0    0    0    0 -0.00000000000E+00 -0.00000000000E+00  0.00000000000E+00  0.93800000000E+00  0.93800000000E+00 0. -1.
         11    1    1    2    0    0 -0.12368136849E+00 -0.80338039732E-01  0.13932969458E+01  0.14010809833E+01  0.51100000000E-03 0.  1.
    9000002    1    1    2    0    0  0.34176160182E+00  0.22391617427E+00  0.11273053709E+00  0.10293160931E+01  0.93800000000E+00 0. -1.
         22    1    1    2    0    0 -0.21808023334E+00 -0.14357813454E+00  0.24939724845E+01  0.25076029236E+01  0.00000000000E+00 0.  1.
</event>
<event>
 5    1  0.6776507E+001  0.1584902E+01  0.7818608E-02  0.3369915E+00
         11   -1    0    0    0    0  0.00000000000E+00  0.00000000000E+00  0.39999999674E+01  0.40000000000E+01  0.51100000000E-03 0.  1.
    9000002   -1    0    0    0    0 -0.00000000000E+00 -0.00000000000E+00  0.00000000000E+00  0.93800000000E+00  0.93800000000E+00 0.  1.
         11    1    1    2    0    0  0.59299410009E-01 -0.10516760268E+00  0.13825341382E+01  0.13877959321E+01  0.51100000000E-03 0.  1.
    9000002    1    1    2    0    0 -0.51292940678E+00  0.12195305221E+00  0.20496134905E+00  0.10953639933E+01  0.93800000000E+00 0.  1.
         22    1    1    2    0    0  0.45362999677E+00 -0.16785449531E-01  0.24125044801E+01  0.24548400746E+01  0.00000000000E+00 0.  1.
</event>
<event>
 5    1  0.6776507E+001  0.1577130E+01  0.7818608E-02  0.3378566E+00
         11   -1    0    0    0    0  0.00000000000E+00  0.00000000000E+00  0.39999999674E+01  0.40000000000E+01  0.51100000000E-03 0.  1.
    9000002   -1    0    0    0    0 -0.00000000000E+00 -0.00000000000E+00  0.00000000000E+00  0.93800000000E+00  0.93800000000E+00 0.  1.
         11    1    1    2    0    0 -0.96848441280E-01  0.17519303642E+00  0.13773853298E+01  0.13918558935E+01  0.51100000000E-03 0.  1.
    9000002    1    1    2    0    0 -0.20418927716E+00 -0.39558681646E+00  0.15417078284E+00  0.10496641465E+01  0.93800000000E+00 0.  1.
         22    1    1    2    0    0  0.30103771844E+00  0.22039378004E+00  0.24684438548E+01  0.24964799599E+01  0.00000000000E+00 0. -1.
</event>
<event>
 5    1  0.6776507E+001  0.1599663E+01  0.7818608E-02  0.3353730E+00
         11   -1    0    0    0    0  0.00000000000E+00  0.00000000000E+00  0.39999999674E+01  0.40000000000E+01  0.51100000000E-03 0. -1.
    9000002   -1    0    0    0    0 -0.00000000000E+00 -0.00000000000E+00  0.00000000000E+00  0.93800000000E+00  0.93800000000E+00 0.  1.
         11    1    1    2    0    0 -0.77850260714E-01 -0.12306847016E+00  0.13965612149E+01  0.14041331844E+01  0.51100000000E-03 0. -1.
    9000002    1    1    2    0    0  0.22429763856E+00  0.33317777422E+00  0.10884644283E+00  0.10261619794E+01  0.93800000000E+00 0.  1.
         22    1    1    2    0    0 -0.14644737784E+00 -0.21010930406E+00  0.24945923097E+01  0.25077048362E+01  0.00000000000E+00 0. -1.
</event>
<event>
 5    1  0.6776507E+001  0.1596504E+01  0.7818608E-02  0.3357167E+00
         11   -1    0    0    0    0  0.00000000000E+00  0.00000000000E+00  0.39999999674E+01  0.40000000000E+01  0.51100000000E-03 0.  1.
    9000002   -1    0    0    0    0 -0.00000000000E+00 -0.00000000000E+00  0.00000000000E+00  0.93800000000E+00  0.93800000000E+00 0.  1.
         11    1    1    2    0    0 -0.82074073995E-02 -0.97469030724E-02  0.70879594471E+00  0.70891065446E+00  0.51100000000E-03 0.  1.
    9000002    1    1    2    0    0 -0.43846558848E-01  0.32894863721E+00  0.76231524350E-01  0.99789026047E+00  0.93800000000E+00 0.  1.
         22    1    1    2    0    0  0.52053966248E-01 -0.31920173413E+00  0.32149724983E+01  0.32311990851E+01  0.00000000000E+00 0.  1.
</event>
<event>
 5    1  0.6776507E+001  0.1599675E+01  0.7818608E-02  0.3353716E+00
         11   -1    0    0    0    0  0.00000000000E+00  0.00000000000E+00  0.39999999674E+01  0.40000000000E+01  0.51100000000E-03 0. -1.
    9000002   -1    0    0    0    0 -0.00000000000E+00 -0.00000000000E+00  0.00000000000E+00  0.93800000000E+00  0.93800000000E+00 0.  1.
         11    1    1    2    0    0 -0.96618211422E-01 -0.97814185037E-01  0.14784786222E+01  0.14848575659E+01  0.51100000000E-03 0. -1.
    9000002    1    1    2    0    0  0.25911274675E+00  0.26088816509E+00  0.90838099462E-01  0.10115817369E+01  0.93800000000E+00 0.  1.
         22    1    1    2    0    0 -0.16249453533E+00 -0.16307398006E+00  0.24306832457E+01  0.24415606972E+01  0.00000000000E+00 0. -1.
</event>
<event>
 5    1  0.6776507E+001  0.1599133E+01  0.7818608E-02  0.3354304E+00
         11   -1    0    0    0    0  0.00000000000E+00  0.00000000000E+00  0.39999999674E+01  0.40000000000E+01  0.51100000000E-03 0. -1.
    9000002   -1    0    0    0    0 -0.00000000000E+00 -0.00000000000E+00  0.00000000000E+00  0.93800000000E+00  0.93800000000E+00 0.  1.
         11    1    1    2    0    0 -0.13236029981E-01  0.10074031316E+00  0.93487082715E+00  0.94037626925E+00  0.51100000000E-03 0. -1.
    9000002    1    1    2    0    0  0.41041557063E-01 -0.51004954357E+00  0.18009312999E+00  0.10835647105E+01  0.93800000000E+00 0.  1.
         22    1    1    2    0    0 -0.27805527082E-01  0.40930923041E+00  0.28850360102E+01  0.29140590203E+01  0.00000000000E+00 0. -1.
</event>
<event>
 5    1  0.6776507E+001  0.1560311E+01  0.7818608E-02  0.3397600E+00
         11   -1    0    0    0    0  0.00000000000E+00  0.00000000000E+00  0.39999999674E+01  0.40000000000E+01  0.51100000000E-03 0. -1.
    9000002   -1    0    0    0    0 -0.00000000000E+00 -0.00000000000E+00  0.00000000000E+00  0.93800000000E+00  0.93800000000E+00 0.  1.
         11    1    1    2    0    0 -0.43762224135E-01 -0.91691019643E-01  0.24141363553E+00  0.26192208743E+00  0.51100000000E-03 0. -1.
    9000002    1    1    2    0    0 -0.14188432309E+00 -0.19289718051E+00  0.68632621134E-01  0.97051270990E+00  0.93800000000E+00 0.  1.
         22    1    1    2    0    0  0.18564654723E+00  0.28458820015E+00  0.36899537107E+01  0.37055652027E+01  0.00000000000E+00 0. -1.
</event>
<event>
 5    1  0.6776507E+001  0.1598096E+01  0.7818608E-02  0.3355432E+00
         11   -1    0    0    0    0  0.00000000000E+00  0.00000000000E+00  0.39999999674E+01  0.40000000000E+01  0.51100000000E-03 0.  1.
    9000002   -1    0    0    0    0 -0.00000000000E+00 -0.00000000000E+00  0.00000000000E+00  0.93800000000E+00  0.93800000000E+00 0.  1.
         11    1    1    2    0    0  0.35880979057E-01  0.11330046360E-01  0.42093356553E+00  0.42261228368E+00  0.51100000000E-03 0.  1.
    9000002    1    1    2    0    0 -0.39109812532E+00 -0.36601529459E+00  0.19912212649E+00  0.10983708667E+01  0.93800000000E+00 0.  1.
         22    1    1    2    0    0  0.35521714626E+00  0.35468524823E+00  0.33799442753E+01  0.34170168496E+01  0.00000000000E+00 0.  1.
</event>
<event>
 5    1  0.6776507E+001  0.1599676E+01  0.7818608E-02  0.3353716E+00
         11   -1    0    0    0    0  0.00000000000E+00  0.00000000000E+00  0.39999999674E+01  0.40000000000E+01  0.51100000000E-03 0.  1.
    9000002   -1    0    0    0    0 -0.00000000000E+00 -0.00000000000E+00  0.00000000000E+00  0.93800000000E+00  0.93800000000E+00 0. -1.
         11    1    1    2    0    0 -0.98007944386E-01 -0.70498934266E-01  0.96770541228E+00  0.97520750765E+00  0.51100000000E-03 0.  1.
    9000002    1    1    2    0    0  0.38924990171E+00  0.28477656145E+00  0.15877601364E+00  0.10666147376E+01  0.93800000000E+00 0. -1.
         22    1    1    2    0    0 -0.29124195732E+00 -0.21427762718E+00  0.28735185414E+01  0.28961777548E+01  0.00000000000E+00 0.  1.
</event>
<event>
 5    1  0.6776507E+001  0.1571206E+01  0.7818608E-02  0.3385221E+00
         11   -1    0    0    0    0  0.00000000000E+00  0.00000000000E+00  0.39999999674E+01  0.40000000000E+01  0.51100000000E-03 0.  1.
    9000002   -1    0    0    0    0 -0.00000000000E+00 -0.00000000000E+00  0.00000000000E+00  0.93800000000E+00  0.93800000000E+00 0.  1.
         11    1    1    2    0    0  0.24331748566E+00  0.14093312150E+00  0.95822034670E+00  0.99862507355E+00  0.51100000000E-03 0.  1.
    9000002    1    1    2    0    0 -0.58673213972E+00  0.47181781051E-01  0.26968269486E+00  0.11397602731E+01  0.93800000000E+00 0.  1.
         22    1    1    2    0    0  0.34341465407E+00 -0.18811490255E+00  0.27720969258E+01  0.27996146533E+01  0.00000000000E+00 0.  1.
</event>
<event>
 5    1  0.6776507E+001  0.1507552E+01  0.7818608E-02  0.3460250E+00
         11   -1    0    0    0    0  0.00000000000E+00  0.00000000000E+00  0.39999999674E+01  0.40000000000E+01  0.51100000000E-03 0. -1.
    9000002   -1    0    0    0    0 -0.00000000000E+00 -0.00000000000E+00  0.00000000000E+00  0.93800000000E+00  0.93800000000E+00 0. -1.
         11    1    1    2    0    0 -0.18760085169E+00 -0.28362658123E+00  0.12549263738E+01  0.13001840569E+01  0.51100000000E-03 0. -1.
    9000002    1    1    2    0    0 -0.88241123212E-01  0.59315183654E-01  0.78081679724E-01  0.94723045535E+00  0.93800000000E+00 0. -1.
         22    1    1    2    0    0  0.27584197491E+00  0.22431139758E+00  0.26669919139E+01  0.26905854877E+01  0.00000000000E+00 0. -1.
</event>
<event>
 5    1  0.6776507E+001  0.1596804E+01  0.7818608E-02  0.3356839E+00
         11   -1    0    0    0    0  0.00000000000E+00  0.00000000000E+00  0.39999999674E+01  0.40000000000E+01  0.51100000000E-03 0. -1.
    9000002   -1    0    0    0    0 -0.00000000000E+00 -0.00000000000E+00  0.00000000000E+00  0.93800000000E+00  0.93800000000E+00 0.  1.
         11    1    1    2    0    0 -0.11703457761E+00  0.55763597176E-01  0.90023598543E+00  0.90952282089E+00  0.51100000000E-03 0. -1.
    9000002    1    1    2    0    0  0.68652709930E+00 -0.28322654326E+00  0.40236960935E+00  0.12622527621E+01  0.93800000000E+00 0.  1.
         22    1    1    2    0    0 -0.56949252169E+00  0.22746294608E+00  0.26973943726E+01  0.27662244170E+01  0.00000000000E+00 0. -1.
</event>
<event>
 5    1  0.6776507E+001  0.1550624E+01  0.7818608E-02  0.3408762E+00
         11   -1    0    0    0    0  0.00000000000E+00  0.00000000000E+00  0.39999999674E+01  0.40000000000E+01  0.51100000000E-03 0. -1.
    9000002   -1    0    0    0    0 -0.00000000000E+00 -0.00000000000E+00  0.00000000000E+00  0.93800000000E+00  0.93800000000E+00 0.  1.
         11    1    1    2    0    0  0.14275034118E-01 -0.23152119450E+00  0.12833929414E+01  0.13041869280E+01  0.51100000000E-03 0. -1.
    9000002    1    1    2    0    0 -0.13751659819E+00 -0.50433089210E-01  0.51247101095E-01  0.95074948153E+00  0.93800000000E+00 0.  1.
         22    1    1    2    0    0  0.12324156407E+00  0.28195428371E+00  0.26653599249E+01  0.26830635904E+01  0.00000000000E+00 0.  1.
</event>
<event>
 5    1  0.6776507E+001  0.1599599E+01  0.7818608E-02  0.3353799E+00
         11   -1    0    0    0    0  0.00000000000E+00  0.00000000000E+00  0.39999999674E+01  0.40000000000E+01  0.51100000000E-03 0.  1.
    9000002   -1    0    0    0    0 -0.00000000000E+00 -0.00000000000E+00  0.00000000000E+00  0.93800000000E+00  0.93800000000E+00 0.  1.
         11    1    1    2    0    0 -0.84306674139E-01 -0.10924652967E+00  0.12259784247E+01  0.12337202999E+01  0.51100000000E-03 0.  1.
    9000002    1    1    2    0    0  0.23930122081E+00  0.36085430213E+00  0.12708893990E+00  0.10409017726E+01  0.93800000000E+00 0.  1.
         22    1    1    2    0    0 -0.15499454667E+00 -0.25160777246E+00  0.26469326028E+01  0.26633779274E+01  0.00000000000E+00 0.  1.
</event>
<event>
 5    1  0.6776507E+001  0.1563152E+01  0.7818608E-02  0.3394355E+00
         11   -1    0    0    0    0  0.00000000000E+00  0.00000000000E+00  0.39999999674E+01  0.40000000000E+01  0.51100000000E-03 0. -1.
    9000002   -1    0    0    0    0 -0.00000000000E+00 -0.00000000000E+00  0.00000000000E+00  0.93800000000E+00  0.93800000000E+00 0.  1.
         11    1    1    2    0    0 -0.12322009362E+00 -0.13163523917E+00  0.75401426634E+00  0.77527337283E+00  0.51100000000E-03 0. -1.
    9000002    1    1    2    0    0 -0.16942483894E+00  0.19785568138E+00  0.73699317687E-01  0.97628235472E+00  0.93800000000E+00 0.  1.
         22    1    1    2    0    0  0.29264493257E+00 -0.66220442213E-01  0.31722863833E+01  0.31864442724E+01  0.00000000000E+00 0. -1.
</event>
<event>
 5    1  0.6776507E+001  0.1597881E+01  0.7818608E-02  0.3355667E+00
         11   -1    0    0    0    0  0.00000000000E+00  0.00000000000E+00  0.39999999674E+01  0.40000000000E+01  0.51100000000E-03 0.  1.
    9000002   -1    0    0    0    0 -0.00000000000E+00 -0.00000000000E+00  0.00000000000E+00  0.93800000000E+00  0.93800000000E+00 0. -1.
         11    1    1    2    0    0 -0.22528894281E-02 -0.22659631949E-02  0.28860599901E-01  0.29041443622E-01  0.51100000000E-03 0.  1.
    9000002    1    1    2    0    0  0.94057774230E-01 -0.82885048801E+00  0.52125753265E+00  0.13591885122E+01  0.93800000000E+00 0. -1.
         22    1    1    2    0    0 -0.91804884802E-01  0.83111645121E+00  0.34498818348E+01  0.35497700442E+01  0.00000000000E+00 0.  1.
</event>
<event>
 5    1  0.6776507E+001  0.1599189E+01  0.7818608E-02  0.3354244E+00
         11   -1    0    0    0    0  0.00000000000E+00  0.00000000000E+00  0.39999999674E+01  0.40000000000E+01  0.51100000000E-03 0.  1.
    9000002   -1    0    0    0    0 -0.00000000000E+00 -0.00000000000E+00  0.00000000000E+00  0.93800000000E+00  0.93800000000E+00 0.  1.
         11    1    1    2    0    0 -0.53302856421E-01 -0.86020186741E-01  0.65243166248E+00  0.66023329388E+00  0.51100000000E-03 0.  1.
    9000002    1    1    2    0    0  0.41517016973E+00  0.45705894168E+00  0.26752125319E+00  0.11544179342E+01  0.93800000000E+00 0.  1.
         22    1    1    2    0    0 -0.36186731331E+00 -0.37103875494E+00  0.30800470517E+01  0.31233487719E+01  0.00000000000E+00 0.  1.
</event>
<event>
 5    1  0.6776507E+001  0.1599676E+01  0.7818608E-02  0.3353715E+00
         11   -1    0    0    0    0  0.00000000000E+00  0.00000000000E+00  0.39999999674E+01  0.40000000000E+01  0.51100000000E-03 0. -1.
    9000002   -1    0    0    0    0 -0.00000000000E+00 -0.00000000000E+00  0.00000000000E+00  0.93800000000E+00  0.93800000000E+00 0. -1.
         11    1    1    2    0    0  0.18816564328E-01  0.16105612921E+00  0.10352884859E+01  0.10479101345E+01  0.51100000000E-03 0. -1.
    9000002    1    1    2    0    0 -0.65029910079E-01 -0.58667615190E+00  0.24259235377E+00  0.11345099588E+01  0.93800000000E+00 0. -1.
         22    1    1    2    0    0  0.46213345751E-01  0.42562002269E+00  0.27221191277E+01  0.27555799067E+01  0.00000000000E+00 0.  1.
</event>
<event>
 5    1  0.6776507E+001  0.1599673E+01  0.7818608E-02  0.3353718E+00
         11   -1    0    0    0    0  0.00000000000E+00  0.00000000000E+00  0.39999999674E+01  0.40000000000E+01  0.51100000000E-03 0. -1.
    9000002   -1    0    0    0    0 -0.00000000000E+00 -0.00000000000E+00  0.00000000000E+00  0.93800000000E+00  0.93800000000E+00 0.  1.
         11    1    1    2    0    0  0.40237602544E-01 -0.14774135107E-01  0.19077787193E+00  0.19553464467E+00  0.51100000000E-03 0. -1.
    9000002    1    1    2    0    0 -0.74887242756E+00  0.25576724881E+00  0.45995937395E+00  0.13105851457E+01  0.93800000000E+00 0. -1.
         22    1    1    2    0    0  0.70863482502E+00 -0.24099311371E+00  0.33492627215E+01  0.34318802097E+01  0.00000000000E+00 0. -1.
</event>
<event>
 5    1  0.6776507E+001  0.1599677E+01  0.7818608E-02  0.3353714E+00
         11   -1    0    0    0    0  0.00000000000E+00  0.00000000000E+00  0.39999999674E+01  0.40000000000E+01  0.51100000000E-03 0. -1.
    9000002   -1    0    0    0    0 -0.00000000000E+00 -0.00000000000E+00  0.00000000000E+00  0.93800000000E+00  0.93800000000E+00 0.  1.
         11    1    1    2    0    0  0.89201596610E-01  0.28071078452E-01  0.10300733169E+01  0.10343095328E+01  0.51100000000E-03 0. -1.
    9000002    1    1    2    0    0 -0.33819781924E+00 -0.10685690001E+00  0.84391558229E-01  0.10063608186E+01  0.93800000000E+00 0.  1.
         22    1    1    2    0    0  0.24899622263E+00  0.78785821558E-01  0.28855350923E+01  0.28973296487E+01  0.00000000000E+00 0. -1.
</event>
<event>
 5    1  0.6776507E+001  0.1599676E+01  0.7818608E-02  0.3353715E+00
         11   -1    0    0    0    0  0.00000000000E+00  0.00000000000E+00  0.39999999674E+01  0.40000000000E+01  0.51100000000E-03 0.  1.
    9000002   -1    0    0    0    0 -0.00000000000E+00 -0.00000000000E+00  0.00000000000E+00  0.93800000000E+00  0.93800000000E+00 0. -1.
         11    1    1    2    0    0  0.66847272259E-01  0.18362358716E-01  0.61799054826E+00  0.62186679674E+00  0.51100000000E-03 0.  1.
    9000002    1    1    2    0    0 -0.42357488505E+00 -0.11207147267E+00  0.13016385447E+00  0.10434377448E+01  0.93800000000E+00 0. -1.
         22    1    1    2    0    0  0.35672761279E+00  0.93709113955E-01  0.32518455646E+01  0.32726954585E+01  0.00000000000E+00 0.  1.
</event>
<event>
 5    1  0.6776507E+001  0.1599492E+01  0.7818608E-02  0.3353915E+00
         11   -1    0    0    0    0  0.00000000000E+00  0.00000000000E+00  0.39999999674E+01  0.40000000000E+01  0.51100000000E-03 0.  1.
    9000002   -1    0    0    0    0 -0.00000000000E+00 -0.00000000000E+00  0.00000000000E+00  0.93800000000E+00  0.93800000000E+00 0. -1.
         11    1    1    2    0    0  0.76580573182E-01  0.63791087259E-01  0.71186147344E+00  0.71880519301E+00  0.51100000000E-03 0.  1.
    9000002    1    1    2    0    0 -0.34824761729E+00 -0.36961650726E+00  0.17694483221E+00  0.10812244166E+01  0.93800000000E+00 0. -1.
         22    1    1    2    0    0  0.27166704411E+00  0.30582542000E+00  0.31111936617E+01  0.31379703904E+01  0.00000000000E+00 0. -1.
</event>
<event>
 5    1  0.6776507E+001  0.1599669E+01  0.7818608E-02  0.3353723E+00
         11   -1    0    0    0    0  0.00000000000E+00  0.00000000000E+00  0.39999999674E+01  0.40000000000E+01  0.51100000000E-03 0.  1.
    9000002   -1    0    0    0    0 -0.00000000000E+00 -0.00000000000E+00  0.00000000000E+00  0.93800000000E+00  0.93800000000E+00 0.  1.
         11    1    1    2    0    0  0.26852667031E+00 -0.26849227280E-01  0.14426200234E+01  0.14676444551E+01  0.51100000000E-03 0.  1.
    9000002    1    1    2    0    0 -0.68371097864E+00  0.59759850828E-01  0.33542607160E+00  0.12097051672E+01  0.93800000000E+00 0.  1.
         22    1    1    2    0    0  0.41518430833E+00 -0.32910623548E-01  0.22219538724E+01  0.22606503776E+01  0.00000000000E+00 0.  1.
</event>
<event>
 5    1  0.6776507E+001  0.1594818E+01  0.7818608E-02  0.3359007E+00
         11   -1    0    0    0    0  0.00000000000E+00  0.00000000000E+00  0.39999999674E+01  0.40000000000E+01  0.51100000000E-03 0.  1.
    9000002   -1    0    0    0    0 -0.00000000000E+00 -0.00000000000E+00  0.00000000000E+00  0.93800000000E+00  0.93800000000E+00 0. -1.
         11    1    1    2    0    0 -0.16182837638E-01 -0.17259051539E-01  0.74098193843E+00  0.74135973271E+00  0.51100000000E-03 0.  1.
    9000002    1    1    2    0    0  0.42118903514E+00  0.16447454773E+00  0.14312078574E+00  0.10510849820E+01  0.93800000000E+00 0. -1.
         22    1    1    2    0    0 -0.40500619750E+00 -0.14721549620E+00  0.31158972432E+01  0.31455552852E+01  0.00000000000E+00 0.  1.
</event>
<event>
 5    1  0.6776507E+001  0.1599556E+01  0.7818608E-02  0.3353845E+00
         11   -1    0    0    0    0  0.00000000000E+00  0.00000000000E+00  0.39999999674E+01  0.40000000000E+01  0.51100000000E-03 0.  1.
    9000002   -1    0    0    0    0 -0.00000000000E+00 -0.00000000000E+00  0.00000000000E+00  0.93800000000E+00  0.93800000000E+00 0.  1.
         11    1    1    2    0    0  0.92469852069E-01 -0.13389021705E+00  0.12490212689E+01  0.12595759822E+01  0.51100000000E-03 0.  1.
    9000002    1    1    2    0    0 -0.30518521451E+00  0.37959159346E+00  0.16215683437E+00  0.10692832328E+01  0.93800000000E+00 0.  1.
         22    1    1    2    0    0  0.21271536244E+00 -0.24570137642E+00  0.25888218641E+01  0.26091407850E+01  0.00000000000E+00 0.  1.
</event>
<event>
 5    1  0.6776507E+001  0.1599675E+01  0.7818608E-02  0.3353716E+00
         11   -1    0    0    0    0  0.00000000000E+00  0.00000000000E+00  0.39999999674E+01  0.40000000000E+01  0.51100000000E-03 0. -1.
    9000002   -1    0    0    0    0 -0.00000000000E+00 -0.00000000000E+00  0.00000000000E+00  0.93800000000E+00  0.93800000000E+00 0.  1.
         11    1    1    2    0    0  0.73417113691E-01  0.10909696428E-01  0.63760395329E+00  0.64190977282E+00  0.51100000000E-03 0.  1.
    9000002    1    1    2    0    0 -0.44887284530E+00 -0.71140126778E-01  0.14037862418E+00  0.10517118935E+01  0.93800000000E+00 0.  1.
         22    1    1    2    0    0  0.37545573161E+00  0.60230430350E-01  0.32220173899E+01  0.32443783336E+01  0.00000000000E+00 0. -1.
</event>
<event>
 5    1  0.6776507E+001  0.1471113E+01  0.7818608E-02  0.3506346E+00
         11   -1    0    0    0    0  0.00000000000E+00  0.00000000000E+00  0.39999999674E+01  0.40000000000E+01  0.51100000000E-03 0. -1.
    9000002   -1    0    0    0    0 -0.00000000000E+00 -0.00000000000E+00  0.00000000000E+00  0.93800000000E+00  0.93800000000E+00 0.  1.
         11    1    1    2    0    0 -0.10189339173E+00 -0.34996969557E+00  0.74438715482E+00  0.82883867458E+00  0.51100000000E-03 0. -1.
    9000002    1    1    2    0    0  0.26264626201E+00  0.35577445228E-01  0.15316957527E+00  0.98668826503E+00  0.93800000000E+00 0.  1.
         22    1    1    2    0    0 -0.16075287028E+00  0.31439225034E+00  0.31024432373E+01  0.31224730604E+01  0.00000000000E+00 0. -1.
</event>
<event>
 5    1  0.6776507E+001  0.1528574E+01  0.7818608E-02  0.3434733E+00
         11   -1    0    0    0    0  0.00000000000E+00  0.00000000000E+00  0.39999999674E+01  0.40000000000E+01  0.51100000000E-03 0. -1.
    9000002   -1    0    0    0    0 -0.00000000000E+00 -0.00000000000E+00  0.00000000000E+00  0.93800000000E+00  0.93800000000E+00 0.  1.
         11    1    1    2    0    0 -0.28062976369E+00  0.26441870205E-01  0.82270788424E+00  0.86965554140E+00  0.51100000000E-03 0. -1.
    9000002    1    1    2    0    0  0.96225055227E-01 -0.36413536799E+00  0.15612725860E+00  0.10227773699E+01  0.93800000000E+00 0.  1.
         22    1    1    2    0    0  0.18440470846E+00  0.33769349778E+00  0.30211648245E+01  0.30455670887E+01  0.00000000000E+00 0. -1.
</event>
<event>
 5    1  0.6776507E+001  0.1599319E+01  0.7818608E-02  0.3354103E+00
         11   -1    0    0    0    0  0.00000000000E+00  0.00000000000E+00  0.39999999674E+01  0.40000000000E+01  0.51100000000E-03 0.  1.
    9000002   -1    0    0    0    0 -0.00000000000E+00 -0.00000000000E+00  0.00000000000E+00  0.93800000000E+00  0.93800000000E+00 0. -1.
         11    1    1    2    0    0 -0.54647784894E-01 -0.24276458423E-01  0.42858114953E+00  0.43273293113E+00  0.51100000000E-03 0.  1.
    9000002    1    1    2    0    0  0.36729573936E+00  0.19520391044E+00  0.11724547675E+00  0.10327638784E+01  0.93800000000E+00 0. -1.
         22    1    1    2    0    0 -0.31264795447E+00 -0.17092745201E+00  0.34541733411E+01  0.34725031904E+01  0.00000000000E+00 0.  1.
</event>
<event>
 5    1  0.6776507E+001  0.1599656E+01  0.7818608E-02  0.3353737E+00
         11   -1    0    0    0    0  0.00000000000E+00  0.00000000000E+00  0.39999999674E+01  0.40000000000E+01  0.51100000000E-03 0. -1.
    9000002   -1    0    0    0    0 -0.00000000000E+00 -0.00000000000E+00  0.00000000000E+00  0.93800000000E+00  0.93800000000E+00 0. -1.
         11    1    1    2    0    0  0.12745219859E-01  0.33674505385E-01  0.43045625621E+00  0.43195979278E+00  0.51100000000E-03 0. -1.
    9000002    1    1    2    0    0 -0.14039173629E+00 -0.32612059706E+00  0.84592273853E-01  0.10065109717E+01  0.93800000000E+00 0. -1.
         22    1    1    2    0    0  0.12764651643E+00  0.29244609167E+00  0.34849514373E+01  0.34995292355E+01  0.00000000000E+00 0. -1.
</event>
<event>
 5    1  0.6776507E+001  0.1599670E+01  0.7818608E-02  0.3353721E+00
         11   -1    0    0    0    0  0.00000000000E+00  0.00000000000E+00  0.39999999674E+01  0.40000000000E+01  0.51100000000E-03 0.  1.
    9000002   -1    0    0    0    0 -0.00000000000E+00 -0.00000000000E+00  0.00000000000E+00  0.93800000000E+00  0.93800000000E+00 0.  1.
         11    1    1    2    0    0 -0.63499789686E-02 -0.23297711720E-01  0.17282996301E+00  0.17450949212E+00  0.51100000000E-03 0.  1.
    9000002    1    1    2    0    0  0.12090658989E+00  0.53084446234E+00  0.20452529804E+00  0.11036706231E+01  0.93800000000E+00 0.  1.
         22    1    1    2    0    0 -0.11455661092E+00 -0.50754675062E+00  0.36226447063E+01  0.36598198848E+01  0.00000000000E+00 0.  1.
</event>
<event>
 5    1  0.6776507E+001  0.1599674E+01  0.7818608E-02  0.3353718E+00
         11   -1    0    0    0    0  0.00000000000E+00  0.00000000000E+00  0.39999999674E+01  0.40000000000E+01  0.51100000000E-03 0. -1.
    9000002   -1    0    0    0    0 -0.00000000000E+00 -0.00000000000E+00  0.00000000000E+00  0.93800000000E+00  0.93800000000E+00 0.  1.
         11    1    1    2    0    0 -0.74044560103E-02 -0.41165272249E-01  0.40994940046E+00  0.41207787816E+00  0.51100000000E-03 0.  1.
    9000002    1    1    2    0    0  0.60480283196E-01  0.38432676764E+00  0.10196035035E+00  0.10205904379E+01  0.93800000000E+00 0.  1.
         22    1    1    2    0    0 -0.53075827185E-01 -0.34316149539E+00  0.34880902165E+01  0.35053316839E+01  0.00000000000E+00 0. -1.
</event>
<event>
 5    1  0.6776507E+001  0.1599241E+01  0.7818608E-02  0.3354188E+00
         11   -1    0    0    0    0  0.00000000000E+00  0.00000000000E+00  0.39999999674E+01  0.40000000000E+01  0.51100000000E-03 0. -1.
    9000002   -1    0    0    0    0 -0.00000000000E+00 -0.00000000000E+00  0.00000000000E+00  0.93800000000E+00  0.93800000000E+00 0. -1.
         11    1    1    2    0    0  0.52419446055E-01 -0.78273508752E-01  0.12711365953E+01  0.12746227072E+01  0.51100000000E-03 0. -1.
    9000002    1    1    2    0    0 -0.21770283379E+00  0.28689517543E+00  0.87420044600E-01  0.10085581935E+01  0.93800000000E+00 0. -1.
         22    1    1    2    0    0  0.16528338774E+00 -0.20862166668E+00  0.26414433274E+01  0.26548190993E+01  0.00000000000E+00 0. -1.
</event>
<event>
 5    1  0.6776507E+001  0.1599051E+01  0.7818608E-02  0.3354394E+00
         11   -1    0    0    0    0  0.00000000000E+00  0.00000000000E+00  0.39999999674E+01  0.40000000000E+01  0.51100000000E-03 0. -1.
    9000002   -1    0    0    0    0 -0.00000000000E+00 -0.00000000000E+00  0.00000000000E+00  0.93800000000E+00  0.93800000000E+00 0.  1.
         11    1    1    2    0    0  0.14122633808E+00 -0.78246276219E-01  0.13574667123E+01  0.13670345623E+01  0.51100000000E-03 0. -1.
    9000002    1    1    2    0    0 -0.40689761311E+00  0.14135334086E+00  0.12620489961E+00  0.10398644677E+01  0.93800000000E+00 0.  1.
         22    1    1    2    0    0  0.26567127503E+00 -0.63107064636E-01  0.25163283554E+01  0.25311009700E+01  0.00000000000E+00 0. -1.
</event>
<event>
 5    1  0.6776507E+001  0.1578724E+01  0.7818608E-02  0.3376784E+00
         11   -1    0    0    0    0  0.00000000000E+00  0.00000000000E+00  0.39999999674E+01  0.40000000000E+01  0.51100000000E-03 0.  1.
    9000002   -1    0    0    0    0 -0.00000000000E+00 -0.00000000000E+00  0.00000000000E+00  0.93800000000E+00  0.93800000000E+00 0.  1.
         11    1    1    2    0    0  0.43530007417E-01 -0.20488959787E+00  0.10555054780E+01  0.10760886042E+01  0.51100000000E-03 0.  1.
    9000002    1    1    2    0    0  0.19483006265E+00  0.30660170039E+00  0.10582603115E+00  0.10114378403E+01  0.93800000000E+00 0.  1.
         22    1    1    2    0    0 -0.23836007007E+00 -0.10171210252E+00  0.28386684582E+01  0.28504735555E+01  0.00000000000E+00 0.  1.
</event>
<event>
 5    1  0.6776507E+001  0.1599054E+01  0.7818608E-02  0.3354391E+00
         11   -1    0    0    0    0  0.00000000000E+00  0.00000000000E+00  0.39999999674E+01  0.40000000000E+01  0.51100000000E-03 0. -1.
    9000002   -1    0    0    0    0 -0.00000000000E+00 -0.00000000000E+00  0.00000000000E+00  0.93800000000E+00  0.93800000000E+00 0.  1.
         11    1    1    2    0    0  0.77038191331E-01 -0.19491046184E+00  0.13594406586E+01  0.13755014128E+01  0.51100000000E-03 0. -1.
    9000002    1    1    2    0    0 -0.29144009843E+00  0.53813880302E+00  0.26261722862E+00  0.11503662508E+01  0.93800000000E+00 0.  1.
         22    1    1    2    0    0  0.21440190710E+00 -0.34322834118E+00  0.23779420801E+01  0.24121323364E+01  0.00000000000E+00 0. -1.
</event>
<event>
 5    1  0.6776507E+001  0.1599677E+01  0.7818608E-02  0.3353714E+00
         11   -1    0    0    0    0  0.00000000000E+00  0.00000000000E+00  0.39999999674E+01  0.40000000000E+01  0.51100000000E-03 0. -1.
    9000002   -1    0    0    0    0 -0.00000000000E+00 -0.00000000000E+00  0.00000000000E+00  0.93800000000E+00  0.93800000000E+00 0.  1.
         11    1    1    2    0    0  0.33960902985E-01  0.51534901150E-01  0.67707288732E+00  0.67988024300E+00  0.51100000000E-03 0.  1.
    9000002    1    1    2    0    0 -0.19735059985E+00 -0.29589304417E+00  0.84873318854E-01  0.10067509290E+01  0.93800000000E+00 0.  1.
         22    1    1    2    0    0  0.16338969687E+00  0.24435814302E+00  0.32380537612E+01  0.32513688280E+01  0.00000000000E+00 0. -1.
</event>
<event>
 5    1  0.6776507E+001  0.1599676E+01  0.7818608E-02  0.3353715E+00
         11   -1    0    0    0    0  0.00000000000E+00  0.00000000000E+00  0.39999999674E+01  0.40000000000E+01  0.51100000000E-03 0. -1.
    9000002   -1    0    0    0    0 -0.00000000000E+00 -0.00000000000E+00  0.00000000000E+00  0.93800000000E+00  0.93800000000E+00 0.  1.
         11    1    1    2    0    0  0.20859883696E+00  0.11043914483E-01  0.87629743107E+00  0.90085120395E+00  0.51100000000E-03 0. -1.
    9000002    1    1    2    0    0 -0.83170823097E+00 -0.40596062726E-01  0.51668569483E+00  0.13565377728E+01  0.93800000000E+00 0.  1.
         22    1    1    2    0    0  0.62310939401E+00  0.29552148242E-01  0.26070168415E+01  0.26806110233E+01  0.00000000000E+00 0. -1.
</event>
<event>
 5    1  0.6776507E+001  0.1599135E+01  0.7818608E-02  0.3354303E+00
         11   -1    0    0    0    0  0.00000000000E+00  0.00000000000E+00  0.39999999674E+01  0.40000000000E+01  0.51100000000E-03 0.  1.
    9000002   -1    0    0    0    0 -0.00000000000E+00 -0.00000000000E+00  0.00000000000E+00  0.93800000000E+00  0.93800000000E+00 0.  1.
         11    1    1    2    0    0  0.13246740381E+00  0.87970057304E-01  0.10728342466E+01  0.10845551741E+01  0.51100000000E-03 0.  1.
    9000002    1    1    2    0    0 -0.51169782185E+00 -0.37624265675E+00  0.28421793620E+00  0.11679113977E+01  0.93800000000E+00 0.  1.
         22    1    1    2    0    0  0.37923041804E+00  0.28827259944E+00  0.26429477846E+01  0.26855334282E+01  0.00000000000E+00 0.  1.
</event>
<event>
 5    1  0.6776507E+001  0.1591343E+01  0.7818608E-02  0.3362814E+00
         11   -1    0    0    0    0  0.00000000000E+00  0.00000000000E+00  0.39999999674E+01  0.40000000000E+01  0.51100000000E-03 0.  1.
    9000002   -1    0    0    0    0 -0.00000000000E+00 -0.00000000000E+00  0.00000000000E+00  0.93800000000E+00  0.93800000000E+00 0.  1.
         11    1    1    2    0    0 -0.44544286187E-01  0.73840484100E-01  0.11414111244E+01  0.11446642418E+01  0.51100000000E-03 0.  1.
    9000002    1    1    2    0    0 -0.18893049662E+00 -0.22511203941E+00  0.64117429481E-01  0.98505086549E+00  0.93800000000E+00 0.  1.
         22    1    1    2    0    0  0.23347478280E+00  0.15127155531E+00  0.27944714135E+01  0.28082848927E+01  0.00000000000E+00 0.  1.
</event>
<event>
 5    1  0.6776507E+001  0.1599672E+01  0.7818608E-02  0.3353719E+00
         11   -1    0    0    0    0  0.00000000000E+00  0.00000000000E+00  0.39999999674E+01  0.40000000000E+01  0.51100000000E-03 0. -1.
    9000002   -1    0    0    0    0 -0.00000000000E+00 -0.00000000000E+00  0.00000000000E+00  0.93800000000E+00  0.93800000000E+00 0.  1.
         11    1    1    2    0    0  0.19816764756E-01  0.17243372802E+00  0.11257282559E+01  0.11390304922E+01  0.51100000000E-03 0. -1.
    9000002    1    1    2    0    0 -0.58418437576E-01 -0.57729980962E+00  0.23394408445E+00  0.11275023808E+01  0.93800000000E+00 0.  1.
         22    1    1    2    0    0  0.38601672821E-01  0.40486608159E+00  0.26403276270E+01  0.26714671270E+01  0.00000000000E+00 0. -1.
</event>
<event>
 5    1  0.6776507E+001  0.1599605E+01  0.7818608E-02  0.3353792E+00
         11   -1    0    0    0    0  0.00000000000E+00  0.00000000000E+00  0.39999999674E+01  0.40000000000E+01  0.51100000000E-03 0.  1.
    9000002   -1    0    0    0    0 -0.00000000000E+00 -0.00000000000E+00  0.00000000000E+00  0.93800000000E+00  0.93800000000E+00 0. -1.
         11    1    1    2    0    0 -0.15874702228E+00 -0.17319908683E+00  0.12522214508E+01  0.12740711769E+01  0.51100000000E-03 0.  1.
    9000002    1    1    2    0    0  0.48798355948E+00  0.51407830696E+00  0.35999723358E+00  0.12295716605E+01  0.93800000000E+00 0. -1.
         22    1    1    2    0    0 -0.32923653720E+00 -0.34087922013E+00  0.23877812829E+01  0.24343571626E+01  0.00000000000E+00 0.  1.
</event>
<event>
 5    1  0.6776507E+001  0.1596855E+01  0.7818608E-02  0.3356784E+00
         11   -1    0    0    0    0  0.00000000000E+00  0.00000000000E+00  0.39999999674E+01  0.40000000000E+01  0.51100000000E-03 0. -1.
    9000002   -1    0    0    0    0 -0.00000000000E+00 -0.00000000000E+00  0.00000000000E+00  0.93800000000E+00  0.93800000000E+00 0.  1.
         11    1    1    2    0    0  0.42604563958E-02  0.17021985350E+00  0.82521689454E+00  0.84260081544E+00  0.51100000000E-03 0. -1.
    9000002    1    1    2    0    0 -0.35149552380E-01 -0.53790717048E+00  0.20293184188E+00  0.11007292799E+01  0.93800000000E+00 0.  1.
         22    1    1    2    0    0  0.30889095985E-01  0.36768731697E+00  0.29718512309E+01  0.29946699047E+01  0.00000000000E+00 0. -1.
</event>
<event>
 5    1  0.6776507E+001  0.1562590E+01  0.7818608E-02  0.3394995E+00
         11   -1    0    0    0    0  0.00000000000E+00  0.00000000000E+00  0.39999999674E+01  0.40000000000E+01  0.51100000000E-03 0. -1.
    9000002   -1    0    0    0    0 -0.00000000000E+00 -0.00000000000E+00  0.00000000000E+00  0.93800000000E+00  0.93800000000E+00 0. -1.
         11    1    1    2    0    0 -0.11910595154E+00 -0.65654880232E-01  0.10461716557E+01  0.10549749690E+01  0.51100000000E-03 0. -1.
    9000002    1    1    2    0    0 -0.27421015305E-01 -0.35803740469E+00  0.11721162749E+00  0.10111999114E+01  0.93800000000E+00 0. -1.
         22    1    1    2    0    0  0.14652696684E+00  0.42369228492E+00  0.28366166842E+01  0.28718251195E+01  0.00000000000E+00 0. -1.
</event>
<event>
 5    1  0.6776507E+001  0.1584929E+01  0.7818608E-02  0.3369886E+00
         11   -1    0    0    0    0  0.00000000000E+00  0.00000000000E+00  0.39999999674E+01  0.40000000000E+01  0.51100000000E-03 0.  1.
    9000002   -1    0    0    0    0 -0.00000000000E+00 -0.00000000000E+00  0.00000000000E+00  0.93800000000E+00  0.93800000000E+00 0.  1.
         11    1    1    2    0    0  0.74034266781E-02 -0.29502874433E-01  0.34087652628E-01  0.45688724091E-01  0.51100000000E-03 0.  1.
    9000002    1    1    2    0    0 -0.41448976060E+00  0.22016065704E-01  0.12895090613E+00  0.10338079149E+01  0.93800000000E+00 0.  1.
         22    1    1    2    0    0  0.40708633392E+00  0.74868087288E-02  0.38369614086E+01  0.38585033610E+01  0.00000000000E+00 0.  1.
</event>
<event>
 5    1  0.6776507E+001  0.1599676E+01  0.7818608E-02  0.3353715E+00
         11   -1    0    0    0    0  0.00000000000E+00  0.00000000000E+00  0.39999999674E+01  0.40000000000E+01  0.51100000000E-03 0. -1.
    9000002   -1    0    0    0    0 -0.00000000000E+00 -0.00000000000E+00  0.00000000000E+00  0.93800000000E+00  0.93800000000E+00 0. -1.
         11    1    1    2    0    0 -0.96295458255E-01  0.36047092574E-01  0.10546450910E+01  0.10596455715E+01  0.51100000000E-03 0. -1.
    9000002    1    1    2    0    0  0.35558118489E+00 -0.13660570675E+00  0.97639990288E-01  0.10170922603E+01  0.93800000000E+00 0. -1.
         22    1    1    2    0    0 -0.25928572664E+00  0.10055861418E+00  0.28477148861E+01  0.28612621682E+01  0.00000000000E+00 0. -1.
</event>
<event>
 5    1  0.6776507E+001  0.1599676E+01  0.7818608E-02  0.3353716E+00
         11   -1    0    0    0    0  0.00000000000E+00  0.00000000000E+00  0.39999999674E+01  0.40000000000E+01  0.51100000000E-03 0.  1.
    9000002   -1    0    0    0    0 -0.00000000000E+00 -0.00000000000E+00  0.00000000000E+00  0.93800000000E+00  0.93800000000E+00 0. -1.
         11    1    1    2    0    0 -0.41658301668E-01 -0.12300742332E+00  0.13560956310E+01  0.13623002098E+01  0.51100000000E-03 0.  1.
    9000002    1    1    2    0    0  0.11998251778E+00  0.35042084176E+00  0.92202834963E-01  0.10126874808E+01  0.93800000000E+00 0. -1.
         22    1    1    2    0    0 -0.78324216117E-01 -0.22741341844E+00  0.25517015014E+01  0.25630123094E+01  0.00000000000E+00 0.  1.
</event>
<event>
 5    1  0.6776507E+001  0.1594542E+01  0.7818608E-02  0.3359308E+00
         11   -1    0    0    0    0  0.00000000000E+00  0.00000000000E+00  0.39999999674E+01  0.40000000000E+01  0.51100000000E-03 0. -1.
    9000002   -1    0    0    0    0 -0.00000000000E+00 -0.00000000000E+00  0.00000000000E+00  0.93800000000E+00  0.93800000000E+00 0.  1.
         11    1    1    2    0    0  0.56010392112E-02  0.16716449814E+00  0.49179548518E+00  0.51945972072E+00  0.51100000000E-03 0. -1.
    9000002    1    1    2    0    0  0.16427723227E-01 -0.76879131551E+00  0.43754138213E+00  0.12894170846E+01  0.93800000000E+00 0.  1.
         22    1    1    2    0    0 -0.22028762438E-01  0.60162681737E+00  0.30706631000E+01  0.31291231947E+01  0.00000000000E+00 0. -1.
</event>
<event>
 5    1  0.6776507E+001  0.1599675E+01  0.7818608E-02  0.3353716E+00
         11   -1    0    0    0    0  0.00000000000E+00  0.00000000000E+00  0.39999999674E+01  0.40000000000E+01  0.51100000000E-03 0.  1.
    9000002   -1    0    0    0    0 -0.00000000000E+00 -0.00000000000E+00  0.00000000000E+00  0.93800000000E+00  0.93800000000E+00 0. -1.
         11    1    1    2    0    0  0.18434258793E-01  0.13983246168E-02  0.17867359504E+00  0.17962820462E+00  0.51100000000E-03 0.  1.
    9000002    1    1    2    0    0 -0.40383454376E+00 -0.17945281766E-01  0.11028163361E+00  0.10273316945E+01  0.93800000000E+00 0. -1.
         22    1    1    2    0    0  0.38540028497E+00  0.16546957150E-01  0.37110447387E+01  0.37310401009E+01  0.00000000000E+00 0.  1.
</event>
<event>
 5    1  0.6776507E+001  0.1599671E+01  0.7818608E-02  0.3353720E+00
         11   -1    0    0    0    0  0.00000000000E+00  0.00000000000E+00  0.39999999674E+01  0.40000000000E+01  0.51100000000E-03 0. -1.
    9000002   -1    0    0    0    0 -0.00000000000E+00 -0.00000000000E+00  0.00000000000E+00  0.93800000000E+00  0.93800000000E+00 0.  1.
         11    1    1    2    0    0 -0.10362943132E+00 -0.51967672204E-01  0.88882938597E+00  0.89635798456E+00  0.51100000000E-03 0. -1.
    9000002    1    1    2    0    0  0.45580336695E+00  0.22032665084E+00  0.17564327660E+00  0.10802754755E+01  0.93800000000E+00 0.  1.
         22    1    1    2    0    0 -0.35217393563E+00 -0.16835897864E+00  0.29355273048E+01  0.29613665399E+01  0.00000000000E+00 0. -1.
</event>
<event>
 5    1  0.6776507E+001  0.1599616E+01  0.7818608E-02  0.3353781E+00
         11   -1    0    0    0    0  0.00000000000E+00  0.00000000000E+00  0.39999999674E+01  0.40000000000E+01  0.51100000000E-03 0. -1.
    9000002   -1    0    0    0    0 -0.00000000000E+00 -0.00000000000E+00  0.00000000000E+00  0.93800000000E+00  0.93800000000E+00 0.  1.
         11    1    1    2    0    0  0.10613757834E+00  0.23497785258E-02  0.10469287428E+01  0.10522978479E+01  0.51100000000E-03 0. -1.
    9000002    1    1    2    0    0 -0.37489975353E+00  0.14284373835E-01  0.94700126787E-01  0.10146753089E+01  0.93800000000E+00 0.  1.
         22    1    1    2    0    0  0.26876217519E+00 -0.16634152360E-01  0.28583710978E+01  0.28710268432E+01  0.00000000000E+00 0. -1.
</event>
<event>
 5    1  0.6776507E+001  0.1586207E+01  0.7818608E-02  0.3368471E+00
         11   -1    0    0    0    0  0.00000000000E+00  0.00000000000E+00  0.39999999674E+01  0.40000000000E+01  0.51100000000E-03 0.  1.
    9000002   -1    0    0    0    0 -0.00000000000E+00 -0.00000000000E+00  0.00000000000E+00  0.93800000000E+00  0.93800000000E+00 0. -1.
         11    1    1    2    0    0  0.29291874528E+00  0.21894437931E-02  0.75576405585E+00  0.81054657746E+00  0.51100000000E-03 0.  1.
    9000002    1    1    2    0    0 -0.83256635758E+00  0.20795155845E+00  0.57356677620E+00  0.13947162569E+01  0.93800000000E+00 0. -1.
         22    1    1    2    0    0  0.53964761230E+00 -0.21014100224E+00  0.26706691353E+01  0.27327371657E+01  0.00000000000E+00 0.  1.
</event>
<event>
 5    1  0.6776507E+001  0.1599631E+01  0.7818608E-02  0.3353764E+00
         11   -1    0    0    0    0  0.00000000000E+00  0.00000000000E+00  0.39999999674E+01  0.40000000000E+01  0.51100000000E-03 0.  1.
    9000002   -1    0    0    0    0 -0.00000000000E+00 -0.00000000000E+00  0.00000000000E+00  0.93800000000E+00  0.93800000000E+00 0.  1.
         11    1    1    2    0    0 -0.15186629528E-01  0.51508872401E-01  0.37739950124E+00  0.38120131468E+00  0.51100000000E-03 0.  1.
    9000002    1    1    2    0    0  0.10711302273E+00 -0.50497484933E+00  0.18296484177E+00  0.10861827339E+01  0.93800000000E+00 0.  1.
         22    1    1    2    0    0 -0.91926393203E-01  0.45346597693E+00  0.34396356243E+01  0.34706159514E+01  0.00000000000E+00 0.  1.
</event>
<event>
 5    1  0.6776507E+001  0.1599677E+01  0.7818608E-02  0.3353714E+00
         11   -1    0    0    0    0  0.00000000000E+00  0.00000000000E+00  0.39999999674E+01  0.40000000000E+01  0.51100000000E-03 0. -1.
    9000002   -1    0    0    0    0 -0.00000000000E+00 -0.00000000000E+00  0.00000000000E+00  0.93800000000E+00  0.93800000000E+00 0. -1.
         11    1    1    2    0    0  0.10427382745E+00  0.37989127925E-01  0.10475559476E+01  0.10534182120E+01  0.51100000000E-03 0. -1.
    9000002    1    1    2    0    0 -0.38780211015E+00 -0.14066588805E+00  0.11497620613E+00  0.10311357315E+01  0.93800000000E+00 0. -1.
         22    1    1    2    0    0  0.28352828270E+00  0.10267676012E+00  0.28374678136E+01  0.28534460565E+01  0.00000000000E+00 0. -1.
</event>
<event>
 5    1  0.6776507E+001  0.1599667E+01  0.7818608E-02  0.3353725E+00
         11   -1    0    0    0    0  0.00000000000E+00  0.00000000000E+00  0.39999999674E+01  0.40000000000E+01  0.51100000000E-03 0. -1.
    9000002   -1    0    0    0    0 -0.00000000000E+00 -0.00000000000E+00  0.00000000000E+00  0.93800000000E+00  0.93800000000E+00 0. -1.
         11    1    1    2    0    0 -0.18941503533E-01 -0.14605520538E-02  0.15903299578E+00  0.16016450492E+00  0.51100000000E-03 0. -1.
    9000002    1    1    2    0    0  0.42940058577E+00  0.22490386326E-01  0.12522288448E+00  0.10394303494E+01  0.93800000000E+00 0. -1.
         22    1    1    2    0    0 -0.41045908224E+00 -0.21029834272E-01  0.37157440871E+01  0.37384051456E+01  0.00000000000E+00 0. -1.
</event>
<event>
 5    1  0.6776507E+001  0.1599629E+01  0.7818608E-02  0.3353766E+00
         11   -1    0    0    0    0  0.00000000000E+00  0.00000000000E+00  0.39999999674E+01  0.40000000000E+01  0.51100000000E-03 0. -1.
    9000002   -1    0    0    0    0 -0.00000000000E+00 -0.00000000000E+00  0.00000000000E+00  0.93800000000E+00  0.93800000000E+00 0.  1.
         11    1    1    2    0    0  0.15006465599E-01 -0.15517407316E-01  0.13355113885E+00  0.13528544544E+00  0.51100000000E-03 0. -1.
    9000002    1    1    2    0    0 -0.41049166684E+00  0.35567965262E+00  0.20354701830E+00  0.11028539398E+01  0.93800000000E+00 0.  1.
         22    1    1    2    0    0  0.39548520124E+00 -0.34016224530E+00  0.36629018102E+01  0.36998606148E+01  0.00000000000E+00 0. -1.
</event>
<event>
 5    1  0.6776507E+001  0.1599673E+01  0.7818608E-02  0.3353718E+00
         11   -1    0    0    0    0  0.00000000000E+00  0.00000000000E+00  0.39999999674E+01  0.40000000000E+01  0.51100000000E-03 0. -1.
    9000002   -1    0    0    0    0 -0.00000000000E+00 -0.00000000000E+00  0.00000000000E+00  0.93800000000E+00  0.93800000000E+00 0.  1.
         11    1    1    2    0    0  0.20004394825E-01  0.12665906602E+00  0.11774154436E+01  0.11843775086E+01  0.51100000000E-03 0. -1.
    9000002    1    1    2    0    0 -0.59232817742E-01 -0.42027289989E+00  0.12190521309E+00  0.10367462168E+01  0.93800000000E+00 0.  1.
         22    1    1    2    0    0  0.39228422917E-01  0.29361383387E+00  0.27006793107E+01  0.27168762746E+01  0.00000000000E+00 0. -1.
</event>
<event>
 5    1  0.6776507E+001  0.1599675E+01  0.7818608E-02  0.3353717E+00
         11   -1    0    0    0    0  0.00000000000E+00  0.00000000000E+00  0.39999999674E+01  0.40000000000E+01  0.51100000000E-03 0.  1.
    9000002   -1    0    0    0    0 -0.00000000000E+00 -0.00000000000E+00  0.00000000000E+00  0.93800000000E+00  0.93800000000E+00 0. -1.
         11    1    1    2    0    0  0.12445894955E+00  0.12870243926E-01  0.13249650315E+01  0.13308599735E+01  0.51100000000E-03 0.  1.
    9000002    1    1    2    0    0 -0.37151296975E+00 -0.40426052082E-01  0.93897377955E-01  0.10140595988E+01  0.93800000000E+00 0. -1.
         22    1    1    2    0    0  0.24705402021E+00  0.27555808156E-01  0.25811375579E+01  0.25930804277E+01  0.00000000000E+00 0.  1.
</event>
<event>
 5    1  0.6776507E+001  0.1599643E+01  0.7818608E-02  0.3353751E+00
         11   -1    0    0    0    0  0.00000000000E+00  0.00000000000E+00  0.39999999674E+01  0.40000000000E+01  0.51100000000E-03 0.  1.
    9000002   -1    0    0    0    0 -0.00000000000E+00 -0.00000000000E+00  0.00000000000E+00  0.93800000000E+00  0.93800000000E+00 0. -1.
         11    1    1    2    0    0 -0.94836069408E-02 -0.30105681503E-01  0.24819111502E+00  0.25019069038E+00  0.51100000000E-03 0.  1.
    9000002    1    1    2    0    0  0.94740148879E-01  0.45917028946E+00  0.14974927584E+00  0.10592836712E+01  0.93800000000E+00 0. -1.
         22    1    1    2    0    0 -0.85256541938E-01 -0.42906460796E+00  0.36020595765E+01  0.36285256384E+01  0.00000000000E+00 0.  1.
</event>
<event>
 5    1  0.6776507E+001  0.1599136E+01  0.7818608E-02  0.3354301E+00
         11   -1    0    0    0    0  0.00000000000E+00  0.00000000000E+00  0.39999999674E+01  0.40000000000E+01  0.51100000000E-03 0. -1.
    9000002   -1    0    0    0    0 -0.00000000000E+00 -0.00000000000E+00  0.00000000000E+00  0.93800000000E+00  0.93800000000E+00 0.  1.
         11    1    1    2    0    0  0.10442282600E-01  0.29074695524E-01  0.12861316408E+00  0.13227239425E+00  0.51100000000E-03 0. -1.
    9000002    1    1    2    0    0  0.51164587873E-03 -0.82103401677E+00  0.50092247105E+00  0.13434524333E+01  0.93800000000E+00 0.  1.
         22    1    1    2    0    0 -0.10953928479E-01  0.79195932125E+00  0.33704643322E+01  0.34622751725E+01  0.00000000000E+00 0. -1.
</event>
<event>
 5    1  0.6776507E+001  0.1599673E+01  0.7818608E-02  0.3353718E+00
         11   -1    0    0    0    0  0.00000000000E+00  0.00000000000E+00  0.39999999674E+01  0.40000000000E+01  0.51100000000E-03 0. -1.
    9000002   -1    0    0    0    0 -0.00000000000E+00 -0.00000000000E+00  0.00000000000E+00  0.93800000000E+00  0.93800000000E+00 0.  1.
         11    1    1    2    0    0 -0.12675213594E+00 -0.87404485568E-01  0.12606758383E+01  0.12700431010E+01  0.51100000000E-03 0. -1.
    9000002    1    1    2    0    0  0.38313180281E+00  0.27233735623E+00  0.15053096815E+00  0.10599345198E+01  0.93800000000E+00 0.  1.
         22    1    1    2    0    0 -0.25637966688E+00 -0.18493287066E+00  0.25887931610E+01  0.26080223792E+01  0.00000000000E+00 0. -1.
</event>
<event>
 5    1  0.6776507E+001  0.1560473E+01  0.7818608E-02  0.3397414E+00
         11   -1    0    0    0    0  0.00000000000E+00  0.00000000000E+00  0.39999999674E+01  0.40000000000E+01  0.51100000000E-03 0. -1.
    9000002   -1    0    0    0    0 -0.00000000000E+00 -0.00000000000E+00  0.00000000000E+00  0.93800000000E+00  0.93800000000E+00 0.  1.
         11    1    1    2    0    0 -0.13123881467E+00  0.18941589209E+00  0.12878498779E+01  0.13083040839E+01  0.51100000000E-03 0. -1.
    9000002    1    1    2    0    0  0.14040775941E+00  0.52452241429E-01  0.44345884485E-01  0.95093434789E+00  0.93800000000E+00 0.  1.
         22    1    1    2    0    0 -0.91689447408E-02 -0.24186813352E+00  0.26678042049E+01  0.26787615682E+01  0.00000000000E+00 0. -1.
</event>
<event>
 5    1  0.6776507E+001  0.1599650E+01  0.7818608E-02  0.3353744E+00
         11   -1    0    0    0    0  0.00000000000E+00  0.00000000000E+00  0.39999999674E+01  0.40000000000E+01  0.51100000000E-03 0. -1.
    9000002   -1    0    0    0    0 -0.00000000000E+00 -0.00000000000E+00  0.00000000000E+00  0.93800000000E+00  0.93800000000E+00 0.  1.
         11    1    1    2    0    0 -0.54940905673E-01  0.37406064254E-01  0.73805402598E+00  0.74104097265E+00  0.51100000000E-03 0. -1.
    9000002    1    1    2    0    0  0.30347928299E+00 -0.22065941886E+00  0.94697272758E-01  0.10146929722E+01  0.93800000000E+00 0.  1.
         22    1    1    2    0    0 -0.24853837731E+00  0.18325335461E+00  0.31672486686E+01  0.31822660552E+01  0.00000000000E+00 0. -1.
</event>
<event>
 5    1  0.6776507E+001  0.1599661E+01  0.7818608E-02  0.3353732E+00
         11   -1    0    0    0    0  0.00000000000E+00  0.00000000000E+00  0.39999999674E+01  0.40000000000E+01  0.51100000000E-03 0. -1.
    9000002   -1    0    0    0    0 -0.00000000000E+00 -0.00000000000E+00  0.00000000000E+00  0.93800000000E+00  0.93800000000E+00 0.  1.
         11    1    1    2    0    0 -0.15261855990E-01 -0.28921763627E-01  0.33838772864E+00  0.33996456973E+00  0.51100000000E-03 0. -1.
    9000002    1    1    2    0    0  0.16398493398E+00  0.36184822182E+00  0.10643277648E+00  0.10242056093E+01  0.93800000000E+00 0.  1.
         22    1    1    2    0    0 -0.14872307799E+00 -0.33292645820E+00  0.35551794622E+01  0.35738298210E+01  0.00000000000E+00 0. -1.
</event>
<event>
 5    1  0.6776507E+001  0.1599676E+01  0.7818608E-02  0.3353715E+00
         11   -1    0    0    0    0  0.00000000000E+00  0.00000000000E+00  0.39999999674E+01  0.40000000000E+01  0.51100000000E-03 0.  1.
    9000002   -1    0    0    0    0 -0.00000000000E+00 -0.00000000000E+00  0.00000000000E+00  0.93800000000E+00  0.93800000000E+00 0.  1.
         11    1    1    2    0    0  0.26951259756E-01 -0.15532858909E+00  0.14315398373E+01  0.14401943993E+01  0.51100000000E-03 0.  1.
    9000002    1    1    2    0    0 -0.72445900782E-01  0.41810714960E+00  0.12184957963E+00  0.10367030998E+01  0.93800000000E+00 0.  1.
         22    1    1    2    0    0  0.45494641026E-01 -0.26277856052E+00  0.24466105505E+01  0.24611025009E+01  0.00000000000E+00 0.  1.
</event>
<event>
 5    1  0.6776507E+001  0.1599661E+01  0.7818608E-02  0.3353731E+00
         11   -1    0    0    0    0  0.00000000000E+00  0.00000000000E+00  0.39999999674E+01  0.40000000000E+01  0.51100000000E-03 0. -1.
    9000002   -1    0    0    0    0 -0.00000000000E+00 -0.00000000000E+00  0.00000000000E+00  0.93800000000E+00  0.93800000000E+00 0. -1.
         11    1    1    2    0    0 -0.44437050911E-01  0.26769322457E-01  0.40068098910E+00  0.40402569754E+00  0.51100000000E-03 0. -1.
    9000002    1    1    2    0    0  0.45073642350E+00 -0.24876056850E+00  0.18191359170E+00  0.10853486531E+01  0.93800000000E+00 0. -1.
         22    1    1    2    0    0 -0.40629937259E+00  0.22199124605E+00  0.34174053866E+01  0.34486256494E+01  0.00000000000E+00 0. -1.
</event>
<event>
 5    1  0.6776507E+001  0.1599581E+01  0.7818608E-02  0.3353818E+00
         11   -1    0    0    0    0  0.00000000000E+00  0.00000000000E+00  0.39999999674E+01  0.40000000000E+01  0.51100000000E-03 0.  1.
    9000002   -1    0    0    0    0 -0.00000000000E+00 -0.00000000000E+00  0.00000000000E+00  0.93800000000E+00  0.93800000000E+00 0. -1.
         11    1    1    2    0    0 -0.79995570245E-02  0.27233110988E-01  0.23638524222E+00  0.23808376489E+00  0.51100000000E-03 0.  1.
    9000002    1    1    2    0    0  0.41805383203E-01 -0.42419937850E+00  0.12306613616E+00  0.10376329200E+01  0.93800000000E+00 0. -1.
         22    1    1    2    0    0 -0.33805826178E-01  0.39696626751E+00  0.36405485890E+01  0.36622833151E+01  0.00000000000E+00 0.  1.
</event>
<event>
 5    1  0.6776507E+001  0.1599677E+01  0.7818608E-02  0.3353714E+00
         11   -1    0    0    0    0  0.00000000000E+00  0.00000000000E+00  0.39999999674E+01  0.40000000000E+01  0.51100000000E-03 0. -1.
    9000002   -1    0    0    0    0 -0.00000000000E+00 -0.00000000000E+00  0.00000000000E+00  0.93800000000E+00  0.93800000000E+00 0. -1.
         11    1    1    2    0    0 -0.12037107695E+00 -0.41608637907E-01  0.86698837178E+00  0.87629308615E+00  0.51100000000E-03 0. -1.
    9000002    1    1    2    0    0  0.52539823007E+00  0.18006982023E+00  0.21327957261E+00  0.11107657793E+01  0.93800000000E+00 0. -1.
         22    1    1    2    0    0 -0.40502715312E+00 -0.13846118232E+00  0.29197320230E+01  0.29509411346E+01  0.00000000000E+00 0. -1.
</event>
<event>
 5    1  0.6776507E+001  0.1598731E+01  0.7818608E-02  0.3354741E+00
         11   -1    0    0    0    0  0.00000000000E+00  0.00000000000E+00  0.39999999674E+01  0.40000000000E+01  0.51100000000E-03 0. -1.
    9000002   -1    0    0    0    0 -0.00000000000E+00 -0.00000000000E+00  0.00000000000E+00  0.93800000000E+00  0.93800000000E+00 0.  1.
         11    1    1    2    0    0  0.70863595621E-01  0.27853147407E-01  0.10794553940E+01  0.10821375401E+01  0.51100000000E-03 0. -1.
    9000002    1    1    2    0    0 -0.34935716288E+00 -0.17566003415E+00  0.10380394728E+00  0.10215312694E+01  0.93800000000E+00 0.  1.
         22    1    1    2    0    0  0.27849356725E+00  0.14780688674E+00  0.28167406261E+01  0.28343311905E+01  0.00000000000E+00 0. -1.
</event>
<event>
 5    1  0.6776507E+001  0.1599674E+01  0.7818608E-02  0.3353717E+00
         11   -1    0    0    0    0  0.00000000000E+00  0.00000000000E+00  0.39999999674E+01  0.40000000000E+01  0.51100000000E-03 0. -1.
    9000002   -1    0    0    0    0 -0.00000000000E+00 -0.00000000000E+00  0.00000000000E+00  0.93800000000E+00  0.93800000000E+00 0.  1.
         11    1    1    2    0    0  0.12796914274E+00  0.15054249737E+00  0.11176238039E+01  0.11349547891E+01  0.51100000000E-03 0. -1.
    9000002    1    1    2    0    0 -0.41764621326E+00 -0.49776342691E+00  0.29790909517E+00  0.11793178611E+01  0.93800000000E+00 0.  1.
         22    1    1    2    0    0  0.28967707052E+00  0.34722092953E+00  0.25844670683E+01  0.26237273498E+01  0.00000000000E+00 0.  1.
</event>
<event>
 5    1  0.6776507E+001  0.1599677E+01  0.7818608E-02  0.3353714E+00
         11   -1    0    0    0    0  0.00000000000E+00  0.00000000000E+00  0.39999999674E+01  0.40000000000E+01  0.51100000000E-03 0.  1.
    9000002   -1    0    0    0    0 -0.00000000000E+00 -0.00000000000E+00  0.00000000000E+00  0.93800000000E+00  0.93800000000E+00 0. -1.
         11    1    1    2    0    0 -0.94771205131E-01 -0.84873336107E-01  0.98460999145E+00  0.99279512534E+00  0.51100000000E-03 0.  1.
    9000002    1    1    2    0    0  0.36922840311E+00  0.33158544593E+00  0.16848641665E+00  0.10744813606E+01  0.93800000000E+00 0. -1.
         22    1    1    2    0    0 -0.27445719798E+00 -0.24671210982E+00  0.28469035593E+01  0.28707235141E+01  0.00000000000E+00 0.  1.
</event>
<event>
 5    1  0.6776507E+001  0.1599677E+01  0.7818608E-02  0.3353715E+00
         11   -1    0    0    0    0  0.00000000000E+00  0.00000000000E+00  0.39999999674E+01  0.40000000000E+01  0.51100000000E-03 0.  1.
    9000002   -1    0    0    0    0 -0.00000000000E+00 -0.00000000000E+00  0.00000000000E+00  0.93800000000E+00  0.93800000000E+00 0. -1.
         11    1    1    2    0    0  0.51967690650E-01  0.18199363096E+00  0.13869496793E+01  0.13998042708E+01  0.51100000000E-03 0.  1.
    9000002    1    1    2    0    0 -0.14509642014E+00 -0.49994420829E+00  0.18617194076E+00  0.10888072254E+01  0.93800000000E+00 0. -1.
         22    1    1    2    0    0  0.93128729493E-01  0.31795057733E+00  0.24268783473E+01  0.24493885038E+01  0.00000000000E+00 0.  1.
</event>
<event>
 5    1  0.6776507E+001  0.1278142E+01  0.7818608E-02  0.3824629E+00
         11   -1    0    0    0    0  0.00000000000E+00  0.00000000000E+00  0.39999999674E+01  0.40000000000E+01  0.51100000000E-03 0.  1.
    9000002   -1    0    0    0    0 -0.00000000000E+00 -0.00000000000E+00  0.00000000000E+00  0.93800000000E+00  0.93800000000E+00 0.  1.
         11    1    1    2    0    0 -0.61156040712E+00 -0.13568135065E+00  0.88186839390E+00  0.10817151593E+01  0.51100000000E-03 0.  1.
    9000002    1    1    2    0    0  0.56427309001E-01  0.29435986242E+00  0.37605676557E+00  0.10540846554E+01  0.93800000000E+00 0.  1.
         22    1    1    2    0    0  0.55513309812E+00 -0.15867851177E+00  0.27420748079E+01  0.28022001854E+01  0.00000000000E+00 0.  1.
</event>
<event>
 5    1  0.6776507E+001  0.1599347E+01  0.7818608E-02  0.3354072E+00
         11   -1    0    0    0    0  0.00000000000E+00  0.00000000000E+00  0.39999999674E+01  0.40000000000E+01  0.51100000000E-03 0. -1.
    9000002   -1    0    0    0    0 -0.00000000000E+00 -0.00000000000E+00  0.00000000000E+00  0.93800000000E+00  0.93800000000E+00 0. -1.
         11    1    1    2    0    0 -0.68800806195E-01 -0.12420539702E+00  0.14922967614E+01  0.14990364961E+01  0.51100000000E-03 0. -1.
    9000002    1    1    2    0    0  0.14540327571E+00  0.36789393089E+00  0.10576850906E+00  0.10234837734E+01  0.93800000000E+00 0. -1.
         22    1    1    2    0    0 -0.76602469515E-01 -0.24368853387E+00  0.24019346969E+01  0.24154797305E+01  0.00000000000E+00 0. -1.
</event>
<event>
 5    1  0.6776507E+001  0.1599675E+01  0.7818608E-02  0.3353716E+00
         11   -1    0    0    0    0  0.00000000000E+00  0.00000000000E+00  0.39999999674E+01  0.40000000000E+01  0.51100000000E-03 0. -1.
    9000002   -1    0    0    0    0 -0.00000000000E+00 -0.00000000000E+00  0.00000000000E+00  0.93800000000E+00  0.93800000000E+00 0.  1.
         11    1    1    2    0    0 -0.55318718361E-01  0.13608550002E-01  0.42387440169E+00  0.42768577573E+00  0.51100000000E-03 0. -1.
    9000002    1    1    2    0    0  0.50271939401E+00 -0.13002573203E+00  0.18519361888E+00  0.10880138586E+01  0.93800000000E+00 0.  1.
         22    1    1    2    0    0 -0.44740067565E+00  0.11641718203E+00  0.33909319468E+01  0.34223003656E+01  0.00000000000E+00 0. -1.
</event>
<event>
 5    1  0.6776507E+001  0.1589585E+01  0.7818608E-02  0.3364746E+00
         11   -1    0    0    0    0  0.00000000000E+00  0.00000000000E+00  0.39999999674E+01  0.40000000000E+01  0.51100000000E-03 0. -1.
    9000002   -1    0    0    0    0 -0.00000000000E+00 -0.00000000000E+00  0.00000000000E+00  0.93800000000E+00  0.93800000000E+00 0.  1.
         11    1    1    2    0    0 -0.27187736600E-01 -0.14994928956E+00  0.43107184087E+00  0.45721674901E+00  0.51100000000E-03 0. -1.
    9000002    1    1    2    0    0  0.66335497222E-01  0.62511764577E+00  0.28789462701E+00  0.11652895715E+01  0.93800000000E+00 0.  1.
         22    1    1    2    0    0 -0.39147760622E-01 -0.47516835621E+00  0.32810334995E+01  0.33154936795E+01  0.00000000000E+00 0. -1.
</event>
<event>
 5    1  0.6776507E+001  0.1599434E+01  0.7818608E-02  0.3353978E+00
         11   -1    0    0    0    0  0.00000000000E+00  0.00000000000E+00  0.39999999674E+01  0.40000000000E+01  0.51100000000E-03 0. -1.
    9000002   -1    0    0    0    0 -0.00000000000E+00 -0.00000000000E+00  0.00000000000E+00  0.93800000000E+00  0.93800000000E+00 0. -1.
         11    1    1    2    0    0  0.68176954222E-01 -0.12479419352E-01  0.95236623934E+00  0.95488509673E+00  0.51100000000E-03 0. -1.
    9000002    1    1    2    0    0 -0.34682467754E+00  0.51377961657E-01  0.82625064840E-01  0.10047875165E+01  0.93800000000E+00 0. -1.
         22    1    1    2    0    0  0.27864772332E+00 -0.38898542305E-01  0.29650086632E+01  0.29783273868E+01  0.00000000000E+00 0.  1.
</event>
<event>
 5    1  0.6776507E+001  0.1554332E+01  0.7818608E-02  0.3404472E+00
         11   -1    0    0    0    0  0.00000000000E+00  0.00000000000E+00  0.39999999674E+01  0.40000000000E+01  0.51100000000E-03 0. -1.
    9000002   -1    0    0    0    0 -0.00000000000E+00 -0.00000000000E+00  0.00000000000E+00  0.93800000000E+00  0.93800000000E+00 0. -1.
         11    1    1    2    0    0 -0.13165130485E+00  0.15120115141E+00  0.13954905504E+01  0.14098184251E+01  0.51100000000E-03 0. -1.
    9000002    1    1    2    0    0 -0.89620011888E-01  0.88704855813E-01  0.44532878541E-01  0.94748481531E+00  0.93800000000E+00 0. -1.
         22    1    1    2    0    0  0.22127131673E+00 -0.23990600722E+00  0.25599765384E+01  0.25806967596E+01  0.00000000000E+00 0. -1.
</event>
<event>
 5    1  0.6776507E+001  0.1531529E+01  0.7818608E-02  0.3431206E+00
         11   -1    0    0    0    0  0.00000000000E+00  0.00000000000E+00  0.39999999674E+01  0.40000000000E+01  0.51100000000E-03 0.  1.
    9000002   -1    0    0    0    0 -0.00000000000E+00 -0.00000000000E+00  0.00000000000E+00  0.93800000000E+00  0.93800000000E+00 0.  1.
         11    1    1    2    0    0  0.16362701872E+00  0.26187113832E-01  0.66604032706E+00  0.68634506232E+00  0.51100000000E-03 0.  1.
    9000002    1    1    2    0    0  0.24888961471E+00  0.53089508410E+00  0.30934381321E+00  0.11486223163E+01  0.93800000000E+00 0.  1.
         22    1    1    2    0    0 -0.41251663343E+00 -0.55708219794E+00  0.30246158271E+01  0.31030326214E+01  0.00000000000E+00 0.  1.
</event>
<event>
 5    1  0.6776507E+001  0.1599673E+01  0.7818608E-02  0.3353718E+00
         11   -1    0    0    0    0  0.00000000000E+00  0.00000000000E+00  0.39999999674E+01  0.40000000000E+01  0.51100000000E-03 0. -1.
    9000002   -1    0    0    0    0 -0.00000000000E+00 -0.00000000000E+00  0.00000000000E+00  0.93800000000E+00  0.93800000000E+00 0.  1.
         11    1    1    2    0    0 -0.19656879173E-01 -0.11584975172E-01  0.19893342514E+00  0.20023829131E+00  0.51100000000E-03 0. -1.
    9000002    1    1    2    0    0  0.37891557273E+00  0.20837324922E+00  0.12668711786E+00  0.10406200306E+01  0.93800000000E+00 0.  1.
         22    1    1    2    0    0 -0.35925869356E+00 -0.19678827405E+00  0.36743794244E+01  0.36971416781E+01  0.00000000000E+00 0. -1.
</event>
<event>
 5    1  0.6776507E+001  0.1599677E+01  0.7818608E-02  0.3353714E+00
         11   -1    0    0    0    0  0.00000000000E+00  0.00000000000E+00  0.39999999674E+01  0.40000000000E+01  0.51100000000E-03 0.  1.
    9000002   -1    0    0    0    0 -0.00000000000E+00 -0.00000000000E+00  0.00000000000E+00  0.93800000000E+00  0.93800000000E+00 0. -1.
         11    1    1    2    0    0 -0.12976638187E+00  0.54443379494E-01  0.12094376615E+01  0.12175972707E+01  0.51100000000E-03 0. -1.
    9000002    1    1    2    0    0  0.41414024574E+00 -0.17510659847E+00  0.13730650885E+00  0.10492242569E+01  0.93800000000E+00 0. -1.
         22    1    1    2    0    0 -0.28437386387E+00  0.12066321897E+00  0.26532557970E+01  0.26711784724E+01  0.00000000000E+00 0.  1.
</event>
<event>
 5    1  0.6776507E+001  0.1523679E+01  0.7818608E-02  0.3440606E+00
         11   -1    0    0    0    0  0.00000000000E+00  0.00000000000E+00  0.39999999674E+01  0.40000000000E+01  0.51100000000E-03 0. -1.
    9000002   -1    0    0    0    0 -0.00000000000E+00 -0.00000000000E+00  0.00000000000E+00  0.93800000000E+00  0.93800000000E+00 0. -1.
         11    1    1    2    0    0 -0.29503038552E+00 -0.44117036544E-01  0.10146228234E+01  0.10575674807E+01  0.51100000000E-03 0. -1.
    9000002    1    1    2    0    0  0.22638975928E-01  0.31078135994E-01  0.58210798995E-01  0.94059070317E+00  0.93800000000E+00 0. -1.
         22    1    1    2    0    0  0.27239140959E+00  0.13038900550E-01  0.29271663449E+01  0.29398418161E+01  0.00000000000E+00 0. -1.
</event>
<event>
 5    1  0.6776507E+001  0.1579537E+01  0.7818608E-02  0.3375877E+00
         11   -1    0    0    0    0  0.00000000000E+00  0.00000000000E+00  0.39999999674E+01  0.40000000000E+01  0.51100000000E-03 0.  1.
    9000002   -1    0    0    0    0 -0.00000000000E+00 -0.00000000000E+00  0.00000000000E+00  0.93800000000E+00  0.93800000000E+00 0. -1.
         11    1    1    2    0    0  0.14255341535E-01  0.10269711973E+00  0.47581249736E+00  0.48697813804E+00  0.51100000000E-03 0.  1.
    9000002    1    1    2    0    0 -0.28770932248E+00  0.58760236649E-01  0.73371743384E-01  0.98562509728E+00  0.93800000000E+00 0. -1.
         22    1    1    2    0    0  0.27345398094E+00 -0.16145735638E+00  0.34508157266E+01  0.34653967647E+01  0.00000000000E+00 0.  1.
</event>
<event>
 5    1  0.6882399E+001  0.1599669E+01  0.7818608E-02  0.3353723E+00
         11   -1    0    0    0    0  0.00000000000E+00  0.00000000000E+00  0.39999999674E+01  0.40000000000E+01  0.51100000000E-03 0. -1.
    9000002   -1    0    0    0    0 -0.00000000000E+00 -0.00000000000E+00  0.00000000000E+00  0.93800000000E+00  0.93800000000E+00 0. -1.
         11    1    1    2    0    0 -0.13059511342E+00 -0.53263020733E-01  0.14775041196E+01  0.14842205758E+01  0.51100000000E-03 0. -1.
    9000002    1    1    2    0    0  0.35386586381E+00  0.14172775935E+00  0.97790034616E-01  0.10172092696E+01  0.93800000000E+00 0. -1.
         22    1    1    2    0    0 -0.22327075038E+00 -0.88464738613E-01  0.24247058132E+01  0.24365701546E+01  0.00000000000E+00 0. -1.
</event>
<event>
 5    1  0.6776507E+001  0.1579623E+01  0.7818608E-02  0.3375782E+00
         11   -1    0    0    0    0  0.00000000000E+00  0.00000000000E+00  0.39999999674E+01  0.40000000000E+01  0.51100000000E-03 0.  1.
    9000002   -1    0    0    0    0 -0.00000000000E+00 -0.00000000000E+00  0.00000000000E+00  0.93800000000E+00  0.93800000000E+00 0. -1.
         11    1    1    2    0    0 -0.17015012227E+00  0.71631793237E-01  0.14393684718E+01  0.14511595490E+01  0.51100000000E-03 0.  1.
    9000002    1    1    2    0    0  0.63738823905E-01 -0.39540992527E+00  0.12509331619E+00  0.10275718877E+01  0.93800000000E+00 0. -1.
         22    1    1    2    0    0  0.10641129836E+00  0.32377813203E+00  0.24355381794E+01  0.24592685633E+01  0.00000000000E+00 0.  1.
</event>
<event>
 5    1  0.6776507E+001  0.1599675E+01  0.7818608E-02  0.3353716E+00
         11   -1    0    0    0    0  0.00000000000E+00  0.00000000000E+00  0.39999999674E+01  0.40000000000E+01  0.51100000000E-03 0.  1.
    9000002   -1    0    0    0    0 -0.00000000000E+00 -0.00000000000E+00  0.00000000000E+00  0.93800000000E+00  0.93800000000E+00 0.  1.
         11    1    1    2    0    0 -0.57232602680E-03 -0.30021522326E-01  0.16381787894E+00  0.16654782478E+00  0.51100000000E-03 0.  1.
    9000002    1    1    2    0    0  0.17592765187E-01  0.66634481030E+00  0.31481274884E+00  0.11930113069E+01  0.93800000000E+00 0.  1.
         22    1    1    2    0    0 -0.17020439160E-01 -0.63632328797E+00  0.35213693396E+01  0.35784408683E+01  0.00000000000E+00 0.  1.
</event>
<event>
 5    1  0.6776507E+001  0.1599677E+01  0.7818608E-02  0.3353714E+00
         11   -1    0    0    0    0  0.00000000000E+00  0.00000000000E+00  0.39999999674E+01  0.40000000000E+01  0.51100000000E-03 0. -1.
    9000002   -1    0    0    0    0 -0.00000000000E+00 -0.00000000000E+00  0.00000000000E+00  0.93800000000E+00  0.93800000000E+00 0.  1.
         11    1    1    2    0    0  0.22700841388E-01 -0.35391450589E-01  0.43626440994E+00  0.43828618445E+00  0.51100000000E-03 0.  1.
    9000002    1    1    2    0    0 -0.20326678810E+00  0.31797458932E+00  0.95799565473E-01  0.10156016854E+01  0.93800000000E+00 0.  1.
         22    1    1    2    0    0  0.18056594671E+00 -0.28258313873E+00  0.34679359919E+01  0.34841121302E+01  0.00000000000E+00 0. -1.
</event>
<event>
 5    1  0.6776507E+001  0.1541196E+01  0.7818608E-02  0.3419769E+00
         11   -1    0    0    0    0  0.00000000000E+00  0.00000000000E+00  0.39999999674E+01  0.40000000000E+01  0.51100000000E-03 0.  1.
    9000002   -1    0    0    0    0 -0.00000000000E+00 -0.00000000000E+00  0.00000000000E+00  0.93800000000E+00  0.93800000000E+00 0.  1.
         11    1    1    2    0    0 -0.15951239640E+00  0.92144779641E-01  0.60735727563E+00  0.63467943594E+00  0.51100000000E-03 0.  1.
    9000002    1    1    2    0    0 -0.76489517246E-01  0.20488291001E+00  0.77202706324E-01  0.96624629931E+00  0.93800000000E+00 0.  1.
         22    1    1    2    0    0  0.23600191365E+00 -0.29702768965E+00  0.33154399854E+01  0.33370742648E+01  0.00000000000E+00 0.  1.
</event>
<event>
 5    1  0.6776507E+001  0.1599676E+01  0.7818608E-02  0.3353715E+00
         11   -1    0    0    0    0  0.00000000000E+00  0.00000000000E+00  0.39999999674E+01  0.40000000000E+01  0.51100000000E-03 0.  1.
    9000002   -1    0    0    0    0 -0.00000000000E+00 -0.00000000000E+00  0.00000000000E+00  0.93800000000E+00  0.93800000000E+00 0.  1.
         11    1    1    2    0    0  0.97632045678E-01  0.83623382485E-01  0.97743416283E+00  0.98585125157E+00  0.51100000000E-03 0.  1.
    9000002    1    1    2    0    0 -0.38165196224E+00 -0.32418673476E+00  0.17167848301E+00  0.10770667393E+01  0.93800000000E+00 0.  1.
         22    1    1    2    0    0  0.28401991657E+00  0.24056335227E+00  0.28508873215E+01  0.28750820092E+01  0.00000000000E+00 0.  1.
</event>
<event>
 5    1  0.6776507E+001  0.1597506E+01  0.7818608E-02  0.3356075E+00
         11   -1    0    0    0    0  0.00000000000E+00  0.00000000000E+00  0.39999999674E+01  0.40000000000E+01  0.51100000000E-03 0. -1.
    9000002   -1    0    0    0    0 -0.00000000000E+00 -0.00000000000E+00  0.00000000000E+00  0.93800000000E+00  0.93800000000E+00 0. -1.
         11    1    1    2    0    0 -0.31476547432E-01  0.13513707524E+00  0.95072247639E+00  0.96079461404E+00  0.51100000000E-03 0. -1.
    9000002    1    1    2    0    0 -0.19466887209E-01 -0.42039877497E+00  0.12163280340E+00  0.10352548616E+01  0.93800000000E+00 0. -1.
         22    1    1    2    0    0  0.50943434641E-01  0.28526169973E+00  0.29276446876E+01  0.29419505243E+01  0.00000000000E+00 0. -1.
</event>
<event>
 5    1  0.6853764E+001  0.1518035E+01  0.7818608E-02  0.3447430E+00
         11   -1    0    0    0    0  0.00000000000E+00  0.00000000000E+00  0.39999999674E+01  0.40000000000E+01  0.51100000000E-03 0.  1.
    9000002   -1    0    0    0    0 -0.00000000000E+00 -0.00000000000E+00  0.00000000000E+00  0.93800000000E+00  0.93800000000E+00 0.  1.
         11    1    1    2    0    0 -0.16038814297E+00  0.21303346915E+00  0.74325499435E+00  0.78964287062E+00  0.51100000000E-03 0.  1.
    9000002    1    1    2    0    0  0.51439044316E-01  0.67475540545E-01  0.66741362277E-01  0.94419136476E+00  0.93800000000E+00 0.  1.
         22    1    1    2    0    0  0.10894909865E+00 -0.28050900970E+00  0.31900036107E+01  0.32041657646E+01  0.00000000000E+00 0.  1.
</event>
<event>
 5    1  0.6776507E+001  0.1596568E+01  0.7818608E-02  0.3357097E+00
         11   -1    0    0    0    0  0.00000000000E+00  0.00000000000E+00  0.39999999674E+01  0.40000000000E+01  0.51100000000E-03 0. -1.
    9000002   -1    0    0    0    0 -0.00000000000E+00 -0.00000000000E+00  0.00000000000E+00  0.93800000000E+00  0.93800000000E+00 0. -1.
         11    1    1    2    0    0  0.18610094428E-01  0.45597301504E-02  0.30772923808E+00  0.30832559389E+00  0.51100000000E-03 0. -1.
    9000002    1    1    2    0    0  0.11475706170E+00 -0.35357841813E+00  0.95428160117E-01  0.10134778807E+01  0.93800000000E+00 0. -1.
         22    1    1    2    0    0 -0.13336715613E+00  0.34901868798E+00  0.35968425692E+01  0.36161965254E+01  0.00000000000E+00 0. -1.
</event>
<event>
 5    1  0.6776507E+001  0.1599550E+01  0.7818608E-02  0.3353852E+00
         11   -1    0    0    0    0  0.00000000000E+00  0.00000000000E+00  0.39999999674E+01  0.40000000000E+01  0.51100000000E-03 0. -1.
    9000002   -1    0    0    0    0 -0.00000000000E+00 -0.00000000000E+00  0.00000000000E+00  0.93800000000E+00  0.93800000000E+00 0.  1.
         11    1    1    2    0    0  0.61718152865E-01 -0.34339143165E-01  0.84339903057E+00  0.84635128228E+00  0.51100000000E-03 0. -1.
    9000002    1    1    2    0    0 -0.30437898899E+00  0.20761382860E+00  0.91316144696E-01  0.10118956019E+01  0.93800000000E+00 0.  1.
         22    1    1    2    0    0  0.24266083613E+00 -0.17327468543E+00  0.30652847921E+01  0.30797531159E+01  0.00000000000E+00 0. -1.
</event>
<event>
 5    1  0.6776507E+001  0.1599355E+01  0.7818608E-02  0.3354064E+00
         11   -1    0    0    0    0  0.00000000000E+00  0.00000000000E+00  0.39999999674E+01  0.40000000000E+01  0.51100000000E-03 0.  1.
    9000002   -1    0    0    0    0 -0.00000000000E+00 -0.00000000000E+00  0.00000000000E+00  0.93800000000E+00  0.93800000000E+00 0.  1.
         11    1    1    2    0    0  0.29075654239E-02  0.15004069396E-01  0.25007703929E+00  0.25054413331E+00  0.51100000000E-03 0.  1.
    9000002    1    1    2    0    0  0.85713606506E-01 -0.33582687095E+00  0.80774686699E-01  0.10032422736E+01  0.93800000000E+00 0.  1.
         22    1    1    2    0    0 -0.88621171930E-01  0.32082280155E+00  0.36691482414E+01  0.36842135931E+01  0.00000000000E+00 0.  1.
</event>
<event>
 5    1  0.6776507E+001  0.1597463E+01  0.7818608E-02  0.3356122E+00
         11   -1    0    0    0    0  0.00000000000E+00  0.00000000000E+00  0.39999999674E+01  0.40000000000E+01  0.51100000000E-03 0. -1.
    9000002   -1    0    0    0    0 -0.00000000000E+00 -0.00000000000E+00  0.00000000000E+00  0.93800000000E+00  0.93800000000E+00 0.  1.
         11    1    1    2    0    0 -0.14225619147E-01 -0.41833249708E-01  0.23362930298E+00  0.23777153184E+00  0.51100000000E-03 0. -1.
    9000002    1    1    2    0    0 -0.75639508826E-01  0.37357284612E+00  0.99583234498E-01  0.10173685798E+01  0.93800000000E+00 0.  1.
         22    1    1    2    0    0  0.89865127973E-01 -0.33173959641E+00  0.36667874299E+01  0.36828598883E+01  0.00000000000E+00 0. -1.
</event>
<event>
 5    1  0.6776507E+001  0.1599449E+01  0.7818608E-02  0.3353962E+00
         11   -1    0    0    0    0  0.00000000000E+00  0.00000000000E+00  0.39999999674E+01  0.40000000000E+01  0.51100000000E-03 0. -1.
    9000002   -1    0    0    0    0 -0.00000000000E+00 -0.00000000000E+00  0.00000000000E+00  0.93800000000E+00  0.93800000000E+00 0. -1.
         11    1    1    2    0    0  0.11357826193E-02 -0.29834611899E-01  0.25349282067E+00  0.25524550010E+00  0.51100000000E-03 0. -1.
    9000002    1    1    2    0    0 -0.15233767654E+00  0.47091902488E+00  0.16776030719E+00  0.10737592916E+01  0.93800000000E+00 0. -1.
         22    1    1    2    0    0  0.15120189392E+00 -0.44108441298E+00  0.35787468395E+01  0.36089952083E+01  0.00000000000E+00 0. -1.
</event>
<event>
 5    1  0.6776507E+001  0.1593308E+01  0.7818608E-02  0.3360658E+00
         11   -1    0    0    0    0  0.00000000000E+00  0.00000000000E+00  0.39999999674E+01  0.40000000000E+01  0.51100000000E-03 0.  1.
    9000002   -1    0    0    0    0 -0.00000000000E+00 -0.00000000000E+00  0.00000000000E+00  0.93800000000E+00  0.93800000000E+00 0.  1.
         11    1    1    2    0    0 -0.70382776420E-01 -0.10611143288E+00  0.12585822703E+01  0.12650071003E+01  0.51100000000E-03 0.  1.
    9000002    1    1    2    0    0  0.47589418586E+00  0.36800017218E+00  0.25895109171E+00  0.11440275656E+01  0.93800000000E+00 0.  1.
         22    1    1    2    0    0 -0.40551140944E+00 -0.26188873930E+00  0.24824666053E+01  0.25289653342E+01  0.00000000000E+00 0.  1.
</event>
<event>
 5    1  0.6776507E+001  0.1599677E+01  0.7818608E-02  0.3353714E+00
         11   -1    0    0    0    0  0.00000000000E+00  0.00000000000E+00  0.39999999674E+01  0.40000000000E+01  0.51100000000E-03 0. -1.
    9000002   -1    0    0    0    0 -0.00000000000E+00 -0.00000000000E+00  0.00000000000E+00  0.93800000000E+00  0.93800000000E+00 0.  1.
         11    1    1    2    0    0 -0.55559605690E-01  0.75377274100E-01  0.91662971188E+00  0.92140050632E+00  0.51100000000E-03 0. -1.
    9000002    1    1    2    0    0  0.23781336291E+00 -0.31971106555E+00  0.10707288175E+00  0.10247336059E+01  0.93800000000E+00 0.  1.
         22    1    1    2    0    0 -0.18225375722E+00  0.24433379145E+00  0.29762973737E+01  0.29918658878E+01  0.00000000000E+00 0.  1.
</event>
<event>
 5    1  0.6776507E+001  0.1599628E+01  0.7818608E-02  0.3353768E+00
         11   -1    0    0    0    0  0.00000000000E+00  0.00000000000E+00  0.39999999674E+01  0.40000000000E+01  0.51100000000E-03 0.  1.
    9000002   -1    0    0    0    0 -0.00000000000E+00 -0.00000000000E+00  0.00000000000E+00  0.93800000000E+00  0.93800000000E+00 0. -1.
         11    1    1    2    0    0  0.17864208502E-01  0.89371266805E-02  0.26579800874E+00  0.26654801584E+00  0.51100000000E-03 0.  1.
    9000002    1    1    2    0    0 -0.31430874588E+00 -0.16757661695E+00  0.85167554833E-01  0.10069604871E+01  0.93800000000E+00 0. -1.
         22    1    1    2    0    0  0.29644453738E+00  0.15863949027E+00  0.36490344038E+01  0.36644914970E+01  0.00000000000E+00 0.  1.
</event>
<event>
 5    1  0.6776507E+001  0.1599645E+01  0.7818608E-02  0.3353749E+00
         11   -1    0    0    0    0  0.00000000000E+00  0.00000000000E+00  0.39999999674E+01  0.40000000000E+01  0.51100000000E-03 0. -1.
    9000002   -1    0    0    0    0 -0.00000000000E+00 -0.00000000000E+00  0.00000000000E+00  0.93800000000E+00  0.93800000000E+00 0. -1.
         11    1    1    2    0    0 -0.43682827496E-01 -0.58870787419E-02  0.19738043564E+00  0.20224278629E+00  0.51100000000E-03 0. -1.
    9000002    1    1    2    0    0  0.82031903181E+00  0.73238577919E-01  0.50380853622E+00  0.13460884980E+01  0.93800000000E+00 0. -1.
         22    1    1    2    0    0 -0.77663620431E+00 -0.67351499177E-01  0.32988109955E+01  0.33896687157E+01  0.00000000000E+00 0. -1.
</event>
<event>
 5    1  0.6776507E+001  0.1562922E+01  0.7818608E-02  0.3394616E+00
         11   -1    0    0    0    0  0.00000000000E+00  0.00000000000E+00  0.39999999674E+01  0.40000000000E+01  0.51100000000E-03 0.  1.
    9000002   -1    0    0    0    0 -0.00000000000E+00 -0.00000000000E+00  0.00000000000E+00  0.93800000000E+00  0.93800000000E+00 0.  1.
         11    1    1    2    0    0 -0.12437375342E+00  0.25616110904E+00  0.10303684365E+01  0.10689933211E+01  0.51100000000E-03 0.  1.
    9000002    1    1    2    0    0 -0.17530986277E+00 -0.51802378419E+00  0.24190967296E+00  0.11124057168E+01  0.93800000000E+00 0.  1.
         22    1    1    2    0    0  0.29968361619E+00  0.26186267515E+00  0.27277218579E+01  0.27566009621E+01  0.00000000000E+00 0.  1.
</event>
<event>
 5    1  0.6776507E+001  0.1599364E+01  0.7818608E-02  0.3354054E+00
         11   -1    0    0    0    0  0.00000000000E+00  0.00000000000E+00  0.39999999674E+01  0.40000000000E+01  0.51100000000E-03 0.  1.
    9000002   -1    0    0    0    0 -0.00000000000E+00 -0.00000000000E+00  0.00000000000E+00  0.93800000000E+00  0.93800000000E+00 0.  1.
         11    1    1    2    0    0 -0.16615460085E-01 -0.11921228612E+00  0.12200087001E+01  0.12259319443E+01  0.51100000000E-03 0.  1.
    9000002    1    1    2    0    0  0.21922199740E-01  0.43335067935E+00  0.12784266076E+00  0.10413746396E+01  0.93800000000E+00 0.  1.
         22    1    1    2    0    0 -0.53067396551E-02 -0.31413839322E+00  0.26521486065E+01  0.26706934161E+01  0.00000000000E+00 0.  1.
</event>
<event>
 5    1  0.6776507E+001  0.1599677E+01  0.7818608E-02  0.3353714E+00
         11   -1    0    0    0    0  0.00000000000E+00  0.00000000000E+00  0.39999999674E+01  0.40000000000E+01  0.51100000000E-03 0.  1.
    9000002   -1    0    0    0    0 -0.00000000000E+00 -0.00000000000E+00  0.00000000000E+00  0.93800000000E+00  0.93800000000E+00 0.  1.
         11    1    1    2    0    0  0.28437105987E+00  0.12190427713E+00  0.14218496896E+01  0.14551234839E+01  0.51100000000E-03 0. -1.
    9000002    1    1    2    0    0 -0.71247365586E+00 -0.30508906097E+00  0.43886655157E+00  0.12935014092E+01  0.93800000000E+00 0.  1.
         22    1    1    2    0    0  0.42810259599E+00  0.18318478384E+00  0.21392837262E+01  0.21893751070E+01  0.00000000000E+00 0.  1.
</event>
<event>
 5    1  0.6776507E+001  0.1599023E+01  0.7818608E-02  0.3354424E+00
         11   -1    0    0    0    0  0.00000000000E+00  0.00000000000E+00  0.39999999674E+01  0.40000000000E+01  0.51100000000E-03 0. -1.
    9000002   -1    0    0    0    0 -0.00000000000E+00 -0.00000000000E+00  0.00000000000E+00  0.93800000000E+00  0.93800000000E+00 0.  1.
         11    1    1    2    0    0 -0.48019988353E-01 -0.22271603571E-01  0.58428157454E+00  0.58667466545E+00  0.51100000000E-03 0. -1.
    9000002    1    1    2    0    0  0.37958326566E+00  0.14474900823E-01  0.97620942088E-01  0.10166940674E+01  0.93800000000E+00 0.  1.
         22    1    1    2    0    0 -0.33156327731E+00  0.77967027471E-02  0.33180974507E+01  0.33346312672E+01  0.00000000000E+00 0. -1.
</event>
<event>
 5    1  0.6776507E+001  0.1599673E+01  0.7818608E-02  0.3353718E+00
         11   -1    0    0    0    0  0.00000000000E+00  0.00000000000E+00  0.39999999674E+01  0.40000000000E+01  0.51100000000E-03 0.  1.
    9000002   -1    0    0    0    0 -0.00000000000E+00 -0.00000000000E+00  0.00000000000E+00  0.93800000000E+00  0.93800000000E+00 0. -1.
         11    1    1    2    0    0  0.18346413723E+00  0.11544243790E+00  0.13658366920E+01  0.13829302862E+01  0.51100000000E-03 0.  1.
    9000002    1    1    2    0    0 -0.50281909755E+00 -0.32321478847E+00  0.24916801754E+00  0.11398348763E+01  0.93800000000E+00 0. -1.
         22    1    1    2    0    0  0.31935496032E+00  0.20777235057E+00  0.23849952578E+01  0.24152348375E+01  0.00000000000E+00 0.  1.
</event>
<event>
 5    1  0.6776507E+001  0.1578135E+01  0.7818608E-02  0.3377443E+00
         11   -1    0    0    0    0  0.00000000000E+00  0.00000000000E+00  0.39999999674E+01  0.40000000000E+01  0.51100000000E-03 0. -1.
    9000002   -1    0    0    0    0 -0.00000000000E+00 -0.00000000000E+00  0.00000000000E+00  0.93800000000E+00  0.93800000000E+00 0. -1.
         11    1    1    2    0    0  0.23716584442E+00  0.14228304797E+00  0.14350993316E+01  0.14615069128E+01  0.51100000000E-03 0. -1.
    9000002    1    1    2    0    0 -0.17863782601E+00 -0.36503932625E+00  0.12973076752E+00  0.10304558480E+01  0.93800000000E+00 0. -1.
         22    1    1    2    0    0 -0.58528018419E-01  0.22275627828E+00  0.24351698683E+01  0.24460372393E+01  0.00000000000E+00 0.  1.
</event>
<event>
 5    1  0.6776507E+001  0.1599627E+01  0.7818608E-02  0.3353768E+00
         11   -1    0    0    0    0  0.00000000000E+00  0.00000000000E+00  0.39999999674E+01  0.40000000000E+01  0.51100000000E-03 0. -1.
    9000002   -1    0    0    0    0 -0.00000000000E+00 -0.00000000000E+00  0.00000000000E+00  0.93800000000E+00  0.93800000000E+00 0. -1.
         11    1    1    2    0    0  0.52874771964E-01  0.23158596715E+00  0.12700031118E+01  0.12920278506E+01  0.51100000000E-03 0. -1.
    9000002    1    1    2    0    0 -0.17489916271E+00 -0.66132038932E+00  0.33307046785E+00  0.12077724583E+01  0.93800000000E+00 0. -1.
         22    1    1    2    0    0  0.12202439075E+00  0.42973442217E+00  0.23969263877E+01  0.24381996911E+01  0.00000000000E+00 0. -1.
</event>
<event>
 5    1  0.6776507E+001  0.1594794E+01  0.7818608E-02  0.3359033E+00
         11   -1    0    0    0    0  0.00000000000E+00  0.00000000000E+00  0.39999999674E+01  0.40000000000E+01  0.51100000000E-03 0. -1.
    9000002   -1    0    0    0    0 -0.00000000000E+00 -0.00000000000E+00  0.00000000000E+00  0.93800000000E+00  0.93800000000E+00 0. -1.
         11    1    1    2    0    0  0.12091560520E+00  0.11447987312E+00  0.94518878967E+00  0.95974388989E+00  0.51100000000E-03 0. -1.
    9000002    1    1    2    0    0 -0.21067464391E+00 -0.38063254431E+00  0.13244809369E+00  0.10424257465E+01  0.93800000000E+00 0. -1.
         22    1    1    2    0    0  0.89759038706E-01  0.26615267119E+00  0.29223630840E+01  0.29358303636E+01  0.00000000000E+00 0. -1.
</event>
<event>
 5    1  0.6776507E+001  0.1599451E+01  0.7818608E-02  0.3353960E+00
         11   -1    0    0    0    0  0.00000000000E+00  0.00000000000E+00  0.39999999674E+01  0.40000000000E+01  0.51100000000E-03 0. -1.
    9000002   -1    0    0    0    0 -0.00000000000E+00 -0.00000000000E+00  0.00000000000E+00  0.93800000000E+00  0.93800000000E+00 0. -1.
         11    1    1    2    0    0 -0.85418148559E-01 -0.11823307314E+00  0.13111519963E+01  0.13192403641E+01  0.51100000000E-03 0. -1.
    9000002    1    1    2    0    0  0.20639421328E+00  0.37031794892E+00  0.12181195115E+00  0.10365404507E+01  0.93800000000E+00 0. -1.
         22    1    1    2    0    0 -0.12097606473E+00 -0.25208487578E+00  0.25670360199E+01  0.25822191852E+01  0.00000000000E+00 0.  1.
</event>
<event>
 5    1  0.6776507E+001  0.1593596E+01  0.7818608E-02  0.3360343E+00
         11   -1    0    0    0    0  0.00000000000E+00  0.00000000000E+00  0.39999999674E+01  0.40000000000E+01  0.51100000000E-03 0. -1.
    9000002   -1    0    0    0    0 -0.00000000000E+00 -0.00000000000E+00  0.00000000000E+00  0.93800000000E+00  0.93800000000E+00 0.  1.
         11    1    1    2    0    0 -0.10894130785E+00  0.48628975606E-01  0.49690036267E+00  0.51102173864E+00  0.51100000000E-03 0. -1.
    9000002    1    1    2    0    0  0.43851310658E+00 -0.97286696008E-01  0.14228133312E+00  0.10496887270E+01  0.93800000000E+00 0.  1.
         22    1    1    2    0    0 -0.32957179873E+00  0.48657720401E-01  0.33608182716E+01  0.33772895343E+01  0.00000000000E+00 0. -1.
</event>
<event>
 5    1  0.6776507E+001  0.1533625E+01  0.7818608E-02  0.3428713E+00
         11   -1    0    0    0    0  0.00000000000E+00  0.00000000000E+00  0.39999999674E+01  0.40000000000E+01  0.51100000000E-03 0.  1.
    9000002   -1    0    0    0    0 -0.00000000000E+00 -0.00000000000E+00  0.00000000000E+00  0.93800000000E+00  0.93800000000E+00 0. -1.
         11    1    1    2    0    0 -0.26541059445E+00 -0.36308962091E-01  0.52695226474E+00  0.59113456574E+00  0.51100000000E-03 0.  1.
    9000002    1    1    2    0    0  0.32201054710E+00  0.52517258037E+00  0.33596381592E+00  0.11714148357E+01  0.93800000000E+00 0. -1.
         22    1    1    2    0    0 -0.56599952650E-01 -0.48886361828E+00  0.31370838867E+01  0.31754505986E+01  0.00000000000E+00 0.  1.
</event>
<event>
 5    1  0.6776507E+001  0.1599586E+01  0.7818608E-02  0.3353812E+00
         11   -1    0    0    0    0  0.00000000000E+00  0.00000000000E+00  0.39999999674E+01  0.40000000000E+01  0.51100000000E-03 0.  1.
    9000002   -1    0    0    0    0 -0.00000000000E+00 -0.00000000000E+00  0.00000000000E+00  0.93800000000E+00  0.93800000000E+00 0.  1.
         11    1    1    2    0    0  0.10002181439E+00  0.10595868768E+00  0.14305346281E+01  0.14379364347E+01  0.51100000000E-03 0.  1.
    9000002    1    1    2    0    0 -0.28332253843E+00 -0.31484867796E+00  0.12146557324E+00  0.10363393442E+01  0.93800000000E+00 0.  1.
         22    1    1    2    0    0  0.18330072405E+00  0.20888999028E+00  0.24479997660E+01  0.24637242211E+01  0.00000000000E+00 0.  1.
</event>
<event>
 5    1  0.6776507E+001  0.1599629E+01  0.7818608E-02  0.3353766E+00
         11   -1    0    0    0    0  0.00000000000E+00  0.00000000000E+00  0.39999999674E+01  0.40000000000E+01  0.51100000000E-03 0. -1.
    9000002   -1    0    0    0    0 -0.00000000000E+00 -0.00000000000E+00  0.00000000000E+00  0.93800000000E+00  0.93800000000E+00 0.  1.
         11    1    1    2    0    0 -0.33048738750E-01 -0.25100098226E-01  0.45603264045E+00  0.45791731169E+00  0.51100000000E-03 0. -1.
    9000002    1    1    2    0    0  0.32103764321E+00  0.18918501665E+00  0.93385085977E-01  0.10136177352E+01  0.93800000000E+00 0.  1.
         22    1    1    2    0    0 -0.28798890446E+00 -0.16408491842E+00  0.34505822409E+01  0.34664649531E+01  0.00000000000E+00 0. -1.
</event>
<event>
 5    1  0.6776507E+001  0.1599676E+01  0.7818608E-02  0.3353715E+00
         11   -1    0    0    0    0  0.00000000000E+00  0.00000000000E+00  0.39999999674E+01  0.40000000000E+01  0.51100000000E-03 0.  1.
    9000002   -1    0    0    0    0 -0.00000000000E+00 -0.00000000000E+00  0.00000000000E+00  0.93800000000E+00  0.93800000000E+00 0.  1.
         11    1    1    2    0    0  0.15818768152E+00  0.66968117809E-01  0.13721088242E+01  0.13828199297E+01  0.51100000000E-03 0.  1.
    9000002    1    1    2    0    0 -0.44222266474E+00 -0.19033983534E+00  0.15819199716E+00  0.10661420384E+01  0.93800000000E+00 0.  1.
         22    1    1    2    0    0  0.28403498322E+00  0.12337171754E+00  0.24696991460E+01  0.24890380319E+01  0.00000000000E+00 0.  1.
</event>
<event>
 5    1  0.6776507E+001  0.1599673E+01  0.7818608E-02  0.3353719E+00
         11   -1    0    0    0    0  0.00000000000E+00  0.00000000000E+00  0.39999999674E+01  0.40000000000E+01  0.51100000000E-03 0.  1.
    9000002   -1    0    0    0    0 -0.00000000000E+00 -0.00000000000E+00  0.00000000000E+00  0.93800000000E+00  0.93800000000E+00 0.  1.
         11    1    1    2    0    0 -0.91619370984E-03 -0.14524524946E+00  0.12506705260E+01  0.12590766647E+01  0.51100000000E-03 0.  1.
    9000002    1    1    2    0    0  0.18875795191E-02  0.44206632895E+00  0.13258047438E+00  0.10453936026E+01  0.93800000000E+00 0.  1.
         22    1    1    2    0    0 -0.97138580929E-03 -0.29682107949E+00  0.26167489670E+01  0.26335297327E+01  0.00000000000E+00 0.  1.
</event>
<event>
 5    1  0.6776507E+001  0.1594810E+01  0.7818608E-02  0.3359015E+00
         11   -1    0    0    0    0  0.00000000000E+00  0.00000000000E+00  0.39999999674E+01  0.40000000000E+01  0.51100000000E-03 0. -1.
    9000002   -1    0    0    0    0 -0.00000000000E+00 -0.00000000000E+00  0.00000000000E+00  0.93800000000E+00  0.93800000000E+00 0.  1.
         11    1    1    2    0    0 -0.10025656938E+00 -0.41239281892E-01  0.44032863382E+00  0.45347725958E+00  0.51100000000E-03 0. -1.
    9000002    1    1    2    0    0  0.45282506129E+00  0.14439091747E+00  0.15832333584E+00  0.10633952943E+01  0.93800000000E+00 0.  1.
         22    1    1    2    0    0 -0.35256849191E+00 -0.10315163557E+00  0.34013479977E+01  0.34211274462E+01  0.00000000000E+00 0. -1.
</event>
<event>
 5    1  0.6776507E+001  0.1599634E+01  0.7818608E-02  0.3353760E+00
         11   -1    0    0    0    0  0.00000000000E+00  0.00000000000E+00  0.39999999674E+01  0.40000000000E+01  0.51100000000E-03 0. -1.
    9000002   -1    0    0    0    0 -0.00000000000E+00 -0.00000000000E+00  0.00000000000E+00  0.93800000000E+00  0.93800000000E+00 0.  1.
         11    1    1    2    0    0  0.16268744789E-01 -0.65021789504E-01  0.37761481230E+00  0.38351755208E+00  0.51100000000E-03 0. -1.
    9000002    1    1    2    0    0 -0.12260509073E+00  0.61352016256E+00  0.27469739277E+00  0.11604919887E+01  0.93800000000E+00 0.  1.
         22    1    1    2    0    0  0.10633634595E+00 -0.54849837306E+00  0.33476877623E+01  0.33939904593E+01  0.00000000000E+00 0. -1.
</event>
<event>
 5    1  0.6776507E+001  0.1572369E+01  0.7818608E-02  0.3383911E+00
         11   -1    0    0    0    0  0.00000000000E+00  0.00000000000E+00  0.39999999674E+01  0.40000000000E+01  0.51100000000E-03 0. -1.
    9000002   -1    0    0    0    0 -0.00000000000E+00 -0.00000000000E+00  0.00000000000E+00  0.93800000000E+00  0.93800000000E+00 0. -1.
         11    1    1    2    0    0 -0.11659522061E+00 -0.15008555441E-01  0.19648041541E+00  0.22896400801E+00  0.51100000000E-03 0. -1.
    9000002    1    1    2    0    0  0.48163848138E+00  0.26107090807E-01  0.18344456787E+00  0.10705854083E+01  0.93800000000E+00 0. -1.
         22    1    1    2    0    0 -0.36504326077E+00 -0.11098535366E-01  0.36200749841E+01  0.36384505837E+01  0.00000000000E+00 0. -1.
</event>
<event>
 5    1  0.6776507E+001  0.1599639E+01  0.7818608E-02  0.3353755E+00
         11   -1    0    0    0    0  0.00000000000E+00  0.00000000000E+00  0.39999999674E+01  0.40000000000E+01  0.51100000000E-03 0.  1.
    9000002   -1    0    0    0    0 -0.00000000000E+00 -0.00000000000E+00  0.00000000000E+00  0.93800000000E+00  0.93800000000E+00 0.  1.
         11    1    1    2    0    0  0.26877505048E-01 -0.30281347178E-02  0.24985479556E+00  0.25131504106E+00  0.51100000000E-03 0.  1.
    9000002    1    1    2    0    0 -0.37534399188E+00  0.12574885298E-01  0.94878776890E-01  0.10148335934E+01  0.93800000000E+00 0.  1.
         22    1    1    2    0    0  0.34846648683E+00 -0.95467505803E-02  0.36552663949E+01  0.36718513655E+01  0.00000000000E+00 0.  1.
</event>
<event>
 5    1  0.6776507E+001  0.1599671E+01  0.7818608E-02  0.3353720E+00
         11   -1    0    0    0    0  0.00000000000E+00  0.00000000000E+00  0.39999999674E+01  0.40000000000E+01  0.51100000000E-03 0. -1.
    9000002   -1    0    0    0    0 -0.00000000000E+00 -0.00000000000E+00  0.00000000000E+00  0.93800000000E+00  0.93800000000E+00 0. -1.
         11    1    1    2    0    0  0.20188088370E-01 -0.53108527371E-01  0.64429382959E+00  0.64679430622E+00  0.51100000000E-03 0. -1.
    9000002    1    1    2    0    0 -0.13201236634E+00  0.33135139151E+00  0.85371117687E-01  0.10071510499E+01  0.93800000000E+00 0. -1.
         22    1    1    2    0    0  0.11182427797E+00 -0.27824286414E+00  0.32703350201E+01  0.32840546439E+01  0.00000000000E+00 0. -1.
</event>
<event>
 5    1  0.6776507E+001  0.1509045E+01  0.7818608E-02  0.3458413E+00
         11   -1    0    0    0    0  0.00000000000E+00  0.00000000000E+00  0.39999999674E+01  0.40000000000E+01  0.51100000000E-03 0. -1.
    9000002   -1    0    0    0    0 -0.00000000000E+00 -0.00000000000E+00  0.00000000000E+00  0.93800000000E+00  0.93800000000E+00 0. -1.
         11    1    1    2    0    0  0.12511848538E+00  0.19882691263E+00  0.64544706831E+00  0.68686895088E+00  0.51100000000E-03 0. -1.
    9000002    1    1    2    0    0  0.15450873206E+00  0.15893071463E+00  0.10446686368E+00  0.96947885276E+00  0.93800000000E+00 0. -1.
         22    1    1    2    0    0 -0.27962721743E+00 -0.35775762726E+00  0.32500860354E+01  0.32816521964E+01  0.00000000000E+00 0. -1.
</event>
<event>
 5    1  0.6776507E+001  0.1594557E+01  0.7818608E-02  0.3359292E+00
         11   -1    0    0    0    0  0.00000000000E+00  0.00000000000E+00  0.39999999674E+01  0.40000000000E+01  0.51100000000E-03 0.  1.
    9000002   -1    0    0    0    0 -0.00000000000E+00 -0.00000000000E+00  0.00000000000E+00  0.93800000000E+00  0.93800000000E+00 0.  1.
         11    1    1    2    0    0 -0.52757316329E-01 -0.29176627244E+00  0.12208723216E+01  0.12563599719E+01  0.51100000000E-03 0.  1.
    9000002    1    1    2    0    0  0.28795029210E+00  0.66060182266E+00  0.37917476286E+00  0.12421463841E+01  0.93800000000E+00 0.  1.
         22    1    1    2    0    0 -0.23519297577E+00 -0.36883555022E+00  0.23999528829E+01  0.24394936440E+01  0.00000000000E+00 0.  1.
</event>
<event>
 5    1  0.6776507E+001  0.1586760E+01  0.7818608E-02  0.3367860E+00
         11   -1    0    0    0    0  0.00000000000E+00  0.00000000000E+00  0.39999999674E+01  0.40000000000E+01  0.51100000000E-03 0. -1.
    9000002   -1    0    0    0    0 -0.00000000000E+00 -0.00000000000E+00  0.00000000000E+00  0.93800000000E+00  0.93800000000E+00 0.  1.
         11    1    1    2    0    0 -0.32027032503E-01  0.10785743155E+00  0.12181326006E+01  0.12233177225E+01  0.51100000000E-03 0. -1.
    9000002    1    1    2    0    0  0.45768475344E+00 -0.15622469769E+00  0.17123456127E+00  0.10691336515E+01  0.93800000000E+00 0.  1.
         22    1    1    2    0    0 -0.42565772094E+00  0.48367266143E-01  0.26106328055E+01  0.26455486261E+01  0.00000000000E+00 0. -1.
</event>
<event>
 5    1  0.6776507E+001  0.1595118E+01  0.7818608E-02  0.3358679E+00
         11   -1    0    0    0    0  0.00000000000E+00  0.00000000000E+00  0.39999999674E+01  0.40000000000E+01  0.51100000000E-03 0. -1.
    9000002   -1    0    0    0    0 -0.00000000000E+00 -0.00000000000E+00  0.00000000000E+00  0.93800000000E+00  0.93800000000E+00 0. -1.
         11    1    1    2    0    0  0.22266174195E+00 -0.29380415871E+00  0.13005874947E+01  0.13518236673E+01  0.51100000000E-03 0. -1.
    9000002    1    1    2    0    0 -0.43630651447E+00  0.88810388936E+00  0.79163269886E+00  0.15765843532E+01  0.93800000000E+00 0. -1.
         22    1    1    2    0    0  0.21364477253E+00 -0.59429973066E+00  0.19077797738E+01  0.20095919795E+01  0.00000000000E+00 0. -1.
</event>
<event>
 5    1  0.6776507E+001  0.1599677E+01  0.7818608E-02  0.3353714E+00
         11   -1    0    0    0    0  0.00000000000E+00  0.00000000000E+00  0.39999999674E+01  0.40000000000E+01  0.51100000000E-03 0.  1.
    9000002   -1    0    0    0    0 -0.00000000000E+00 -0.00000000000E+00  0.00000000000E+00  0.93800000000E+00  0.93800000000E+00 0.  1.
         11    1    1    2    0    0  0.25104242175E+00  0.35055390554E+00  0.13562656812E+01  0.14231539612E+01  0.51100000000E-03 0.  1.
    9000002    1    1    2    0    0 -0.58679465348E+00 -0.82197465931E+00  0.82529713339E+00  0.16065272062E+01  0.93800000000E+00 0.  1.
         22    1    1    2    0    0  0.33575223172E+00  0.47142075377E+00  0.18184371528E+01  0.19083188326E+01  0.00000000000E+00 0.  1.
</event>
<event>
 5    1  0.6776507E+001  0.1572035E+01  0.7818608E-02  0.3384287E+00
         11   -1    0    0    0    0  0.00000000000E+00  0.00000000000E+00  0.39999999674E+01  0.40000000000E+01  0.51100000000E-03 0.  1.
    9000002   -1    0    0    0    0 -0.00000000000E+00 -0.00000000000E+00  0.00000000000E+00  0.93800000000E+00  0.93800000000E+00 0.  1.
         11    1    1    2    0    0 -0.83876712608E-01 -0.78682215059E-01  0.11528092070E+01  0.11585316235E+01  0.51100000000E-03 0.  1.
    9000002    1    1    2    0    0  0.86139019034E-01 -0.31928091929E+00  0.95515621250E-01  0.99916338500E+00  0.93800000000E+00 0.  1.
         22    1    1    2    0    0 -0.22623064265E-02  0.39796313435E+00  0.27516751391E+01  0.27803049915E+01  0.00000000000E+00 0. -1.
</event>
<event>
 5    1  0.6776507E+001  0.1599676E+01  0.7818608E-02  0.3353715E+00
         11   -1    0    0    0    0  0.00000000000E+00  0.00000000000E+00  0.39999999674E+01  0.40000000000E+01  0.51100000000E-03 0. -1.
    9000002   -1    0    0    0    0 -0.00000000000E+00 -0.00000000000E+00  0.00000000000E+00  0.93800000000E+00  0.93800000000E+00 0. -1.
         11    1    1    2    0    0  0.78796702951E-01 -0.28667264259E-01  0.66038744393E+00  0.66568954450E+00  0.51100000000E-03 0. -1.
    9000002    1    1    2    0    0 -0.45754650538E+00  0.16310966991E+00  0.16114490835E+00  0.10685341597E+01  0.93800000000E+00 0. -1.
         22    1    1    2    0    0  0.37874980243E+00 -0.13444240565E+00  0.31784676151E+01  0.32037762958E+01  0.00000000000E+00 0. -1.
</event>
<event>
 5    1  0.6776507E+001  0.1578592E+01  0.7818608E-02  0.3376932E+00
         11   -1    0    0    0    0  0.00000000000E+00  0.00000000000E+00  0.39999999674E+01  0.40000000000E+01  0.51100000000E-03 0.  1.
    9000002   -1    0    0    0    0 -0.00000000000E+00 -0.00000000000E+00  0.00000000000E+00  0.93800000000E+00  0.93800000000E+00 0.  1.
         11    1    1    2    0    0  0.16416675314E+00  0.25416398437E-01  0.37330174570E+00  0.40859658664E+00  0.51100000000E-03 0.  1.
    9000002    1    1    2    0    0 -0.55812243373E+00 -0.17937190634E+00  0.26004518143E+00  0.11362844838E+01  0.93800000000E+00 0.  1.
         22    1    1    2    0    0  0.39395568059E+00  0.15395550790E+00  0.33666530402E+01  0.33931189295E+01  0.00000000000E+00 0.  1.
</event>
<event>
 5    1  0.6776507E+001  0.1549343E+01  0.7818608E-02  0.3410249E+00
         11   -1    0    0    0    0  0.00000000000E+00  0.00000000000E+00  0.39999999674E+01  0.40000000000E+01  0.51100000000E-03 0.  1.
    9000002   -1    0    0    0    0 -0.00000000000E+00 -0.00000000000E+00  0.00000000000E+00  0.93800000000E+00  0.93800000000E+00 0.  1.
         11    1    1    2    0    0  0.82945710381E-01  0.14466031105E+00  0.80948784042E+00  0.82648497952E+00  0.51100000000E-03 0.  1.
    9000002    1    1    2    0    0  0.36321271953E+00  0.33383957078E-01  0.13145336602E+00  0.10149689432E+01  0.93800000000E+00 0.  1.
         22    1    1    2    0    0 -0.44615842991E+00 -0.17804426812E+00  0.30590587609E+01  0.30965460773E+01  0.00000000000E+00 0.  1.
</event>
<event>
 5    1  0.6776507E+001  0.1599652E+01  0.7818608E-02  0.3353741E+00
         11   -1    0    0    0    0  0.00000000000E+00  0.00000000000E+00  0.39999999674E+01  0.40000000000E+01  0.51100000000E-03 0. -1.
    9000002   -1    0    0    0    0 -0.00000000000E+00 -0.00000000000E+00  0.00000000000E+00  0.93800000000E+00  0.93800000000E+00 0.  1.
         11    1    1    2    0    0  0.10385216705E+00 -0.14985574316E+00  0.14807530607E+01  0.14919356234E+01  0.51100000000E-03 0. -1.
    9000002    1    1    2    0    0 -0.28084678519E+00  0.37886310915E+00  0.15157705377E+00  0.10607694261E+01  0.93800000000E+00 0.  1.
         22    1    1    2    0    0  0.17699461814E+00 -0.22900736600E+00  0.23676698529E+01  0.23852949505E+01  0.00000000000E+00 0. -1.
</event>
<event>
 5    1  0.6776507E+001  0.1599675E+01  0.7818608E-02  0.3353716E+00
         11   -1    0    0    0    0  0.00000000000E+00  0.00000000000E+00  0.39999999674E+01  0.40000000000E+01  0.51100000000E-03 0.  1.
    9000002   -1    0    0    0    0 -0.00000000000E+00 -0.00000000000E+00  0.00000000000E+00  0.93800000000E+00  0.93800000000E+00 0. -1.
         11    1    1    2    0    0  0.12654194413E-01  0.11354822715E-01  0.12195365312E+00  0.12313413526E+00  0.51100000000E-03 0. -1.
    9000002    1    1    2    0    0 -0.40483866764E+00 -0.35635202511E+00  0.20051242129E+00  0.11004228022E+01  0.93800000000E+00 0.  1.
         22    1    1    2    0    0  0.39218447323E+00  0.34499720240E+00  0.36775338929E+01  0.37144430625E+01  0.00000000000E+00 0.  1.
</event>
<event>
 5    1  0.6776507E+001  0.1599677E+01  0.7818608E-02  0.3353714E+00
         11   -1    0    0    0    0  0.00000000000E+00  0.00000000000E+00  0.39999999674E+01  0.40000000000E+01  0.51100000000E-03 0. -1.
    9000002   -1    0    0    0    0 -0.00000000000E+00 -0.00000000000E+00  0.00000000000E+00  0.93800000000E+00  0.93800000000E+00 0. -1.
         11    1    1    2    0    0 -0.14210837047E-01 -0.49890353092E-01  0.46518560592E+00  0.46806933706E+00  0.51100000000E-03 0.  1.
    9000002    1    1    2    0    0  0.11579716159E+00  0.41589914659E+00  0.12625486454E+00  0.10402717787E+01  0.93800000000E+00 0. -1.
         22    1    1    2    0    0 -0.10158632455E+00 -0.36600879350E+00  0.34085594969E+01  0.34296588842E+01  0.00000000000E+00 0. -1.
</event>
<event>
 5    1  0.6776507E+001  0.1597709E+01  0.7818608E-02  0.3355854E+00
         11   -1    0    0    0    0  0.00000000000E+00  0.00000000000E+00  0.39999999674E+01  0.40000000000E+01  0.51100000000E-03 0.  1.
    9000002   -1    0    0    0    0 -0.00000000000E+00 -0.00000000000E+00  0.00000000000E+00  0.93800000000E+00  0.93800000000E+00 0.  1.
         11    1    1    2    0    0  0.30080664955E-01 -0.12671649643E+00  0.11113133612E+01  0.11189189268E+01  0.51100000000E-03 0.  1.
    9000002    1    1    2    0    0  0.61348468062E-01  0.46512169669E+00  0.15165199747E+00  0.10596905943E+01  0.93800000000E+00 0.  1.
         22    1    1    2    0    0 -0.91429133017E-01 -0.33840520025E+00  0.27370346087E+01  0.27593904789E+01  0.00000000000E+00 0.  1.
</event>
<event>
 5    1  0.6776507E+001  0.1448305E+01  0.7818608E-02  0.3536479E+00
         11   -1    0    0    0    0  0.00000000000E+00  0.00000000000E+00  0.39999999674E+01  0.40000000000E+01  0.51100000000E-03 0.  1.
    9000002   -1    0    0    0    0 -0.00000000000E+00 -0.00000000000E+00  0.00000000000E+00  0.93800000000E+00  0.93800000000E+00 0.  1.
         11    1    1    2    0    0 -0.37540235245E-01  0.59257629193E-01 -0.42062270157E-01  0.81793835780E-01  0.51100000000E-03 0.  1.
    9000002    1    1    2    0    0  0.44630207959E+00 -0.18384684562E+00  0.30965495893E+00  0.10994159370E+01  0.93800000000E+00 0.  1.
         22    1    1    2    0    0 -0.40876184434E+00  0.12458921643E+00  0.37324072786E+01  0.37567902272E+01  0.00000000000E+00 0.  1.
</event>
<event>
 5    1  0.6776507E+001  0.1599609E+01  0.7818608E-02  0.3353787E+00
         11   -1    0    0    0    0  0.00000000000E+00  0.00000000000E+00  0.39999999674E+01  0.40000000000E+01  0.51100000000E-03 0.  1.
    9000002   -1    0    0    0    0 -0.00000000000E+00 -0.00000000000E+00  0.00000000000E+00  0.93800000000E+00  0.93800000000E+00 0. -1.
         11    1    1    2    0    0 -0.25713679756E-01  0.65671699454E-02  0.19197973191E+00  0.19380608770E+00  0.51100000000E-03 0.  1.
    9000002    1    1    2    0    0  0.47407163056E+00 -0.55766072606E-01  0.15546279006E+00  0.10638921209E+01  0.93800000000E+00 0. -1.
         22    1    1    2    0    0 -0.44835795080E+00  0.49198902660E-01  0.36525574454E+01  0.36803017914E+01  0.00000000000E+00 0.  1.
</event>
<event>
 5    1  0.6776507E+001  0.1599659E+01  0.7818608E-02  0.3353734E+00
         11   -1    0    0    0    0  0.00000000000E+00  0.00000000000E+00  0.39999999674E+01  0.40000000000E+01  0.51100000000E-03 0.  1.
    9000002   -1    0    0    0    0 -0.00000000000E+00 -0.00000000000E+00  0.00000000000E+00  0.93800000000E+00  0.93800000000E+00 0.  1.
         11    1    1    2    0    0  0.34825827173E-02 -0.88148551935E-02  0.10697435534E+00  0.10739461754E+00  0.51100000000E-03 0.  1.
    9000002    1    1    2    0    0 -0.18559587602E+00  0.31379943525E+00  0.89283155288E-01  0.10103125242E+01  0.93800000000E+00 0.  1.
         22    1    1    2    0    0  0.18211329330E+00 -0.30498458006E+00  0.38037424567E+01  0.38202928583E+01  0.00000000000E+00 0.  1.
</event>
<event>
 5    1  0.6776507E+001  0.1599668E+01  0.7818608E-02  0.3353724E+00
         11   -1    0    0    0    0  0.00000000000E+00  0.00000000000E+00  0.39999999674E+01  0.40000000000E+01  0.51100000000E-03 0.  1.
    9000002   -1    0    0    0    0 -0.00000000000E+00 -0.00000000000E+00  0.00000000000E+00  0.93800000000E+00  0.93800000000E+00 0. -1.
         11    1    1    2    0    0 -0.79325444693E-02  0.95389179575E-03  0.89592121272E-01  0.89949121654E-01  0.51100000000E-03 0.  1.
    9000002    1    1    2    0    0  0.38317409771E+00 -0.20577202052E-01  0.99125552779E-01  0.10182905703E+01  0.93800000000E+00 0. -1.
         22    1    1    2    0    0 -0.37524155324E+00  0.19623310256E-01  0.38112822933E+01  0.38297603080E+01  0.00000000000E+00 0.  1.
</event>
<event>
 5    1  0.6776507E+001  0.1599672E+01  0.7818608E-02  0.3353720E+00
         11   -1    0    0    0    0  0.00000000000E+00  0.00000000000E+00  0.39999999674E+01  0.40000000000E+01  0.51100000000E-03 0. -1.
    9000002   -1    0    0    0    0 -0.00000000000E+00 -0.00000000000E+00  0.00000000000E+00  0.93800000000E+00  0.93800000000E+00 0. -1.
         11    1    1    2    0    0  0.10630457570E-01 -0.39973322163E-01  0.24648902829E+00  0.24993594240E+00  0.51100000000E-03 0.  1.
    9000002    1    1    2    0    0 -0.18023414289E+00  0.60086076005E+00  0.27622203102E+00  0.11617489443E+01  0.93800000000E+00 0. -1.
         22    1    1    2    0    0  0.16960368532E+00 -0.56088743789E+00  0.34772889080E+01  0.35263151133E+01  0.00000000000E+00 0. -1.
</event>
<event>
 5    1  0.6776507E+001  0.1546380E+01  0.7818608E-02  0.3413699E+00
         11   -1    0    0    0    0  0.00000000000E+00  0.00000000000E+00  0.39999999674E+01  0.40000000000E+01  0.51100000000E-03 0.  1.
    9000002   -1    0    0    0    0 -0.00000000000E+00 -0.00000000000E+00  0.00000000000E+00  0.93800000000E+00  0.93800000000E+00 0. -1.
         11    1    1    2    0    0  0.14856103772E+00 -0.19005554582E+00  0.97956471129E+00  0.10088304006E+01  0.51100000000E-03 0.  1.
    9000002    1    1    2    0    0 -0.12909544956E+00 -0.83192059703E-01  0.56036161406E-01  0.95214001348E+00  0.93800000000E+00 0. -1.
         22    1    1    2    0    0 -0.19465588161E-01  0.27324760552E+00  0.29643990947E+01  0.29770295859E+01  0.00000000000E+00 0.  1.
</event>
<event>
 5    1  0.6776507E+001  0.1598714E+01  0.7818608E-02  0.3354760E+00
         11   -1    0    0    0    0  0.00000000000E+00  0.00000000000E+00  0.39999999674E+01  0.40000000000E+01  0.51100000000E-03 0. -1.
    9000002   -1    0    0    0    0 -0.00000000000E+00 -0.00000000000E+00  0.00000000000E+00  0.93800000000E+00  0.93800000000E+00 0. -1.
         11    1    1    2    0    0  0.14677828025E-01  0.17972716480E+00  0.12473344920E+01  0.12603019037E+01  0.51100000000E-03 0. -1.
    9000002    1    1    2    0    0 -0.62227997856E-01 -0.44861752200E+00  0.14021516383E+00  0.10510158405E+01  0.93800000000E+00 0. -1.
         22    1    1    2    0    0  0.47550169831E-01  0.26889035720E+00  0.26124503115E+01  0.26266822558E+01  0.00000000000E+00 0. -1.
</event>
<event>
 5    1  0.6776507E+001  0.1599619E+01  0.7818608E-02  0.3353777E+00
         11   -1    0    0    0    0  0.00000000000E+00  0.00000000000E+00  0.39999999674E+01  0.40000000000E+01  0.51100000000E-03 0. -1.
    9000002   -1    0    0    0    0 -0.00000000000E+00 -0.00000000000E+00  0.00000000000E+00  0.93800000000E+00  0.93800000000E+00 0. -1.
         11    1    1    2    0    0  0.43359285943E-01  0.18735094669E+00  0.13813946156E+01  0.13947156521E+01  0.51100000000E-03 0. -1.
    9000002    1    1    2    0    0 -0.14110742863E+00 -0.52534062417E+00  0.20419638538E+00  0.11033740262E+01  0.93800000000E+00 0. -1.
         22    1    1    2    0    0  0.97748142688E-01  0.33798967748E+00  0.24144089664E+01  0.24399103218E+01  0.00000000000E+00 0. -1.
</event>
<event>
 5    1  0.6776507E+001  0.1599672E+01  0.7818608E-02  0.3353720E+00
         11   -1    0    0    0    0  0.00000000000E+00  0.00000000000E+00  0.39999999674E+01  0.40000000000E+01  0.51100000000E-03 0.  1.
    9000002   -1    0    0    0    0 -0.00000000000E+00 -0.00000000000E+00  0.00000000000E+00  0.93800000000E+00  0.93800000000E+00 0. -1.
         11    1    1    2    0    0 -0.90941024048E-01  0.75767742191E-01  0.12289288281E+01  0.12346162749E+01  0.51100000000E-03 0.  1.
    9000002    1    1    2    0    0  0.29675363170E+00 -0.23922938485E+00  0.97777445891E-01  0.10172009858E+01  0.93800000000E+00 0. -1.
         22    1    1    2    0    0 -0.20581260765E+00  0.16346164266E+00  0.26732936933E+01  0.26861827393E+01  0.00000000000E+00 0.  1.
</event>
<event>
 5    1  0.6776507E+001  0.1599593E+01  0.7818608E-02  0.3353805E+00
         11   -1    0    0    0    0  0.00000000000E+00  0.00000000000E+00  0.39999999674E+01  0.40000000000E+01  0.51100000000E-03 0.  1.
    9000002   -1    0    0    0    0 -0.00000000000E+00 -0.00000000000E+00  0.00000000000E+00  0.93800000000E+00  0.93800000000E+00 0.  1.
         11    1    1    2    0    0 -0.13064286376E+00  0.15288871059E+00  0.13589821684E+01  0.13737813912E+01  0.51100000000E-03 0.  1.
    9000002    1    1    2    0    0  0.33577143065E+00 -0.42329686229E+00  0.20134292974E+00  0.11010475297E+01  0.93800000000E+00 0.  1.
         22    1    1    2    0    0 -0.20512856689E+00  0.27040815170E+00  0.24396748692E+01  0.24631710791E+01  0.00000000000E+00 0.  1.
</event>
<event>
 5    1  0.6776507E+001  0.1599677E+01  0.7818608E-02  0.3353714E+00
         11   -1    0    0    0    0  0.00000000000E+00  0.00000000000E+00  0.39999999674E+01  0.40000000000E+01  0.51100000000E-03 0.  1.
    9000002   -1    0    0    0    0 -0.00000000000E+00 -0.00000000000E+00  0.00000000000E+00  0.93800000000E+00  0.93800000000E+00 0.  1.
         11    1    1    2    0    0  0.64493548228E-02  0.55292367390E-01  0.53561235028E+00  0.53849762391E+00  0.51100000000E-03 0. -1.
    9000002    1    1    2    0    0 -0.45232140183E-01 -0.40095921448E+00  0.10987133469E+00  0.10270004617E+01  0.93800000000E+00 0.  1.
         22    1    1    2    0    0  0.38782785361E-01  0.34566684709E+00  0.33545162824E+01  0.33725019144E+01  0.00000000000E+00 0.  1.
</event>
<event>
 5    1  0.6776507E+001  0.1589861E+01  0.7818608E-02  0.3364442E+00
         11   -1    0    0    0    0  0.00000000000E+00  0.00000000000E+00  0.39999999674E+01  0.40000000000E+01  0.51100000000E-03 0.  1.
    9000002   -1    0    0    0    0 -0.00000000000E+00 -0.00000000000E+00  0.00000000000E+00  0.93800000000E+00  0.93800000000E+00 0.  1.
         11    1    1    2    0    0 -0.23253146087E-01  0.19337844721E+00  0.11729630098E+01  0.11890241444E+01  0.51100000000E-03 0.  1.
    9000002    1    1    2    0    0  0.33111561085E+00 -0.37828891959E+00  0.18201121293E+00  0.10796814975E+01  0.93800000000E+00 0.  1.
         22    1    1    2    0    0 -0.30786246476E+00  0.18491047238E+00  0.26450257447E+01  0.26692943580E+01  0.00000000000E+00 0. -1.
</event>
<event>
 5    1  0.6776507E+001  0.1553172E+01  0.7818608E-02  0.3405812E+00
         11   -1    0    0    0    0  0.00000000000E+00  0.00000000000E+00  0.39999999674E+01  0.40000000000E+01  0.51100000000E-03 0. -1.
    9000002   -1    0    0    0    0 -0.00000000000E+00 -0.00000000000E+00  0.00000000000E+00  0.93800000000E+00  0.93800000000E+00 0.  1.
         11    1    1    2    0    0 -0.76110773362E-01  0.74502641715E-01  0.10637038182E+01  0.10690227161E+01  0.51100000000E-03 0. -1.
    9000002    1    1    2    0    0  0.14508392475E+00  0.55329118641E+00  0.27332384511E+00  0.11321353305E+01  0.93800000000E+00 0.  1.
         22    1    1    2    0    0 -0.68973151391E-01 -0.62779382812E+00  0.26629723040E+01  0.27368419535E+01  0.00000000000E+00 0.  1.
</event>
<event>
 5    1  0.6776507E+001  0.1599472E+01  0.7818608E-02  0.3353937E+00
         11   -1    0    0    0    0  0.00000000000E+00  0.00000000000E+00  0.39999999674E+01  0.40000000000E+01  0.51100000000E-03 0. -1.
    9000002   -1    0    0    0    0 -0.00000000000E+00 -0.00000000000E+00  0.00000000000E+00  0.93800000000E+00  0.93800000000E+00 0.  1.
         11    1    1    2    0    0  0.17365296638E+00  0.16430529599E+00  0.11202832076E+01  0.11455070097E+01  0.51100000000E-03 0. -1.
    9000002    1    1    2    0    0 -0.59949517606E+00 -0.50815331432E+00  0.45307163900E+00  0.13048877986E+01  0.93800000000E+00 0.  1.
         22    1    1    2    0    0  0.42584220967E+00  0.34384801833E+00  0.24266451208E+01  0.24876051917E+01  0.00000000000E+00 0. -1.
</event>
<event>
 5    1  0.6776507E+001  0.1599676E+01  0.7818608E-02  0.3353715E+00
         11   -1    0    0    0    0  0.00000000000E+00  0.00000000000E+00  0.39999999674E+01  0.40000000000E+01  0.51100000000E-03 0. -1.
    9000002   -1    0    0    0    0 -0.00000000000E+00 -0.00000000000E+00  0.00000000000E+00  0.93800000000E+00  0.93800000000E+00 0.  1.
         11    1    1    2    0    0 -0.33006042308E-01 -0.11790357947E+00  0.13164258404E+01  0.13221073735E+01  0.51100000000E-03 0. -1.
    9000002    1    1    2    0    0  0.97224043700E-01  0.35335337216E+00  0.90225990609E-01  0.10110864699E+01  0.93800000000E+00 0.  1.
         22    1    1    2    0    0 -0.64218001392E-01 -0.23544979269E+00  0.25933481364E+01  0.26048061565E+01  0.00000000000E+00 0. -1.
</event>
<event>
 5    1  0.6776507E+001  0.1573570E+01  0.7818608E-02  0.3382559E+00
         11   -1    0    0    0    0  0.00000000000E+00  0.00000000000E+00  0.39999999674E+01  0.40000000000E+01  0.51100000000E-03 0. -1.
    9000002   -1    0    0    0    0 -0.00000000000E+00 -0.00000000000E+00  0.00000000000E+00  0.93800000000E+00  0.93800000000E+00 0. -1.
         11    1    1    2    0    0  0.79735176872E-01 -0.14299359678E+00  0.10384432084E+01  0.10512703864E+01  0.51100000000E-03 0. -1.
    9000002    1    1    2    0    0 -0.23501216128E+00 -0.10437833232E+00  0.64239956412E-01  0.97472884650E+00  0.93800000000E+00 0. -1.
         22    1    1    2    0    0  0.15527698440E+00  0.24737192909E+00  0.28973168025E+01  0.29120007671E+01  0.00000000000E+00 0. -1.
</event>
<event>
 5    1  0.6776507E+001  0.1572817E+01  0.7818608E-02  0.3383406E+00
         11   -1    0    0    0    0  0.00000000000E+00  0.00000000000E+00  0.39999999674E+01  0.40000000000E+01  0.51100000000E-03 0. -1.
    9000002   -1    0    0    0    0 -0.00000000000E+00 -0.00000000000E+00  0.00000000000E+00  0.93800000000E+00  0.93800000000E+00 0. -1.
         11    1    1    2    0    0 -0.55424377292E-01  0.20447096800E+00  0.12827183711E+01  0.13000949654E+01  0.51100000000E-03 0. -1.
    9000002    1    1    2    0    0  0.27552111469E+00 -0.69130084289E-01  0.74906184023E-01  0.98292715376E+00  0.93800000000E+00 0. -1.
         22    1    1    2    0    0 -0.22009673739E+00 -0.13534088371E+00  0.26423754122E+01  0.26549778808E+01  0.00000000000E+00 0. -1.
</event>
<event>
 5    1  0.6776507E+001  0.1599148E+01  0.7818608E-02  0.3354289E+00
         11   -1    0    0    0    0  0.00000000000E+00  0.00000000000E+00  0.39999999674E+01  0.40000000000E+01  0.51100000000E-03 0. -1.
    9000002   -1    0    0    0    0 -0.00000000000E+00 -0.00000000000E+00  0.00000000000E+00  0.93800000000E+00  0.93800000000E+00 0. -1.
         11    1    1    2    0    0 -0.55909693090E-01 -0.16359381302E+00  0.13481214340E+01  0.13591616869E+01  0.51100000000E-03 0. -1.
    9000002    1    1    2    0    0  0.21324328038E+00  0.41411644117E+00  0.14817347541E+00  0.10577166456E+01  0.93800000000E+00 0. -1.
         22    1    1    2    0    0 -0.15733358729E+00 -0.25052262815E+00  0.25037050580E+01  0.25211216675E+01  0.00000000000E+00 0. -1.
</event>
<event>
 5    1  0.6776507E+001  0.1599031E+01  0.7818608E-02  0.3354416E+00
         11   -1    0    0    0    0  0.00000000000E+00  0.00000000000E+00  0.39999999674E+01  0.40000000000E+01  0.51100000000E-03 0. -1.
    9000002   -1    0    0    0    0 -0.00000000000E+00 -0.00000000000E+00  0.00000000000E+00  0.93800000000E+00  0.93800000000E+00 0. -1.
         11    1    1    2    0    0 -0.20039996376E+00 -0.11663380879E-01  0.13999509521E+01  0.14142698149E+01  0.51100000000E-03 0. -1.
    9000002    1    1    2    0    0  0.47908209218E+00 -0.75866050626E-02  0.15719499626E+00  0.10649560904E+01  0.93800000000E+00 0. -1.
         22    1    1    2    0    0 -0.27868212841E+00  0.19249985942E-01  0.24428540190E+01  0.24587740947E+01  0.00000000000E+00 0.  1.
</event>
<event>
 5    1  0.6776507E+001  0.1599671E+01  0.7818608E-02  0.3353720E+00
         11   -1    0    0    0    0  0.00000000000E+00  0.00000000000E+00  0.39999999674E+01  0.40000000000E+01  0.51100000000E-03 0.  1.
    9000002   -1    0    0    0    0 -0.00000000000E+00 -0.00000000000E+00  0.00000000000E+00  0.93800000000E+00  0.93800000000E+00 0. -1.
         11    1    1    2    0    0 -0.68533192667E-01 -0.62166753681E-01  0.66995914900E+00  0.67631873123E+00  0.51100000000E-03 0.  1.
    9000002    1    1    2    0    0  0.39508762550E+00  0.36369362854E+00  0.19869763461E+00  0.10989504253E+01  0.93800000000E+00 0. -1.
         22    1    1    2    0    0 -0.32655443283E+00 -0.30152687486E+00  0.31313431837E+01  0.31627308435E+01  0.00000000000E+00 0.  1.
</event>
<event>
 5    1  0.6776507E+001  0.1599673E+01  0.7818608E-02  0.3353718E+00
         11   -1    0    0    0    0  0.00000000000E+00  0.00000000000E+00  0.39999999674E+01  0.40000000000E+01  0.51100000000E-03 0. -1.
    9000002   -1    0    0    0    0 -0.00000000000E+00 -0.00000000000E+00  0.00000000000E+00  0.93800000000E+00  0.93800000000E+00 0. -1.
         11    1    1    2    0    0  0.11798051321E+00  0.88922927520E-02  0.11305553272E+01  0.11367295559E+01  0.51100000000E-03 0. -1.
    9000002    1    1    2    0    0 -0.41123286621E+00 -0.35128341963E-01  0.11509675216E+00  0.10312311734E+01  0.93800000000E+00 0. -1.
         22    1    1    2    0    0  0.29325235299E+00  0.26236049211E-01  0.27543478880E+01  0.27700392706E+01  0.00000000000E+00 0. -1.
</event>
<event>
 5    1  0.6776507E+001  0.1598910E+01  0.7818608E-02  0.3354547E+00
         11   -1    0    0    0    0  0.00000000000E+00  0.00000000000E+00  0.39999999674E+01  0.40000000000E+01  0.51100000000E-03 0. -1.
    9000002   -1    0    0    0    0 -0.00000000000E+00 -0.00000000000E+00  0.00000000000E+00  0.93800000000E+00  0.93800000000E+00 0. -1.
         11    1    1    2    0    0 -0.23833925288E-01 -0.53025130666E-02  0.14460602513E+00  0.14665379730E+00  0.51100000000E-03 0. -1.
    9000002    1    1    2    0    0  0.62014563729E+00 -0.19440179302E+00  0.29884689190E+00  0.11796296594E+01  0.93800000000E+00 0. -1.
         22    1    1    2    0    0 -0.59631171200E+00  0.19970430609E+00  0.35565470503E+01  0.36117165433E+01  0.00000000000E+00 0. -1.
</event>
<event>
 5    1  0.6776507E+001  0.1599666E+01  0.7818608E-02  0.3353726E+00
         11   -1    0    0    0    0  0.00000000000E+00  0.00000000000E+00  0.39999999674E+01  0.40000000000E+01  0.51100000000E-03 0.  1.
    9000002   -1    0    0    0    0 -0.00000000000E+00 -0.00000000000E+00  0.00000000000E+00  0.93800000000E+00  0.93800000000E+00 0. -1.
         11    1    1    2    0    0 -0.89134241588E-02 -0.14925825233E+00  0.13907818054E+01  0.13987965421E+01  0.51100000000E-03 0.  1.
    9000002    1    1    2    0    0  0.27629836903E-01  0.42620660645E+00  0.12349770068E+00  0.10380323508E+01  0.93800000000E+00 0. -1.
         22    1    1    2    0    0 -0.18716412744E-01 -0.27694835413E+00  0.24857204613E+01  0.25011711071E+01  0.00000000000E+00 0.  1.
</event>
<event>
 5    1  0.6776507E+001  0.1599676E+01  0.7818608E-02  0.3353715E+00
         11   -1    0    0    0    0  0.00000000000E+00  0.00000000000E+00  0.39999999674E+01  0.40000000000E+01  0.51100000000E-03 0. -1.
    9000002   -1    0    0    0    0 -0.00000000000E+00 -0.00000000000E+00  0.00000000000E+00  0.93800000000E+00  0.93800000000E+00 0.  1.
         11    1    1    2    0    0  0.38794072088E-01 -0.70869001153E-01  0.80603027044E+00  0.81006941267E+00  0.51100000000E-03 0. -1.
    9000002    1    1    2    0    0 -0.18733367666E+00  0.33950764818E+00  0.10126448149E+00  0.10200283549E+01  0.93800000000E+00 0.  1.
         22    1    1    2    0    0  0.14853960458E+00 -0.26863864703E+00  0.30927052154E+01  0.31079022324E+01  0.00000000000E+00 0. -1.
</event>
<event>
 5    1  0.6776507E+001  0.1599611E+01  0.7818608E-02  0.3353786E+00
         11   -1    0    0    0    0  0.00000000000E+00  0.00000000000E+00  0.39999999674E+01  0.40000000000E+01  0.51100000000E-03 0. -1.
    9000002   -1    0    0    0    0 -0.00000000000E+00 -0.00000000000E+00  0.00000000000E+00  0.93800000000E+00  0.93800000000E+00 0.  1.
         11    1    1    2    0    0 -0.17238661951E+00 -0.90532570540E-01  0.10403180084E+01  0.10583832542E+01  0.51100000000E-03 0. -1.
    9000002    1    1    2    0    0  0.61173260175E+00  0.28879013919E+00  0.32510962499E+00  0.12013146086E+01  0.93800000000E+00 0.  1.
         22    1    1    2    0    0 -0.43934598224E+00 -0.19825756865E+00  0.26345723339E+01  0.26783021372E+01  0.00000000000E+00 0. -1.
</event>
<event>
 5    1  0.6776507E+001  0.1599644E+01  0.7818608E-02  0.3353749E+00
         11   -1    0    0    0    0  0.00000000000E+00  0.00000000000E+00  0.39999999674E+01  0.40000000000E+01  0.51100000000E-03 0.  1.
    9000002   -1    0    0    0    0 -0.00000000000E+00 -0.00000000000E+00  0.00000000000E+00  0.93800000000E+00  0.93800000000E+00 0.  1.
         11    1    1    2    0    0 -0.54151770396E-01 -0.53409808447E-01  0.64802628297E+00  0.65247478604E+00  0.51100000000E-03 0.  1.
    9000002    1    1    2    0    0  0.30130782266E+00  0.29883672451E+00  0.12189595844E+00  0.10367219572E+01  0.93800000000E+00 0.  1.
         22    1    1    2    0    0 -0.24715605226E+00 -0.24542691606E+00  0.32300777260E+01  0.32488032567E+01  0.00000000000E+00 0.  1.
</event>
<event>
 5    1  0.6776507E+001  0.1599639E+01  0.7818608E-02  0.3353756E+00
         11   -1    0    0    0    0  0.00000000000E+00  0.00000000000E+00  0.39999999674E+01  0.40000000000E+01  0.51100000000E-03 0.  1.
    9000002   -1    0    0    0    0 -0.00000000000E+00 -0.00000000000E+00  0.00000000000E+00  0.93800000000E+00  0.93800000000E+00 0.  1.
         11    1    1    2    0    0  0.11422654463E-01 -0.20178773054E-01  0.29944653496E+00  0.30034338404E+00  0.51100000000E-03 0.  1.
    9000002    1    1    2    0    0 -0.17487476629E+00  0.30873473523E+00  0.84492312005E-01  0.10064200273E+01  0.93800000000E+00 0.  1.
         22    1    1    2    0    0  0.16345211183E+00 -0.28855596217E+00  0.36160611204E+01  0.36312365886E+01  0.00000000000E+00 0.  1.
</event>
<event>
 5    1  0.6776507E+001  0.1599673E+01  0.7818608E-02  0.3353718E+00
         11   -1    0    0    0    0  0.00000000000E+00  0.00000000000E+00  0.39999999674E+01  0.40000000000E+01  0.51100000000E-03 0. -1.
    9000002   -1    0    0    0    0 -0.00000000000E+00 -0.00000000000E+00  0.00000000000E+00  0.93800000000E+00  0.93800000000E+00 0.  1.
         11    1    1    2    0    0  0.15087593083E+00 -0.20741995213E+00  0.11665563011E+01  0.11944205490E+01  0.51100000000E-03 0. -1.
    9000002    1    1    2    0    0 -0.45471305236E+00  0.63645765790E+00  0.44804593916E+00  0.13009348461E+01  0.93800000000E+00 0.  1.
         22    1    1    2    0    0  0.30383712153E+00 -0.42903770577E+00  0.23853977271E+01  0.24426446049E+01  0.00000000000E+00 0. -1.
</event>
<event>
 5    1  0.6776507E+001  0.1599654E+01  0.7818608E-02  0.3353739E+00
         11   -1    0    0    0    0  0.00000000000E+00  0.00000000000E+00  0.39999999674E+01  0.40000000000E+01  0.51100000000E-03 0. -1.
    9000002   -1    0    0    0    0 -0.00000000000E+00 -0.00000000000E+00  0.00000000000E+00  0.93800000000E+00  0.93800000000E+00 0.  1.
         11    1    1    2    0    0  0.28786799699E-01 -0.12498306420E-02  0.34134265853E+00  0.34255702236E+00  0.51100000000E-03 0. -1.
    9000002    1    1    2    0    0 -0.36688453721E+00  0.93179137769E-02  0.90505008885E-01  0.10112992850E+01  0.93800000000E+00 0.  1.
         22    1    1    2    0    0  0.33809773751E+00 -0.80680831348E-02  0.35681522999E+01  0.35841436927E+01  0.00000000000E+00 0. -1.
</event>
<event>
 5    1  0.6776507E+001  0.1587473E+01  0.7818608E-02  0.3367073E+00
         11   -1    0    0    0    0  0.00000000000E+00  0.00000000000E+00  0.39999999674E+01  0.40000000000E+01  0.51100000000E-03 0. -1.
    9000002   -1    0    0    0    0 -0.00000000000E+00 -0.00000000000E+00  0.00000000000E+00  0.93800000000E+00  0.93800000000E+00 0. -1.
         11    1    1    2    0    0 -0.86291104445E-02  0.11822781446E-02  0.54358868226E-03  0.87416210356E-02  0.51100000000E-03 0. -1.
    9000002    1    1    2    0    0 -0.35221032406E+00  0.57562583126E-01  0.95400665724E-01  0.10081224382E+01  0.93800000000E+00 0. -1.
         22    1    1    2    0    0  0.36083943451E+00 -0.58744861270E-01  0.39040557130E+01  0.39211359408E+01  0.00000000000E+00 0. -1.
</event>
<event>
 5    1  0.6776507E+001  0.1599408E+01  0.7818608E-02  0.3354007E+00
         11   -1    0    0    0    0  0.00000000000E+00  0.00000000000E+00  0.39999999674E+01  0.40000000000E+01  0.51100000000E-03 0. -1.
    9000002   -1    0    0    0    0 -0.00000000000E+00 -0.00000000000E+00  0.00000000000E+00  0.93800000000E+00  0.93800000000E+00 0. -1.
         11    1    1    2    0    0  0.40722208529E-01  0.23079223896E-01  0.43591462584E+00  0.43842076934E+00  0.51100000000E-03 0. -1.
    9000002    1    1    2    0    0 -0.28739119013E+00 -0.28706415612E+00  0.11161009779E+00  0.10282511074E+01  0.93800000000E+00 0. -1.
         22    1    1    2    0    0  0.24666898160E+00  0.26398493223E+00  0.34524752437E+01  0.34713281233E+01  0.00000000000E+00 0. -1.
</event>
<event>
 5    1  0.6776507E+001  0.1599130E+01  0.7818608E-02  0.3354308E+00
         11   -1    0    0    0    0  0.00000000000E+00  0.00000000000E+00  0.39999999674E+01  0.40000000000E+01  0.51100000000E-03 0.  1.
    9000002   -1    0    0    0    0 -0.00000000000E+00 -0.00000000000E+00  0.00000000000E+00  0.93800000000E+00  0.93800000000E+00 0. -1.
         11    1    1    2    0    0  0.16327348585E-01 -0.13702991830E-02  0.85847264604E-01  0.87398363787E-01  0.51100000000E-03 0.  1.
    9000002    1    1    2    0    0 -0.36666145684E+00  0.24256283305E-01  0.91163267662E-01  0.10115254483E+01  0.93800000000E+00 0. -1.
         22    1    1    2    0    0  0.35033410825E+00 -0.22885984122E-01  0.38229894351E+01  0.38390761879E+01  0.00000000000E+00 0.  1.
</event>
<event>
 5    1  0.6776507E+001  0.1599677E+01  0.7818608E-02  0.3353714E+00
         11   -1    0    0    0    0  0.00000000000E+00  0.00000000000E+00  0.39999999674E+01  0.40000000000E+01  0.51100000000E-03 0. -1.
    9000002   -1    0    0    0    0 -0.00000000000E+00 -0.00000000000E+00  0.00000000000E+00  0.93800000000E+00  0.93800000000E+00 0.  1.
         11    1    1    2    0    0  0.97172290809E-01  0.37778706792E-01  0.11475569732E+01  0.11522833647E+01  0.51100000000E-03 0. -1.
    9000002    1    1    2    0    0 -0.33150924778E+00 -0.13013864213E+00  0.85102084862E-01  0.10069363497E+01  0.93800000000E+00 0.  1.
         22    1    1    2    0    0  0.23433695697E+00  0.92359935339E-01  0.27673409093E+01  0.27787802856E+01  0.00000000000E+00 0. -1.
</event>
<event>
 5    1  0.6776507E+001  0.1599672E+01  0.7818608E-02  0.3353719E+00
         11   -1    0    0    0    0  0.00000000000E+00  0.00000000000E+00  0.39999999674E+01  0.40000000000E+01  0.51100000000E-03 0.  1.
    9000002   -1    0    0    0    0 -0.00000000000E+00 -0.00000000000E+00  0.00000000000E+00  0.93800000000E+00  0.93800000000E+00 0. -1.
         11    1    1    2    0    0 -0.83618877813E-01 -0.18344701364E-01  0.72044804584E+00  0.72551656954E+00  0.51100000000E-03 0.  1.
    9000002    1    1    2    0    0  0.43804387808E+00  0.94840300543E-01  0.13640046572E+00  0.10484875816E+01  0.93800000000E+00 0. -1.
         22    1    1    2    0    0 -0.35442500026E+00 -0.76495599179E-01  0.31431514558E+01  0.31639958489E+01  0.00000000000E+00 0. -1.
</event>
<event>
 5    1  0.6776507E+001  0.1599677E+01  0.7818608E-02  0.3353714E+00
         11   -1    0    0    0    0  0.00000000000E+00  0.00000000000E+00  0.39999999674E+01  0.40000000000E+01  0.51100000000E-03 0. -1.
    9000002   -1    0    0    0    0 -0.00000000000E+00 -0.00000000000E+00  0.00000000000E+00  0.93800000000E+00  0.93800000000E+00 0. -1.
         11    1    1    2    0    0  0.16203740913E+00  0.21134786853E+00  0.13693039158E+01  0.13949614756E+01  0.51100000000E-03 0. -1.
    9000002    1    1    2    0    0 -0.42919463793E+00 -0.56150856432E+00  0.35763451313E+00  0.12276996172E+01  0.93800000000E+00 0. -1.
         22    1    1    2    0    0  0.26715722880E+00  0.35016069579E+00  0.22730615384E+01  0.23153389072E+01  0.00000000000E+00 0. -1.
</event>
<event>
 5    1  0.6776507E+001  0.1546132E+01  0.7818608E-02  0.3413988E+00
         11   -1    0    0    0    0  0.00000000000E+00  0.00000000000E+00  0.39999999674E+01  0.40000000000E+01  0.51100000000E-03 0.  1.
    9000002   -1    0    0    0    0 -0.00000000000E+00 -0.00000000000E+00  0.00000000000E+00  0.93800000000E+00  0.93800000000E+00 0.  1.
         11    1    1    2    0    0 -0.13201898787E+00  0.69241838615E-01  0.45554564524E+00  0.47931778748E+00  0.51100000000E-03 0.  1.
    9000002    1    1    2    0    0 -0.24050693301E+00  0.10435662083E+00  0.88041808977E-01  0.97792088088E+00  0.93800000000E+00 0.  1.
         22    1    1    2    0    0  0.37252592088E+00 -0.17359845945E+00  0.34564125131E+01  0.34807613316E+01  0.00000000000E+00 0.  1.
</event>
<event>
 5    1  0.6776507E+001  0.1599677E+01  0.7818608E-02  0.3353714E+00
         11   -1    0    0    0    0  0.00000000000E+00  0.00000000000E+00  0.39999999674E+01  0.40000000000E+01  0.51100000000E-03 0.  1.
    9000002   -1    0    0    0    0 -0.00000000000E+00 -0.00000000000E+00  0.00000000000E+00  0.93800000000E+00  0.93800000000E+00 0.  1.
         11    1    1    2    0    0  0.17788365422E+00 -0.17759018604E-01  0.14603921819E+01  0.14712931602E+01  0.51100000000E-03 0.  1.
    9000002    1    1    2    0    0 -0.46781849430E+00  0.48367738116E-01  0.15069459580E+00  0.10600690746E+01  0.93800000000E+00 0.  1.
         22    1    1    2    0    0  0.28993484008E+00 -0.30608719512E-01  0.23889131897E+01  0.24066377652E+01  0.00000000000E+00 0.  1.
</event>
<event>
 5    1  0.6776507E+001  0.1588463E+01  0.7818608E-02  0.3365981E+00
         11   -1    0    0    0    0  0.00000000000E+00  0.00000000000E+00  0.39999999674E+01  0.40000000000E+01  0.51100000000E-03 0. -1.
    9000002   -1    0    0    0    0 -0.00000000000E+00 -0.00000000000E+00  0.00000000000E+00  0.93800000000E+00  0.93800000000E+00 0. -1.
         11    1    1    2    0    0 -0.93836117054E-01 -0.41520884205E-01  0.42918495475E+00  0.44128130166E+00  0.51100000000E-03 0. -1.
    9000002    1    1    2    0    0  0.12155020904E+00  0.38165542252E+00  0.11761813606E+00  0.10267002195E+01  0.93800000000E+00 0. -1.
         22    1    1    2    0    0 -0.27714091988E-01 -0.34013453832E+00  0.34531968765E+01  0.34700184788E+01  0.00000000000E+00 0. -1.
</event>
<event>
 5    1  0.6776507E+001  0.1593215E+01  0.7818608E-02  0.3360761E+00
         11   -1    0    0    0    0  0.00000000000E+00  0.00000000000E+00  0.39999999674E+01  0.40000000000E+01  0.51100000000E-03 0. -1.
    9000002   -1    0    0    0    0 -0.00000000000E+00 -0.00000000000E+00  0.00000000000E+00  0.93800000000E+00  0.93800000000E+00 0. -1.
         11    1    1    2    0    0 -0.15831366555E-01  0.22902086101E-03  0.30184858715E-01  0.34089168869E-01  0.51100000000E-03 0. -1.
    9000002    1    1    2    0    0 -0.15913303666E+00  0.41026882248E+00  0.13688818137E+00  0.10450962655E+01  0.93800000000E+00 0. -1.
         22    1    1    2    0    0  0.17496440321E+00 -0.41049784334E+00  0.38329269273E+01  0.38588145656E+01  0.00000000000E+00 0. -1.
</event>
<event>
 5    1  0.6776507E+001  0.1599663E+01  0.7818608E-02  0.3353729E+00
         11   -1    0    0    0    0  0.00000000000E+00  0.00000000000E+00  0.39999999674E+01  0.40000000000E+01  0.51100000000E-03 0. -1.
    9000002   -1    0    0    0    0 -0.00000000000E+00 -0.00000000000E+00  0.00000000000E+00  0.93800000000E+00  0.93800000000E+00 0.  1.
         11    1    1    2    0    0  0.58230600928E-01 -0.77812580138E-01  0.10411773729E+01  0.10457036786E+01  0.51100000000E-03 0. -1.
    9000002    1    1    2    0    0 -0.22579762677E+00  0.27917246496E+00  0.86542486473E-01  0.10080949536E+01  0.93800000000E+00 0.  1.
         22    1    1    2    0    0  0.16756702584E+00 -0.20135988482E+00  0.28722801080E+01  0.28842013679E+01  0.00000000000E+00 0. -1.
</event>
<event>
 5    1  0.6776507E+001  0.1599453E+01  0.7818608E-02  0.3353958E+00
         11   -1    0    0    0    0  0.00000000000E+00  0.00000000000E+00  0.39999999674E+01  0.40000000000E+01  0.51100000000E-03 0.  1.
    9000002   -1    0    0    0    0 -0.00000000000E+00 -0.00000000000E+00  0.00000000000E+00  0.93800000000E+00  0.93800000000E+00 0. -1.
         11    1    1    2    0    0 -0.39842890964E-01  0.18972956942E-01  0.57419618413E+00  0.57588970129E+00  0.51100000000E-03 0.  1.
    9000002    1    1    2    0    0  0.35545817643E+00 -0.14820309638E+00  0.10003902132E+00  0.10189045484E+01  0.93800000000E+00 0. -1.
         22    1    1    2    0    0 -0.31561528546E+00  0.12923013944E+00  0.33257647619E+01  0.33432057503E+01  0.00000000000E+00 0.  1.
</event>
<event>
 5    1  0.6776507E+001  0.1598196E+01  0.7818608E-02  0.3355323E+00
         11   -1    0    0    0    0  0.00000000000E+00  0.00000000000E+00  0.39999999674E+01  0.40000000000E+01  0.51100000000E-03 0. -1.
    9000002   -1    0    0    0    0 -0.00000000000E+00 -0.00000000000E+00  0.00000000000E+00  0.93800000000E+00  0.93800000000E+00 0. -1.
         11    1    1    2    0    0  0.10152114845E+00  0.63633503794E-01  0.10539505968E+01  0.10607393119E+01  0.51100000000E-03 0. -1.
    9000002    1    1    2    0    0 -0.40864962667E+00 -0.86701900926E-01  0.11923580467E+00  0.10337180051E+01  0.93800000000E+00 0. -1.
         22    1    1    2    0    0  0.30712847823E+00  0.23068397132E-01  0.28268135659E+01  0.28435426829E+01  0.00000000000E+00 0. -1.
</event>
<event>
 5    1  0.6776507E+001  0.1594966E+01  0.7818608E-02  0.3358846E+00
         11   -1    0    0    0    0  0.00000000000E+00  0.00000000000E+00  0.39999999674E+01  0.40000000000E+01  0.51100000000E-03 0. -1.
    9000002   -1    0    0    0    0 -0.00000000000E+00 -0.00000000000E+00  0.00000000000E+00  0.93800000000E+00  0.93800000000E+00 0. -1.
         11    1    1    2    0    0 -0.99549930433E-02 -0.16649301430E-02  0.74232536580E+00  0.74239415657E+00  0.51100000000E-03 0. -1.
    9000002    1    1    2    0    0  0.38920239737E+00 -0.43628393254E-01  0.10725716978E+00  0.10221203663E+01  0.93800000000E+00 0. -1.
         22    1    1    2    0    0 -0.37924740432E+00  0.45293323397E-01  0.31504174318E+01  0.31734854771E+01  0.00000000000E+00 0. -1.
</event>
<event>
 5    1  0.6776507E+001  0.1598336E+01  0.7818608E-02  0.3355171E+00
         11   -1    0    0    0    0  0.00000000000E+00  0.00000000000E+00  0.39999999674E+01  0.40000000000E+01  0.51100000000E-03 0.  1.
    9000002   -1    0    0    0    0 -0.00000000000E+00 -0.00000000000E+00  0.00000000000E+00  0.93800000000E+00  0.93800000000E+00 0. -1.
         11    1    1    2    0    0 -0.57427357600E-01 -0.84695239357E-01  0.85376051186E+00  0.85987118670E+00  0.51100000000E-03 0.  1.
    9000002    1    1    2    0    0  0.21799435935E+00  0.53367805941E+00  0.23203864608E+00  0.11251754286E+01  0.93800000000E+00 0. -1.
         22    1    1    2    0    0 -0.16056700175E+00 -0.44898282005E+00  0.29142008094E+01  0.29529533847E+01  0.00000000000E+00 0.  1.
</event>
<event>
 5    1  0.6776507E+001  0.1599677E+01  0.7818608E-02  0.3353714E+00
         11   -1    0    0    0    0  0.00000000000E+00  0.00000000000E+00  0.39999999674E+01  0.40000000000E+01  0.51100000000E-03 0.  1.
    9000002   -1    0    0    0    0 -0.00000000000E+00 -0.00000000000E+00  0.00000000000E+00  0.93800000000E+00  0.93800000000E+00 0. -1.
         11    1    1    2    0    0  0.21021660994E-01  0.16450055545E+00  0.13969215852E+01  0.14067311468E+01  0.51100000000E-03 0.  1.
    9000002    1    1    2    0    0 -0.58952336788E-01 -0.45406055990E+00  0.14255572244E+00  0.10534763899E+01  0.93800000000E+00 0. -1.
         22    1    1    2    0    0  0.37930675794E-01  0.28956000445E+00  0.24605226597E+01  0.24777924633E+01  0.00000000000E+00 0.  1.
</event>
<event>
 5    1  0.6776507E+001  0.1599665E+01  0.7818608E-02  0.3353727E+00
         11   -1    0    0    0    0  0.00000000000E+00  0.00000000000E+00  0.39999999674E+01  0.40000000000E+01  0.51100000000E-03 0. -1.
    9000002   -1    0    0    0    0 -0.00000000000E+00 -0.00000000000E+00  0.00000000000E+00  0.93800000000E+00  0.93800000000E+00 0. -1.
         11    1    1    2    0    0 -0.70714174445E-01 -0.48523676852E-02  0.67571350984E+00  0.67942111275E+00  0.51100000000E-03 0. -1.
    9000002    1    1    2    0    0  0.39321431297E+00  0.17197474428E-01  0.10441675394E+00  0.10225752332E+01  0.93800000000E+00 0. -1.
         22    1    1    2    0    0 -0.32250013853E+00 -0.12345106743E-01  0.32198697036E+01  0.32360036541E+01  0.00000000000E+00 0. -1.
</event>
<event>
 5    1  0.6776507E+001  0.1497697E+01  0.7818608E-02  0.3472478E+00
         11   -1    0    0    0    0  0.00000000000E+00  0.00000000000E+00  0.39999999674E+01  0.40000000000E+01  0.51100000000E-03 0.  1.
    9000002   -1    0    0    0    0 -0.00000000000E+00 -0.00000000000E+00  0.00000000000E+00  0.93800000000E+00  0.93800000000E+00 0.  1.
         11    1    1    2    0    0  0.60021254999E-01 -0.87662366361E-01  0.12386987987E-01  0.10696233038E+00  0.51100000000E-03 0.  1.
    9000002    1    1    2    0    0 -0.87598795188E-01  0.62577515566E+00  0.39458844902E+00  0.11978364406E+01  0.93800000000E+00 0.  1.
         22    1    1    2    0    0  0.27577540190E-01 -0.53811278930E+00  0.35930245304E+01  0.36332012290E+01  0.00000000000E+00 0.  1.
</event>
<event>
 5    1  0.6776507E+001  0.1595828E+01  0.7818608E-02  0.3357904E+00
         11   -1    0    0    0    0  0.00000000000E+00  0.00000000000E+00  0.39999999674E+01  0.40000000000E+01  0.51100000000E-03 0.  1.
    9000002   -1    0    0    0    0 -0.00000000000E+00 -0.00000000000E+00  0.00000000000E+00  0.93800000000E+00  0.93800000000E+00 0.  1.
         11    1    1    2    0    0 -0.36155827231E-01 -0.19895112290E-01  0.10249251313E+01  0.10257557435E+01  0.51100000000E-03 0.  1.
    9000002    1    1    2    0    0  0.29786615727E+00 -0.11849921928E+00  0.71745488876E-01  0.99386001418E+00  0.93800000000E+00 0.  1.
         22    1    1    2    0    0 -0.26171033004E+00  0.13839433157E+00  0.29033293472E+01  0.29183842424E+01  0.00000000000E+00 0.  1.
</event>
<event>
 5    1  0.6776507E+001  0.1455763E+01  0.7818608E-02  0.3526512E+00
         11   -1    0    0    0    0  0.00000000000E+00  0.00000000000E+00  0.39999999674E+01  0.40000000000E+01  0.51100000000E-03 0. -1.
    9000002   -1    0    0    0    0 -0.00000000000E+00 -0.00000000000E+00  0.00000000000E+00  0.93800000000E+00  0.93800000000E+00 0. -1.
         11    1    1    2    0    0 -0.59903475424E-01  0.38713506593E+00  0.11177208988E+01  0.11843826469E+01  0.51100000000E-03 0. -1.
    9000002    1    1    2    0    0 -0.20607961456E+00  0.11883158286E+00  0.17093972660E+00  0.98267702871E+00  0.93800000000E+00 0. -1.
         22    1    1    2    0    0  0.26598308998E+00 -0.50596664879E+00  0.27113393420E+01  0.27709403244E+01  0.00000000000E+00 0. -1.
</event>
<event>
 5    1  0.6776507E+001  0.1599539E+01  0.7818608E-02  0.3353864E+00
         11   -1    0    0    0    0  0.00000000000E+00  0.00000000000E+00  0.39999999674E+01  0.40000000000E+01  0.51100000000E-03 0. -1.
    9000002   -1    0    0    0    0 -0.00000000000E+00 -0.00000000000E+00  0.00000000000E+00  0.93800000000E+00  0.93800000000E+00 0.  1.
         11    1    1    2    0    0 -0.72542443565E-01  0.11616854100E-01  0.56780922290E+00  0.57254251558E+00  0.51100000000E-03 0. -1.
    9000002    1    1    2    0    0  0.50998862347E+00 -0.14122542861E+00  0.19280231891E+00  0.10940976885E+01  0.93800000000E+00 0.  1.
         22    1    1    2    0    0 -0.43744617991E+00  0.12960857451E+00  0.32393884256E+01  0.32713597959E+01  0.00000000000E+00 0. -1.
</event>
<event>
 5    1  0.6776507E+001  0.1599639E+01  0.7818608E-02  0.3353755E+00
         11   -1    0    0    0    0  0.00000000000E+00  0.00000000000E+00  0.39999999674E+01  0.40000000000E+01  0.51100000000E-03 0. -1.
    9000002   -1    0    0    0    0 -0.00000000000E+00 -0.00000000000E+00  0.00000000000E+00  0.93800000000E+00  0.93800000000E+00 0. -1.
         11    1    1    2    0    0  0.41303533442E-02 -0.39574037617E-02  0.45071099478E-01  0.45435514660E-01  0.51100000000E-03 0. -1.
    9000002    1    1    2    0    0 -0.23999943839E+00  0.28670989840E+00  0.94026767411E-01  0.10141436433E+01  0.93800000000E+00 0. -1.
         22    1    1    2    0    0  0.23586908505E+00 -0.28275249464E+00  0.38609021005E+01  0.38784208420E+01  0.00000000000E+00 0. -1.
</event>
<event>
 5    1  0.6776507E+001  0.1530539E+01  0.7818608E-02  0.3432385E+00
         11   -1    0    0    0    0  0.00000000000E+00  0.00000000000E+00  0.39999999674E+01  0.40000000000E+01  0.51100000000E-03 0. -1.
    9000002   -1    0    0    0    0 -0.00000000000E+00 -0.00000000000E+00  0.00000000000E+00  0.93800000000E+00  0.93800000000E+00 0.  1.
         11    1    1    2    0    0  0.12482667583E+00 -0.25697527052E+00  0.94205186772E+00  0.98441859555E+00  0.51100000000E-03 0. -1.
    9000002    1    1    2    0    0  0.14922084538E+00  0.15604673304E+00  0.84945869164E-01  0.96626975751E+00  0.93800000000E+00 0.  1.
         22    1    1    2    0    0 -0.27404752121E+00  0.10092853748E+00  0.29730022305E+01  0.29873116469E+01  0.00000000000E+00 0. -1.
</event>
<event>
 5    1  0.6776507E+001  0.1586038E+01  0.7818608E-02  0.3368659E+00
         11   -1    0    0    0    0  0.00000000000E+00  0.00000000000E+00  0.39999999674E+01  0.40000000000E+01  0.51100000000E-03 0. -1.
    9000002   -1    0    0    0    0 -0.00000000000E+00 -0.00000000000E+00  0.00000000000E+00  0.93800000000E+00  0.93800000000E+00 0. -1.
         11    1    1    2    0    0 -0.47826222805E-01  0.10063629314E+00  0.50647929994E+00  0.51859093077E+00  0.51100000000E-03 0. -1.
    9000002    1    1    2    0    0 -0.21357246638E+00 -0.33140668254E+00  0.11616424349E+00  0.10241004438E+01  0.93800000000E+00 0. -1.
         22    1    1    2    0    0  0.26139868919E+00  0.23077038940E+00  0.33773564239E+01  0.33953086254E+01  0.00000000000E+00 0. -1.
</event>
<event>
 5    1  0.6776507E+001  0.1586551E+01  0.7818608E-02  0.3368091E+00
         11   -1    0    0    0    0  0.00000000000E+00  0.00000000000E+00  0.39999999674E+01  0.40000000000E+01  0.51100000000E-03 0.  1.
    9000002   -1    0    0    0    0 -0.00000000000E+00 -0.00000000000E+00  0.00000000000E+00  0.93800000000E+00  0.93800000000E+00 0.  1.
         11    1    1    2    0    0  0.68765840124E-01 -0.27185476683E-02  0.74664853382E+00  0.74981359380E+00  0.51100000000E-03 0.  1.
    9000002    1    1    2    0    0  0.43964165363E-01  0.41158083156E+00  0.12689174105E+00  0.10330910621E+01  0.93800000000E+00 0.  1.
         22    1    1    2    0    0 -0.11273000549E+00 -0.40886228389E+00  0.31264596925E+01  0.31550953441E+01  0.00000000000E+00 0.  1.
</event>
<event>
 5    1  0.6776507E+001  0.1598816E+01  0.7818608E-02  0.3354649E+00
         11   -1    0    0    0    0  0.00000000000E+00  0.00000000000E+00  0.39999999674E+01  0.40000000000E+01  0.51100000000E-03 0.  1.
    9000002   -1    0    0    0    0 -0.00000000000E+00 -0.00000000000E+00  0.00000000000E+00  0.93800000000E+00  0.93800000000E+00 0. -1.
         11    1    1    2    0    0  0.50909573612E-02 -0.14366171930E-01  0.14246145988E+00  0.14327537616E+00  0.51100000000E-03 0.  1.
    9000002    1    1    2    0    0 -0.48082542029E+00  0.29186430647E+00  0.21987120229E+00  0.11156008264E+01  0.93800000000E+00 0. -1.
         22    1    1    2    0    0  0.47573446293E+00 -0.27749813454E+00  0.36376673052E+01  0.36791237975E+01  0.00000000000E+00 0.  1.
</event>
<event>
 5    1  0.6776507E+001  0.1569959E+01  0.7818608E-02  0.3386629E+00
         11   -1    0    0    0    0  0.00000000000E+00  0.00000000000E+00  0.39999999674E+01  0.40000000000E+01  0.51100000000E-03 0. -1.
    9000002   -1    0    0    0    0 -0.00000000000E+00 -0.00000000000E+00  0.00000000000E+00  0.93800000000E+00  0.93800000000E+00 0.  1.
         11    1    1    2    0    0 -0.22737761765E-01 -0.16047036545E+00  0.11304180098E+01  0.11419776189E+01  0.51100000000E-03 0. -1.
    9000002    1    1    2    0    0 -0.25703868234E+00 -0.18426646355E-02  0.67054234944E-01  0.97489104522E+00  0.93800000000E+00 0.  1.
         22    1    1    2    0    0  0.27977644411E+00  0.16231303008E+00  0.28025277226E+01  0.28211313359E+01  0.00000000000E+00 0. -1.
</event>
<event>
 5    1  0.6776507E+001  0.1596966E+01  0.7818608E-02  0.3356663E+00
         11   -1    0    0    0    0  0.00000000000E+00  0.00000000000E+00  0.39999999674E+01  0.40000000000E+01  0.51100000000E-03 0.  1.
    9000002   -1    0    0    0    0 -0.00000000000E+00 -0.00000000000E+00  0.00000000000E+00  0.93800000000E+00  0.93800000000E+00 0. -1.
         11    1    1    2    0    0 -0.60055187179E-01  0.10565219557E+00  0.13960503306E+01  0.14013300106E+01  0.51100000000E-03 0.  1.
    9000002    1    1    2    0    0  0.30094711498E+00 -0.38634225625E+00  0.16632105104E+00  0.10711378049E+01  0.93800000000E+00 0. -1.
         22    1    1    2    0    0 -0.24089192780E+00  0.28069006068E+00  0.24376285857E+01  0.24655321845E+01  0.00000000000E+00 0. -1.
</event>
<event>
 5    1  0.6776507E+001  0.1599652E+01  0.7818608E-02  0.3353741E+00
         11   -1    0    0    0    0  0.00000000000E+00  0.00000000000E+00  0.39999999674E+01  0.40000000000E+01  0.51100000000E-03 0.  1.
    9000002   -1    0    0    0    0 -0.00000000000E+00 -0.00000000000E+00  0.00000000000E+00  0.93800000000E+00  0.93800000000E+00 0.  1.
         11    1    1    2    0    0  0.13936279980E+00  0.48805429025E-01  0.14540322682E+01  0.14615108819E+01  0.51100000000E-03 0.  1.
    9000002    1    1    2    0    0 -0.35837907175E+00 -0.13281825790E+00  0.98332817190E-01  0.10176392247E+01  0.93800000000E+00 0.  1.
         22    1    1    2    0    0  0.21901627195E+00  0.84012828871E-01  0.24476348820E+01  0.24588498934E+01  0.00000000000E+00 0. -1.
</event>
<event>
 5    1  0.1239648E+002  0.1549785E+01  0.7818608E-02  0.3409736E+00
         11   -1    0    0    0    0  0.00000000000E+00  0.00000000000E+00  0.39999999674E+01  0.40000000000E+01  0.51100000000E-03 0. -1.
    9000002   -1    0    0    0    0 -0.00000000000E+00 -0.00000000000E+00  0.00000000000E+00  0.93800000000E+00  0.93800000000E+00 0. -1.
         11    1    1    2    0    0  0.19698455408E+00  0.88940067872E-01  0.10456374127E+01  0.10677411250E+01  0.51100000000E-03 0. -1.
    9000002    1    1    2    0    0  0.93268592731E-01 -0.15393090592E-01  0.43202508930E-01  0.94374066057E+00  0.93800000000E+00 0. -1.
         22    1    1    2    0    0 -0.29025314682E+00 -0.73546977280E-01  0.29111600458E+01  0.29265182144E+01  0.00000000000E+00 0. -1.
</event>
<event>
 5    1  0.6776507E+001  0.1597293E+01  0.7818608E-02  0.3356307E+00
         11   -1    0    0    0    0  0.00000000000E+00  0.00000000000E+00  0.39999999674E+01  0.40000000000E+01  0.51100000000E-03 0. -1.
    9000002   -1    0    0    0    0 -0.00000000000E+00 -0.00000000000E+00  0.00000000000E+00  0.93800000000E+00  0.93800000000E+00 0.  1.
         11    1    1    2    0    0  0.84312899864E-01  0.12064928059E+00  0.90801089747E+00  0.91986355783E+00  0.51100000000E-03 0. -1.
    9000002    1    1    2    0    0 -0.14316939435E+00 -0.51438227592E+00  0.19854018017E+00  0.10974282685E+01  0.93800000000E+00 0.  1.
         22    1    1    2    0    0  0.58856494488E-01  0.39373299533E+00  0.28934488897E+01  0.29207081737E+01  0.00000000000E+00 0. -1.
</event>
<event>
 5    1  0.6776507E+001  0.1599667E+01  0.7818608E-02  0.3353725E+00
         11   -1    0    0    0    0  0.00000000000E+00  0.00000000000E+00  0.39999999674E+01  0.40000000000E+01  0.51100000000E-03 0. -1.
    9000002   -1    0    0    0    0 -0.00000000000E+00 -0.00000000000E+00  0.00000000000E+00  0.93800000000E+00  0.93800000000E+00 0. -1.
         11    1    1    2    0    0  0.30346034289E-02 -0.93021379437E-02  0.66559959702E-01  0.67277246858E-01  0.51100000000E-03 0. -1.
    9000002    1    1    2    0    0 -0.13332119087E+00  0.56026263128E+00  0.23025940344E+00  0.11245141835E+01  0.93800000000E+00 0. -1.
         22    1    1    2    0    0  0.13028658744E+00 -0.55096049333E+00  0.37031806042E+01  0.37462085697E+01  0.00000000000E+00 0. -1.
</event>
<event>
 5    1  0.6776507E+001  0.1599354E+01  0.7818608E-02  0.3354064E+00
         11   -1    0    0    0    0  0.00000000000E+00  0.00000000000E+00  0.39999999674E+01  0.40000000000E+01  0.51100000000E-03 0. -1.
    9000002   -1    0    0    0    0 -0.00000000000E+00 -0.00000000000E+00  0.00000000000E+00  0.93800000000E+00  0.93800000000E+00 0.  1.
         11    1    1    2    0    0  0.14530001036E-01 -0.75263356020E-01  0.74008218052E+00  0.74404138912E+00  0.51100000000E-03 0. -1.
    9000002    1    1    2    0    0 -0.15219841074E+00  0.34916564358E+00  0.97891949645E-01  0.10171075836E+01  0.93800000000E+00 0.  1.
         22    1    1    2    0    0  0.13766840971E+00 -0.27390228756E+00  0.31620258372E+01  0.31768510272E+01  0.00000000000E+00 0. -1.
</event>
<event>
 5    1  0.6776507E+001  0.1598757E+01  0.7818608E-02  0.3354713E+00
         11   -1    0    0    0    0  0.00000000000E+00  0.00000000000E+00  0.39999999674E+01  0.40000000000E+01  0.51100000000E-03 0. -1.
    9000002   -1    0    0    0    0 -0.00000000000E+00 -0.00000000000E+00  0.00000000000E+00  0.93800000000E+00  0.93800000000E+00 0. -1.
         11    1    1    2    0    0  0.36099304911E-03 -0.53848880784E-01  0.35272226699E+00  0.35680960053E+00  0.51100000000E-03 0. -1.
    9000002    1    1    2    0    0  0.11593369097E+00  0.39448422171E+00  0.11497124866E+00  0.10305924558E+01  0.93800000000E+00 0. -1.
         22    1    1    2    0    0 -0.11629468401E+00 -0.34063534093E+00  0.35323064517E+01  0.35505979437E+01  0.00000000000E+00 0. -1.
</event>
<event>
 5    1  0.6776507E+001  0.1439224E+01  0.7818608E-02  0.3548767E+00
         11   -1    0    0    0    0  0.00000000000E+00  0.00000000000E+00  0.39999999674E+01  0.40000000000E+01  0.51100000000E-03 0.  1.
    9000002   -1    0    0    0    0 -0.00000000000E+00 -0.00000000000E+00  0.00000000000E+00  0.93800000000E+00  0.93800000000E+00 0.  1.
         11    1    1    2    0    0 -0.23259457937E+00  0.55209667843E+00  0.11785742958E+01  0.13221000766E+01  0.51100000000E-03 0.  1.
    9000002    1    1    2    0    0 -0.43332017048E+00 -0.78815379315E+00  0.93339619851E+00  0.16000078860E+01  0.93800000000E+00 0.  1.
         22    1    1    2    0    0  0.66591474985E+00  0.23605711472E+00  0.18880294730E+01  0.20158920374E+01  0.00000000000E+00 0.  1.
</event>
<event>
 5    1  0.6776507E+001  0.1599669E+01  0.7818608E-02  0.3353723E+00
         11   -1    0    0    0    0  0.00000000000E+00  0.00000000000E+00  0.39999999674E+01  0.40000000000E+01  0.51100000000E-03 0. -1.
    9000002   -1    0    0    0    0 -0.00000000000E+00 -0.00000000000E+00  0.00000000000E+00  0.93800000000E+00  0.93800000000E+00 0. -1.
         11    1    1    2    0    0  0.42939173271E-01 -0.68216944699E-02  0.33529410487E+00  0.33810162082E+00  0.51100000000E-03 0.  1.
    9000002    1    1    2    0    0 -0.47137687044E+00  0.83821457383E-01  0.15637901739E+00  0.10646692387E+01  0.93800000000E+00 0. -1.
         22    1    1    2    0    0  0.42843769717E+00 -0.76999762913E-01  0.35083268451E+01  0.35352291405E+01  0.00000000000E+00 0. -1.
</event>
<event>
 5    1  0.6776507E+001  0.1590328E+01  0.7818608E-02  0.3363929E+00
         11   -1    0    0    0    0  0.00000000000E+00  0.00000000000E+00  0.39999999674E+01  0.40000000000E+01  0.51100000000E-03 0.  1.
    9000002   -1    0    0    0    0 -0.00000000000E+00 -0.00000000000E+00  0.00000000000E+00  0.93800000000E+00  0.93800000000E+00 0. -1.
         11    1    1    2    0    0  0.66714363627E-01 -0.50459151930E-03  0.10990925072E+01  0.11011156440E+01  0.51100000000E-03 0.  1.
    9000002    1    1    2    0    0 -0.13566526481E+00 -0.35583930621E+00  0.10530714658E+00  0.10178213355E+01  0.93800000000E+00 0. -1.
         22    1    1    2    0    0  0.68950901183E-01  0.35634389772E+00  0.27956003136E+01  0.28190630205E+01  0.00000000000E+00 0.  1.
</event>
<event>
 5    1  0.6776507E+001  0.1599659E+01  0.7818608E-02  0.3353733E+00
         11   -1    0    0    0    0  0.00000000000E+00  0.00000000000E+00  0.39999999674E+01  0.40000000000E+01  0.51100000000E-03 0. -1.
    9000002   -1    0    0    0    0 -0.00000000000E+00 -0.00000000000E+00  0.00000000000E+00  0.93800000000E+00  0.93800000000E+00 0. -1.
         11    1    1    2    0    0  0.82795152488E-01  0.20375489965E-01  0.79378666041E+00  0.79835313066E+00  0.51100000000E-03 0. -1.
    9000002    1    1    2    0    0 -0.39767717164E+00 -0.11832654891E+00  0.11635978893E+00  0.10322460489E+01  0.93800000000E+00 0. -1.
         22    1    1    2    0    0  0.31488201916E+00  0.97951058947E-01  0.30898535180E+01  0.31074008204E+01  0.00000000000E+00 0. -1.
</event>
<event>
 5    1  0.6776507E+001  0.1547514E+01  0.7818608E-02  0.3412377E+00
         11   -1    0    0    0    0  0.00000000000E+00  0.00000000000E+00  0.39999999674E+01  0.40000000000E+01  0.51100000000E-03 0.  1.
    9000002   -1    0    0    0    0 -0.00000000000E+00 -0.00000000000E+00  0.00000000000E+00  0.93800000000E+00  0.93800000000E+00 0. -1.
         11    1    1    2    0    0 -0.62423632747E+00 -0.18349575470E+00  0.88613996730E+00  0.10993570791E+01  0.51100000000E-03 0.  1.
    9000002    1    1    2    0    0  0.11408709486E+01  0.94202320015E-01  0.13666235045E+01  0.20144389793E+01  0.93800000000E+00 0. -1.
         22    1    1    2    0    0 -0.51663462109E+00  0.89293434680E-01  0.17472364955E+01  0.18242039416E+01  0.00000000000E+00 0.  1.
</event>
<event>
 5    1  0.6776507E+001  0.1599673E+01  0.7818608E-02  0.3353718E+00
         11   -1    0    0    0    0  0.00000000000E+00  0.00000000000E+00  0.39999999674E+01  0.40000000000E+01  0.51100000000E-03 0.  1.
    9000002   -1    0    0    0    0 -0.00000000000E+00 -0.00000000000E+00  0.00000000000E+00  0.93800000000E+00  0.93800000000E+00 0. -1.
         11    1    1    2    0    0 -0.54413503483E-02 -0.17141960705E-01  0.14718961975E+00  0.14828519951E+00  0.51100000000E-03 0.  1.
    9000002    1    1    2    0    0  0.13148029642E+00  0.43278163020E+00  0.13900314245E+00  0.10505964408E+01  0.93800000000E+00 0. -1.
         22    1    1    2    0    0 -0.12603894608E+00 -0.41563966950E+00  0.37138072052E+01  0.37391183597E+01  0.00000000000E+00 0.  1.
</event>
<event>
 5    1  0.6776507E+001  0.1599561E+01  0.7818608E-02  0.3353840E+00
         11   -1    0    0    0    0  0.00000000000E+00  0.00000000000E+00  0.39999999674E+01  0.40000000000E+01  0.51100000000E-03 0. -1.
    9000002   -1    0    0    0    0 -0.00000000000E+00 -0.00000000000E+00  0.00000000000E+00  0.93800000000E+00  0.93800000000E+00 0. -1.
         11    1    1    2    0    0  0.21589377454E-01 -0.12311936318E+00  0.12326107697E+01  0.12389326250E+01  0.51100000000E-03 0. -1.
    9000002    1    1    2    0    0 -0.99300374243E-01  0.36751606231E+00  0.97617086987E-01  0.10170062517E+01  0.93800000000E+00 0. -1.
         22    1    1    2    0    0  0.77710996789E-01 -0.24439669913E+00  0.26697721107E+01  0.26820611232E+01  0.00000000000E+00 0. -1.
</event>
<event>
 5    1  0.6776507E+001  0.1598863E+01  0.7818608E-02  0.3354598E+00
         11   -1    0    0    0    0  0.00000000000E+00  0.00000000000E+00  0.39999999674E+01  0.40000000000E+01  0.51100000000E-03 0.  1.
    9000002   -1    0    0    0    0 -0.00000000000E+00 -0.00000000000E+00  0.00000000000E+00  0.93800000000E+00  0.93800000000E+00 0.  1.
         11    1    1    2    0    0 -0.13214829344E+00 -0.39630507096E-01  0.11735564099E+01  0.11816381244E+01  0.51100000000E-03 0.  1.
    9000002    1    1    2    0    0  0.38253136669E+00  0.43396741344E-01  0.10045483333E+00  0.10188958225E+01  0.93800000000E+00 0.  1.
         22    1    1    2    0    0 -0.25038307325E+00 -0.37662342486E-02  0.27259887241E+01  0.27374660531E+01  0.00000000000E+00 0.  1.
</event>
<event>
 5    1  0.6776507E+001  0.1599677E+01  0.7818608E-02  0.3353714E+00
         11   -1    0    0    0    0  0.00000000000E+00  0.00000000000E+00  0.39999999674E+01  0.40000000000E+01  0.51100000000E-03 0. -1.
    9000002   -1    0    0    0    0 -0.00000000000E+00 -0.00000000000E+00  0.00000000000E+00  0.93800000000E+00  0.93800000000E+00 0.  1.
         11    1    1    2    0    0 -0.77555217024E-01  0.11728965568E+00  0.71965758204E+00  0.73326596234E+00  0.51100000000E-03 0. -1.
    9000002    1    1    2    0    0  0.39000794482E+00 -0.59430033220E+00  0.36219307039E+00  0.12313922617E+01  0.93800000000E+00 0.  1.
         22    1    1    2    0    0 -0.31245272779E+00  0.47701067651E+00  0.29181493149E+01  0.29733417760E+01  0.00000000000E+00 0. -1.
</event>
<event>
 5    1  0.6776507E+001  0.1599628E+01  0.7818608E-02  0.3353767E+00
         11   -1    0    0    0    0  0.00000000000E+00  0.00000000000E+00  0.39999999674E+01  0.40000000000E+01  0.51100000000E-03 0.  1.
    9000002   -1    0    0    0    0 -0.00000000000E+00 -0.00000000000E+00  0.00000000000E+00  0.93800000000E+00  0.93800000000E+00 0.  1.
         11    1    1    2    0    0 -0.89671965252E-01  0.10145188067E-01  0.75045673980E+00  0.75586345699E+00  0.51100000000E-03 0.  1.
    9000002    1    1    2    0    0  0.43732032100E+00 -0.28627648210E-01  0.13026980044E+00  0.10434954846E+01  0.93800000000E+00 0.  1.
         22    1    1    2    0    0 -0.34764835575E+00  0.18482460143E-01  0.31192734271E+01  0.31386410584E+01  0.00000000000E+00 0.  1.
</event>
<event>
 5    1  0.6776507E+001  0.1599676E+01  0.7818608E-02  0.3353716E+00
         11   -1    0    0    0    0  0.00000000000E+00  0.00000000000E+00  0.39999999674E+01  0.40000000000E+01  0.51100000000E-03 0.  1.
    9000002   -1    0    0    0    0 -0.00000000000E+00 -0.00000000000E+00  0.00000000000E+00  0.93800000000E+00  0.93800000000E+00 0.  1.
         11    1    1    2    0    0  0.11500517931E-01  0.19610903352E-02  0.11372754382E+00  0.11432551392E+00  0.51100000000E-03 0. -1.
    9000002    1    1    2    0    0 -0.39168662550E+00 -0.66003136954E-01  0.10638551387E+00  0.10241761100E+01  0.93800000000E+00 0.  1.
         22    1    1    2    0    0  0.38018610757E+00  0.64042046619E-01  0.37798869097E+01  0.37994983761E+01  0.00000000000E+00 0.  1.
</event>
<event>
 5    1  0.6776507E+001  0.1535186E+01  0.7818608E-02  0.3426861E+00
         11   -1    0    0    0    0  0.00000000000E+00  0.00000000000E+00  0.39999999674E+01  0.40000000000E+01  0.51100000000E-03 0. -1.
    9000002   -1    0    0    0    0 -0.00000000000E+00 -0.00000000000E+00  0.00000000000E+00  0.93800000000E+00  0.93800000000E+00 0.  1.
         11    1    1    2    0    0  0.37207788495E-01 -0.14712410843E+00  0.39027612003E+00  0.41874292089E+00  0.51100000000E-03 0. -1.
    9000002    1    1    2    0    0  0.12488645808E+00 -0.31136281046E+00  0.12874167475E+00  0.10044709284E+01  0.93800000000E+00 0.  1.
         22    1    1    2    0    0 -0.16209424657E+00  0.45848691889E+00  0.34809821726E+01  0.35147861507E+01  0.00000000000E+00 0. -1.
</event>
<event>
 5    1  0.6776507E+001  0.1599672E+01  0.7818608E-02  0.3353720E+00
         11   -1    0    0    0    0  0.00000000000E+00  0.00000000000E+00  0.39999999674E+01  0.40000000000E+01  0.51100000000E-03 0.  1.
    9000002   -1    0    0    0    0 -0.00000000000E+00 -0.00000000000E+00  0.00000000000E+00  0.93800000000E+00  0.93800000000E+00 0.  1.
         11    1    1    2    0    0  0.24550993610E-01  0.24036399971E-01  0.24130961269E+00  0.24374390271E+00  0.51100000000E-03 0.  1.
    9000002    1    1    2    0    0 -0.38068442028E+00 -0.36038696310E+00  0.18891052268E+00  0.10910227205E+01  0.93800000000E+00 0.  1.
         22    1    1    2    0    0  0.35613342667E+00  0.33635056313E+00  0.35697798320E+01  0.36032333768E+01  0.00000000000E+00 0.  1.
</event>
<event>
 5    1  0.6776507E+001  0.1599677E+01  0.7818608E-02  0.3353714E+00
         11   -1    0    0    0    0  0.00000000000E+00  0.00000000000E+00  0.39999999674E+01  0.40000000000E+01  0.51100000000E-03 0.  1.
    9000002   -1    0    0    0    0 -0.00000000000E+00 -0.00000000000E+00  0.00000000000E+00  0.93800000000E+00  0.93800000000E+00 0. -1.
         11    1    1    2    0    0 -0.10631864849E+00 -0.43619343747E-02  0.10844919274E+01  0.10896998133E+01  0.51100000000E-03 0. -1.
    9000002    1    1    2    0    0  0.38359123861E+00  0.15537484711E-01  0.99212915731E-01  0.10183667583E+01  0.93800000000E+00 0. -1.
         22    1    1    2    0    0 -0.27727259011E+00 -0.11175550336E-01  0.28162951243E+01  0.28299334284E+01  0.00000000000E+00 0.  1.
</event>
<event>
 5    1  0.6776507E+001  0.1599648E+01  0.7818608E-02  0.3353746E+00
         11   -1    0    0    0    0  0.00000000000E+00  0.00000000000E+00  0.39999999674E+01  0.40000000000E+01  0.51100000000E-03 0. -1.
    9000002   -1    0    0    0    0 -0.00000000000E+00 -0.00000000000E+00  0.00000000000E+00  0.93800000000E+00  0.93800000000E+00 0.  1.
         11    1    1    2    0    0  0.90325804199E-01 -0.12568005726E+00  0.10770400265E+01  0.10881037209E+01  0.51100000000E-03 0. -1.
    9000002    1    1    2    0    0 -0.30083769125E+00  0.43460626800E+00  0.19223563388E+00  0.10937021823E+01  0.93800000000E+00 0.  1.
         22    1    1    2    0    0  0.21051188705E+00 -0.30892621074E+00  0.27307243070E+01  0.27561940968E+01  0.00000000000E+00 0.  1.
</event>
<event>
 5    1  0.6776507E+001  0.1586178E+01  0.7818608E-02  0.3368504E+00
         11   -1    0    0    0    0  0.00000000000E+00  0.00000000000E+00  0.39999999674E+01  0.40000000000E+01  0.51100000000E-03 0. -1.
    9000002   -1    0    0    0    0 -0.00000000000E+00 -0.00000000000E+00  0.00000000000E+00  0.93800000000E+00  0.93800000000E+00 0. -1.
         11    1    1    2    0    0  0.76203463437E-02  0.10328920641E+00  0.21561826986E+00  0.23920332200E+00  0.51100000000E-03 0. -1.
    9000002    1    1    2    0    0 -0.46556435799E+00 -0.61417514916E+00  0.45025447165E+00  0.12948105555E+01  0.93800000000E+00 0. -1.
         22    1    1    2    0    0  0.45794401164E+00  0.51088594275E+00  0.33341272259E+01  0.34039861225E+01  0.00000000000E+00 0. -1.
</event>
<event>
 5    1  0.6776507E+001  0.1598962E+01  0.7818608E-02  0.3354490E+00
         11   -1    0    0    0    0  0.00000000000E+00  0.00000000000E+00  0.39999999674E+01  0.40000000000E+01  0.51100000000E-03 0. -1.
    9000002   -1    0    0    0    0 -0.00000000000E+00 -0.00000000000E+00  0.00000000000E+00  0.93800000000E+00  0.93800000000E+00 0. -1.
         11    1    1    2    0    0 -0.10378011686E+00 -0.52073616122E-01  0.10735437499E+01  0.10798048056E+01  0.51100000000E-03 0. -1.
    9000002    1    1    2    0    0  0.30218612006E+00  0.26217437529E+00  0.10855396174E+00  0.10255144157E+01  0.93800000000E+00 0. -1.
         22    1    1    2    0    0 -0.19840600320E+00 -0.21010075917E+00  0.28179022557E+01  0.28326807787E+01  0.00000000000E+00 0. -1.
</event>
<event>
 5    1  0.6776507E+001  0.1599609E+01  0.7818608E-02  0.3353788E+00
         11   -1    0    0    0    0  0.00000000000E+00  0.00000000000E+00  0.39999999674E+01  0.40000000000E+01  0.51100000000E-03 0.  1.
    9000002   -1    0    0    0    0 -0.00000000000E+00 -0.00000000000E+00  0.00000000000E+00  0.93800000000E+00  0.93800000000E+00 0. -1.
         11    1    1    2    0    0 -0.12411745005E+00  0.13041479391E-01  0.83980466827E+00  0.84902730437E+00  0.51100000000E-03 0.  1.
    9000002    1    1    2    0    0  0.56519165341E+00 -0.22276833531E-01  0.22171548514E+00  0.11175596712E+01  0.93800000000E+00 0. -1.
         22    1    1    2    0    0 -0.44107420336E+00  0.92353541401E-02  0.29384798140E+01  0.29714130244E+01  0.00000000000E+00 0.  1.
</event>
<event>
 5    1  0.6776507E+001  0.1599118E+01  0.7818608E-02  0.3354322E+00
         11   -1    0    0    0    0  0.00000000000E+00  0.00000000000E+00  0.39999999674E+01  0.40000000000E+01  0.51100000000E-03 0.  1.
    9000002   -1    0    0    0    0 -0.00000000000E+00 -0.00000000000E+00  0.00000000000E+00  0.93800000000E+00  0.93800000000E+00 0. -1.
         11    1    1    2    0    0 -0.24439288133E-01 -0.68361073156E-02  0.39606006325E+00  0.39687258156E+00  0.51100000000E-03 0.  1.
    9000002    1    1    2    0    0  0.40499986615E+00  0.10344817771E+00  0.11860795122E+00  0.10337496134E+01  0.93800000000E+00 0. -1.
         22    1    1    2    0    0 -0.38056057802E+00 -0.96612070395E-01  0.34853319529E+01  0.35073778051E+01  0.00000000000E+00 0.  1.
</event>
<event>
 5    1  0.6776507E+001  0.1599648E+01  0.7818608E-02  0.3353745E+00
         11   -1    0    0    0    0  0.00000000000E+00  0.00000000000E+00  0.39999999674E+01  0.40000000000E+01  0.51100000000E-03 0.  1.
    9000002   -1    0    0    0    0 -0.00000000000E+00 -0.00000000000E+00  0.00000000000E+00  0.93800000000E+00  0.93800000000E+00 0. -1.
         11    1    1    2    0    0 -0.61403484687E-01  0.11857149789E+00  0.11345233312E+01  0.11423541650E+01  0.51100000000E-03 0.  1.
    9000002    1    1    2    0    0  0.20698997261E+00 -0.42224258697E+00  0.15067701401E+00  0.10600383076E+01  0.93800000000E+00 0. -1.
         22    1    1    2    0    0 -0.14558648792E+00  0.30367108908E+00  0.27147996221E+01  0.27356075274E+01  0.00000000000E+00 0. -1.
</event>
<event>
 5    1  0.6776507E+001  0.1599676E+01  0.7818608E-02  0.3353715E+00
         11   -1    0    0    0    0  0.00000000000E+00  0.00000000000E+00  0.39999999674E+01  0.40000000000E+01  0.51100000000E-03 0.  1.
    9000002   -1    0    0    0    0 -0.00000000000E+00 -0.00000000000E+00  0.00000000000E+00  0.93800000000E+00  0.93800000000E+00 0.  1.
         11    1    1    2    0    0 -0.47644663486E-02 -0.22230696961E+00  0.72584112176E+00  0.75913680193E+00  0.51100000000E-03 0.  1.
    9000002    1    1    2    0    0  0.19742552505E-01  0.98934597314E+00  0.78311542946E+00  0.15723577833E+01  0.93800000000E+00 0.  1.
         22    1    1    2    0    0 -0.14978086157E-01 -0.76703900353E+00  0.24910434161E+01  0.26065054147E+01  0.00000000000E+00 0.  1.
</event>
<event>
 5    1  0.6776507E+001  0.1599676E+01  0.7818608E-02  0.3353715E+00
         11   -1    0    0    0    0  0.00000000000E+00  0.00000000000E+00  0.39999999674E+01  0.40000000000E+01  0.51100000000E-03 0.  1.
    9000002   -1    0    0    0    0 -0.00000000000E+00 -0.00000000000E+00  0.00000000000E+00  0.93800000000E+00  0.93800000000E+00 0.  1.
         11    1    1    2    0    0 -0.63680440725E-02  0.58096563536E-01  0.55154648001E+00  0.55463460351E+00  0.51100000000E-03 0. -1.
    9000002    1    1    2    0    0  0.46447508402E-01 -0.40347478865E+00  0.11135119017E+00  0.10281986013E+01  0.93800000000E+00 0.  1.
         22    1    1    2    0    0 -0.40079464329E-01  0.34537822512E+00  0.33371022972E+01  0.33551667952E+01  0.00000000000E+00 0.  1.
</event>
<event>
 5    1  0.6776507E+001  0.1596362E+01  0.7818608E-02  0.3357322E+00
         11   -1    0    0    0    0  0.00000000000E+00  0.00000000000E+00  0.39999999674E+01  0.40000000000E+01  0.51100000000E-03 0.  1.
    9000002   -1    0    0    0    0 -0.00000000000E+00 -0.00000000000E+00  0.00000000000E+00  0.93800000000E+00  0.93800000000E+00 0.  1.
         11    1    1    2    0    0 -0.25388388837E-01  0.18097354642E-02  0.16998646240E+00  0.17188223861E+00  0.51100000000E-03 0.  1.
    9000002    1    1    2    0    0  0.21563087491E-01 -0.36836297638E+00  0.94197825957E-01  0.10123603506E+01  0.93800000000E+00 0.  1.
         22    1    1    2    0    0  0.38253013465E-02  0.36655324091E+00  0.37358156790E+01  0.37537574108E+01  0.00000000000E+00 0.  1.
</event>
<event>
 5    1  0.6776507E+001  0.1599677E+01  0.7818608E-02  0.3353714E+00
         11   -1    0    0    0    0  0.00000000000E+00  0.00000000000E+00  0.39999999674E+01  0.40000000000E+01  0.51100000000E-03 0.  1.
    9000002   -1    0    0    0    0 -0.00000000000E+00 -0.00000000000E+00  0.00000000000E+00  0.93800000000E+00  0.93800000000E+00 0.  1.
         11    1    1    2    0    0 -0.11891875891E+00 -0.37785330488E-01  0.12895070237E+01  0.12955300181E+01  0.51100000000E-03 0.  1.
    9000002    1    1    2    0    0  0.35969813711E+00  0.11246299671E+00  0.95528210410E-01  0.10153818565E+01  0.93800000000E+00 0.  1.
         22    1    1    2    0    0 -0.24077937819E+00 -0.74677666220E-01  0.26149647333E+01  0.26270881255E+01  0.00000000000E+00 0.  1.
</event>
<event>
 5    1  0.6776507E+001  0.1599674E+01  0.7818608E-02  0.3353717E+00
         11   -1    0    0    0    0  0.00000000000E+00  0.00000000000E+00  0.39999999674E+01  0.40000000000E+01  0.51100000000E-03 0. -1.
    9000002   -1    0    0    0    0 -0.00000000000E+00 -0.00000000000E+00  0.00000000000E+00  0.93800000000E+00  0.93800000000E+00 0.  1.
         11    1    1    2    0    0 -0.14130857267E+00 -0.29711922918E-01  0.14317445884E+01  0.14390079008E+01  0.51100000000E-03 0. -1.
    9000002    1    1    2    0    0  0.38855227244E+00  0.77895754739E-01  0.10587896876E+00  0.10237650966E+01  0.93800000000E+00 0.  1.
         22    1    1    2    0    0 -0.24724369977E+00 -0.48183831820E-01  0.24623764102E+01  0.24752270026E+01  0.00000000000E+00 0.  1.
</event>
<event>
 5    1  0.6776507E+001  0.1599372E+01  0.7818608E-02  0.3354045E+00
         11   -1    0    0    0    0  0.00000000000E+00  0.00000000000E+00  0.39999999674E+01  0.40000000000E+01  0.51100000000E-03 0.  1.
    9000002   -1    0    0    0    0 -0.00000000000E+00 -0.00000000000E+00  0.00000000000E+00  0.93800000000E+00  0.93800000000E+00 0. -1.
         11    1    1    2    0    0  0.15773770336E+00 -0.16699638167E+00  0.11168694418E+01  0.11402484754E+01  0.51100000000E-03 0.  1.
    9000002    1    1    2    0    0 -0.45667247233E+00  0.52263814575E+00  0.34405104654E+00  0.12165177767E+01  0.93800000000E+00 0. -1.
         22    1    1    2    0    0  0.29893476897E+00 -0.35564176408E+00  0.25390794790E+01  0.25812337479E+01  0.00000000000E+00 0.  1.
</event>
<event>
 5    1  0.6776507E+001  0.1599668E+01  0.7818608E-02  0.3353723E+00
         11   -1    0    0    0    0  0.00000000000E+00  0.00000000000E+00  0.39999999674E+01  0.40000000000E+01  0.51100000000E-03 0.  1.
    9000002   -1    0    0    0    0 -0.00000000000E+00 -0.00000000000E+00  0.00000000000E+00  0.93800000000E+00  0.93800000000E+00 0.  1.
         11    1    1    2    0    0 -0.49188668583E-01  0.89667275035E-01  0.69361327697E+00  0.70111296125E+00  0.51100000000E-03 0.  1.
    9000002    1    1    2    0    0  0.27659122265E+00 -0.49987693529E+00  0.22637615118E+00  0.11213696165E+01  0.93800000000E+00 0.  1.
         22    1    1    2    0    0 -0.22740255407E+00  0.41020966025E+00  0.30800105392E+01  0.31155174223E+01  0.00000000000E+00 0.  1.
</event>
<event>
 5    1  0.6776507E+001  0.1599126E+01  0.7818608E-02  0.3354313E+00
         11   -1    0    0    0    0  0.00000000000E+00  0.00000000000E+00  0.39999999674E+01  0.40000000000E+01  0.51100000000E-03 0.  1.
    9000002   -1    0    0    0    0 -0.00000000000E+00 -0.00000000000E+00  0.00000000000E+00  0.93800000000E+00  0.93800000000E+00 0.  1.
         11    1    1    2    0    0  0.39244420247E-01 -0.11762451731E-01  0.55719999467E+00  0.55870437172E+00  0.51100000000E-03 0.  1.
    9000002    1    1    2    0    0 -0.30941890145E+00  0.21675379539E+00  0.96455725641E-01  0.10158100075E+01  0.93800000000E+00 0.  1.
         22    1    1    2    0    0  0.27017448121E+00 -0.20499134365E+00  0.33463442470E+01  0.33634856208E+01  0.00000000000E+00 0.  1.
</event>
<event>
 5    1  0.6776507E+001  0.1472643E+01  0.7818608E-02  0.3504361E+00
         11   -1    0    0    0    0  0.00000000000E+00  0.00000000000E+00  0.39999999674E+01  0.40000000000E+01  0.51100000000E-03 0.  1.
    9000002   -1    0    0    0    0 -0.00000000000E+00 -0.00000000000E+00  0.00000000000E+00  0.93800000000E+00  0.93800000000E+00 0. -1.
         11    1    1    2    0    0 -0.15415265596E+00  0.19235849148E+00  0.86795405914E-01  0.26133988251E+00  0.51100000000E-03 0.  1.
    9000002    1    1    2    0    0  0.34086467469E+00 -0.52199412227E+00  0.48280088401E+00  0.12254008665E+01  0.93800000000E+00 0. -1.
         22    1    1    2    0    0 -0.18671201873E+00  0.32963563080E+00  0.34304036774E+01  0.34512592509E+01  0.00000000000E+00 0.  1.
</event>
<event>
 5    1  0.6776507E+001  0.1550363E+01  0.7818608E-02  0.3409065E+00
         11   -1    0    0    0    0  0.00000000000E+00  0.00000000000E+00  0.39999999674E+01  0.40000000000E+01  0.51100000000E-03 0.  1.
    9000002   -1    0    0    0    0 -0.00000000000E+00 -0.00000000000E+00  0.00000000000E+00  0.93800000000E+00  0.93800000000E+00 0. -1.
         11    1    1    2    0    0  0.65312361987E-01  0.11237704314E+00  0.44455110878E+00  0.46316331233E+00  0.51100000000E-03 0.  1.
    9000002    1    1    2    0    0  0.11307643512E+00  0.34360375613E+00  0.12899367183E+00  0.10135744614E+01  0.93800000000E+00 0. -1.
         22    1    1    2    0    0 -0.17838879711E+00 -0.45598079927E+00  0.34264551868E+01  0.34612622263E+01  0.00000000000E+00 0.  1.
</event>
<event>
 5    1  0.6776507E+001  0.1599662E+01  0.7818608E-02  0.3353731E+00
         11   -1    0    0    0    0  0.00000000000E+00  0.00000000000E+00  0.39999999674E+01  0.40000000000E+01  0.51100000000E-03 0.  1.
    9000002   -1    0    0    0    0 -0.00000000000E+00 -0.00000000000E+00  0.00000000000E+00  0.93800000000E+00  0.93800000000E+00 0. -1.
         11    1    1    2    0    0  0.42150295025E-02 -0.11060443785E+00  0.97000892407E+00  0.97630358088E+00  0.51100000000E-03 0.  1.
    9000002    1    1    2    0    0 -0.32594367925E-01  0.43748264362E+00  0.13050992779E+00  0.10437098723E+01  0.93800000000E+00 0. -1.
         22    1    1    2    0    0  0.28379338422E-01 -0.32687820577E+00  0.28994811155E+01  0.29179865468E+01  0.00000000000E+00 0.  1.
</event>
<event>
 5    1  0.6776507E+001  0.1599674E+01  0.7818608E-02  0.3353717E+00
         11   -1    0    0    0    0  0.00000000000E+00  0.00000000000E+00  0.39999999674E+01  0.40000000000E+01  0.51100000000E-03 0.  1.
    9000002   -1    0    0    0    0 -0.00000000000E+00 -0.00000000000E+00  0.00000000000E+00  0.93800000000E+00  0.93800000000E+00 0.  1.
         11    1    1    2    0    0  0.12621221310E+00  0.16048673971E+00  0.13244710799E+01  0.13401154499E+01  0.51100000000E-03 0.  1.
    9000002    1    1    2    0    0 -0.36243959772E+00 -0.46009598773E+00  0.23863118516E+00  0.11312999701E+01  0.93800000000E+00 0.  1.
         22    1    1    2    0    0  0.23622738462E+00  0.29960924803E+00  0.24368977023E+01  0.24665845799E+01  0.00000000000E+00 0.  1.
</event>
<event>
 5    1  0.6776507E+001  0.1562378E+01  0.7818608E-02  0.3395237E+00
         11   -1    0    0    0    0  0.00000000000E+00  0.00000000000E+00  0.39999999674E+01  0.40000000000E+01  0.51100000000E-03 0. -1.
    9000002   -1    0    0    0    0 -0.00000000000E+00 -0.00000000000E+00  0.00000000000E+00  0.93800000000E+00  0.93800000000E+00 0. -1.
         11    1    1    2    0    0  0.12650216050E+00  0.83310866565E-01  0.12509213008E+01  0.12600586728E+01  0.51100000000E-03 0. -1.
    9000002    1    1    2    0    0  0.28072104823E+00 -0.28213792596E+00  0.13849242531E+00  0.10283142847E+01  0.93800000000E+00 0. -1.
         22    1    1    2    0    0 -0.40722320872E+00  0.19882705940E+00  0.26105862413E+01  0.26496270425E+01  0.00000000000E+00 0. -1.
</event>
<event>
 5    1  0.6776507E+001  0.1599675E+01  0.7818608E-02  0.3353716E+00
         11   -1    0    0    0    0  0.00000000000E+00  0.00000000000E+00  0.39999999674E+01  0.40000000000E+01  0.51100000000E-03 0. -1.
    9000002   -1    0    0    0    0 -0.00000000000E+00 -0.00000000000E+00  0.00000000000E+00  0.93800000000E+00  0.93800000000E+00 0. -1.
         11    1    1    2    0    0  0.95377613044E-01  0.90577143884E-01  0.14002563513E+01  0.14064207118E+01  0.51100000000E-03 0. -1.
    9000002    1    1    2    0    0 -0.26241210670E+00 -0.25077546056E+00  0.88469446447E-01  0.10096629578E+01  0.93800000000E+00 0. -1.
         22    1    1    2    0    0  0.16703449366E+00  0.16019831668E+00  0.25112741696E+01  0.25219163304E+01  0.00000000000E+00 0. -1.
</event>
<event>
 5    1  0.6776507E+001  0.1546426E+01  0.7818608E-02  0.3413645E+00
         11   -1    0    0    0    0  0.00000000000E+00  0.00000000000E+00  0.39999999674E+01  0.40000000000E+01  0.51100000000E-03 0. -1.
    9000002   -1    0    0    0    0 -0.00000000000E+00 -0.00000000000E+00  0.00000000000E+00  0.93800000000E+00  0.93800000000E+00 0.  1.
         11    1    1    2    0    0 -0.11250779621E+00  0.33334202150E-01  0.22191320838E+00  0.25102770049E+00  0.51100000000E-03 0. -1.
    9000002    1    1    2    0    0 -0.24963995565E+00  0.77246321597E-02  0.83296689339E-01  0.97424951417E+00  0.93800000000E+00 0.  1.
         22    1    1    2    0    0  0.36214775186E+00 -0.41058834310E-01  0.36947900696E+01  0.37127227853E+01  0.00000000000E+00 0. -1.
</event>
<event>
 5    1  0.6776507E+001  0.1599672E+01  0.7818608E-02  0.3353719E+00
         11   -1    0    0    0    0  0.00000000000E+00  0.00000000000E+00  0.39999999674E+01  0.40000000000E+01  0.51100000000E-03 0. -1.
    9000002   -1    0    0    0    0 -0.00000000000E+00 -0.00000000000E+00  0.00000000000E+00  0.93800000000E+00  0.93800000000E+00 0.  1.
         11    1    1    2    0    0  0.40963473197E-01  0.12075492014E+00  0.77078521566E+00  0.78126171459E+00  0.51100000000E-03 0. -1.
    9000002    1    1    2    0    0 -0.20849973494E+00 -0.58508420765E+00  0.27042259059E+00  0.11570514453E+01  0.93800000000E+00 0.  1.
         22    1    1    2    0    0  0.16753626174E+00  0.46432928752E+00  0.29587921611E+01  0.29996868401E+01  0.00000000000E+00 0. -1.
</event>
<event>
 5    1  0.6776507E+001  0.1593132E+01  0.7818608E-02  0.3360851E+00
         11   -1    0    0    0    0  0.00000000000E+00  0.00000000000E+00  0.39999999674E+01  0.40000000000E+01  0.51100000000E-03 0.  1.
    9000002   -1    0    0    0    0 -0.00000000000E+00 -0.00000000000E+00  0.00000000000E+00  0.93800000000E+00  0.93800000000E+00 0. -1.
         11    1    1    2    0    0 -0.77970617802E-01  0.79497587714E-01  0.85130892271E+00  0.85856067153E+00  0.51100000000E-03 0.  1.
    9000002    1    1    2    0    0  0.38292513444E+00  0.35472436159E-02  0.10410495480E+00  0.10184920634E+01  0.93800000000E+00 0. -1.
         22    1    1    2    0    0 -0.30495451664E+00 -0.83044831330E-01  0.30445860899E+01  0.30609472651E+01  0.00000000000E+00 0.  1.
</event>
<event>
 5    1  0.6776507E+001  0.1596079E+01  0.7818608E-02  0.3357630E+00
         11   -1    0    0    0    0  0.00000000000E+00  0.00000000000E+00  0.39999999674E+01  0.40000000000E+01  0.51100000000E-03 0. -1.
    9000002   -1    0    0    0    0 -0.00000000000E+00 -0.00000000000E+00  0.00000000000E+00  0.93800000000E+00  0.93800000000E+00 0.  1.
         11    1    1    2    0    0 -0.11579152842E+00  0.12010683700E-02  0.13508629514E+01  0.13558171319E+01  0.51100000000E-03 0. -1.
    9000002    1    1    2    0    0  0.52265142531E+00  0.25594142536E-02  0.19104992733E+00  0.10906489526E+01  0.93800000000E+00 0.  1.
         22    1    1    2    0    0 -0.40685989689E+00 -0.37604826235E-02  0.24580870887E+01  0.24915339156E+01  0.00000000000E+00 0.  1.
</event>
<event>
 5    1  0.6776507E+001  0.1599677E+01  0.7818608E-02  0.3353714E+00
         11   -1    0    0    0    0  0.00000000000E+00  0.00000000000E+00  0.39999999674E+01  0.40000000000E+01  0.51100000000E-03 0.  1.
    9000002   -1    0    0    0    0 -0.00000000000E+00 -0.00000000000E+00  0.00000000000E+00  0.93800000000E+00  0.93800000000E+00 0. -1.
         11    1    1    2    0    0  0.73424139062E-01 -0.91050377415E-01  0.96771710074E+00  0.97476044422E+00  0.51100000000E-03 0.  1.
    9000002    1    1    2    0    0 -0.29182680308E+00  0.36443086937E+00  0.14842122087E+00  0.10582275749E+01  0.93800000000E+00 0. -1.
         22    1    1    2    0    0  0.21840266402E+00 -0.27338049196E+00  0.28838616457E+01  0.29050119808E+01  0.00000000000E+00 0.  1.
</event>
<event>
 5    1  0.6776507E+001  0.1574739E+01  0.7818608E-02  0.3381245E+00
         11   -1    0    0    0    0  0.00000000000E+00  0.00000000000E+00  0.39999999674E+01  0.40000000000E+01  0.51100000000E-03 0. -1.
    9000002   -1    0    0    0    0 -0.00000000000E+00 -0.00000000000E+00  0.00000000000E+00  0.93800000000E+00  0.93800000000E+00 0.  1.
         11    1    1    2    0    0 -0.21876041709E+00 -0.85680157554E-01  0.11058303819E+01  0.11305124078E+01  0.51100000000E-03 0. -1.
    9000002    1    1    2    0    0  0.35334523018E+00  0.71675308714E+00  0.50328996612E+00  0.13310644724E+01  0.93800000000E+00 0.  1.
         22    1    1    2    0    0 -0.13458481309E+00 -0.63107292958E+00  0.23908796193E+01  0.24764231198E+01  0.00000000000E+00 0. -1.
</event>
<event>
 5    1  0.6776507E+001  0.1575969E+01  0.7818608E-02  0.3379866E+00
         11   -1    0    0    0    0  0.00000000000E+00  0.00000000000E+00  0.39999999674E+01  0.40000000000E+01  0.51100000000E-03 0. -1.
    9000002   -1    0    0    0    0 -0.00000000000E+00 -0.00000000000E+00  0.00000000000E+00  0.93800000000E+00  0.93800000000E+00 0. -1.
         11    1    1    2    0    0 -0.10287184000E+00  0.12644896059E+00  0.14341592003E+01  0.14433935111E+01  0.51100000000E-03 0. -1.
    9000002    1    1    2    0    0  0.17819725098E+00  0.13109613562E+00  0.50567387616E-01  0.96506036999E+00  0.93800000000E+00 0. -1.
         22    1    1    2    0    0 -0.75325410976E-01 -0.25754509621E+00  0.25152733795E+01  0.25295461189E+01  0.00000000000E+00 0. -1.
</event>
<event>
 5    1  0.6776507E+001  0.1599133E+01  0.7818608E-02  0.3354305E+00
         11   -1    0    0    0    0  0.00000000000E+00  0.00000000000E+00  0.39999999674E+01  0.40000000000E+01  0.51100000000E-03 0. -1.
    9000002   -1    0    0    0    0 -0.00000000000E+00 -0.00000000000E+00  0.00000000000E+00  0.93800000000E+00  0.93800000000E+00 0.  1.
         11    1    1    2    0    0 -0.64835574255E-01 -0.23556253136E-01  0.95026274439E+00  0.95276339836E+00  0.51100000000E-03 0. -1.
    9000002    1    1    2    0    0  0.35048483968E+00  0.42919420924E-01  0.84068350421E-01  0.10057798900E+01  0.93800000000E+00 0.  1.
         22    1    1    2    0    0 -0.28564926542E+00 -0.19363167788E-01  0.29656688725E+01  0.29794567117E+01  0.00000000000E+00 0. -1.
</event>
<event>
 5    1  0.6776507E+001  0.1598237E+01  0.7818608E-02  0.3355279E+00
         11   -1    0    0    0    0  0.00000000000E+00  0.00000000000E+00  0.39999999674E+01  0.40000000000E+01  0.51100000000E-03 0.  1.
    9000002   -1    0    0    0    0 -0.00000000000E+00 -0.00000000000E+00  0.00000000000E+00  0.93800000000E+00  0.93800000000E+00 0.  1.
         11    1    1    2    0    0  0.39022977828E-01  0.47784354103E-02  0.15909792744E+00  0.16388422096E+00  0.51100000000E-03 0.  1.
    9000002    1    1    2    0    0 -0.49460357987E+00 -0.17668251169E+00  0.19098942797E+00  0.10918655470E+01  0.93800000000E+00 0.  1.
         22    1    1    2    0    0  0.45558060204E+00  0.17190407628E+00  0.36499126119E+01  0.36822502320E+01  0.00000000000E+00 0.  1.
</event>
<event>
 5    1  0.6776507E+001  0.1578056E+01  0.7818608E-02  0.3377530E+00
         11   -1    0    0    0    0  0.00000000000E+00  0.00000000000E+00  0.39999999674E+01  0.40000000000E+01  0.51100000000E-03 0. -1.
    9000002   -1    0    0    0    0 -0.00000000000E+00 -0.00000000000E+00  0.00000000000E+00  0.93800000000E+00  0.93800000000E+00 0.  1.
         11    1    1    2    0    0 -0.10352373959E+00  0.14680724934E-01  0.12938546767E+01  0.12980727537E+01  0.51100000000E-03 0. -1.
    9000002    1    1    2    0    0 -0.79299912871E-01  0.27199120635E+00  0.70439687404E-01  0.98238151554E+00  0.93800000000E+00 0.  1.
         22    1    1    2    0    0  0.18282365246E+00 -0.28667193128E+00  0.26357056033E+01  0.26575457308E+01  0.00000000000E+00 0. -1.
</event>
<event>
 5    1  0.6776507E+001  0.1599671E+01  0.7818608E-02  0.3353721E+00
         11   -1    0    0    0    0  0.00000000000E+00  0.00000000000E+00  0.39999999674E+01  0.40000000000E+01  0.51100000000E-03 0.  1.
    9000002   -1    0    0    0    0 -0.00000000000E+00 -0.00000000000E+00  0.00000000000E+00  0.93800000000E+00  0.93800000000E+00 0.  1.
         11    1    1    2    0    0  0.14997208031E-01  0.71339665888E-01  0.65380783313E+00  0.65785956553E+00  0.51100000000E-03 0.  1.
    9000002    1    1    2    0    0 -0.87705926533E-01 -0.41013227186E+00  0.11895825806E+00  0.10343577124E+01  0.93800000000E+00 0.  1.
         22    1    1    2    0    0  0.72708718501E-01  0.33879260597E+00  0.32272338762E+01  0.32457827221E+01  0.00000000000E+00 0.  1.
</event>
<event>
 5    1  0.6776507E+001  0.1599667E+01  0.7818608E-02  0.3353725E+00
         11   -1    0    0    0    0  0.00000000000E+00  0.00000000000E+00  0.39999999674E+01  0.40000000000E+01  0.51100000000E-03 0.  1.
    9000002   -1    0    0    0    0 -0.00000000000E+00 -0.00000000000E+00  0.00000000000E+00  0.93800000000E+00  0.93800000000E+00 0. -1.
         11    1    1    2    0    0 -0.13625968755E+00  0.14022438915E-01  0.11590608450E+01  0.11671270860E+01  0.51100000000E-03 0.  1.
    9000002    1    1    2    0    0  0.44332612084E+00 -0.42530782831E-01  0.13463142095E+00  0.10470513533E+01  0.93800000000E+00 0. -1.
         22    1    1    2    0    0 -0.30706643330E+00  0.28508343916E-01  0.27063077014E+01  0.27238215607E+01  0.00000000000E+00 0.  1.
</event>
<event>
 5    1  0.6776507E+001  0.1599676E+01  0.7818608E-02  0.3353715E+00
         11   -1    0    0    0    0  0.00000000000E+00  0.00000000000E+00  0.39999999674E+01  0.40000000000E+01  0.51100000000E-03 0. -1.
    9000002   -1    0    0    0    0 -0.00000000000E+00 -0.00000000000E+00  0.00000000000E+00  0.93800000000E+00  0.93800000000E+00 0.  1.
         11    1    1    2    0    0  0.69950409870E-01 -0.32043193596E-01  0.65929308361E+00  0.66376762298E+00  0.51100000000E-03 0. -1.
    9000002    1    1    2    0    0 -0.41035117398E+00  0.18308404819E+00  0.13712012101E+00  0.10490728203E+01  0.93800000000E+00 0.  1.
         22    1    1    2    0    0  0.34040076411E+00 -0.15104085459E+00  0.32035867627E+01  0.32251595567E+01  0.00000000000E+00 0. -1.
</event>
<event>
 5    1  0.6776507E+001  0.1599677E+01  0.7818608E-02  0.3353714E+00
         11   -1    0    0    0    0  0.00000000000E+00  0.00000000000E+00  0.39999999674E+01  0.40000000000E+01  0.51100000000E-03 0.  1.
    9000002   -1    0    0    0    0 -0.00000000000E+00 -0.00000000000E+00  0.00000000000E+00  0.93800000000E+00  0.93800000000E+00 0. -1.
         11    1    1    2    0    0 -0.14414706870E-01 -0.11823512162E+00  0.12884159030E+01  0.12939100154E+01  0.51100000000E-03 0.  1.
    9000002    1    1    2    0    0  0.43089439025E-01  0.35754182138E+00  0.87059383615E-01  0.10085217846E+01  0.93800000000E+00 0. -1.
         22    1    1    2    0    0 -0.28674732155E-01 -0.23930669975E+00  0.26245246807E+01  0.26355682000E+01  0.00000000000E+00 0.  1.
</event>
<event>
 5    1  0.6776507E+001  0.1594229E+01  0.7818608E-02  0.3359651E+00
         11   -1    0    0    0    0  0.00000000000E+00  0.00000000000E+00  0.39999999674E+01  0.40000000000E+01  0.51100000000E-03 0. -1.
    9000002   -1    0    0    0    0 -0.00000000000E+00 -0.00000000000E+00  0.00000000000E+00  0.93800000000E+00  0.93800000000E+00 0.  1.
         11    1    1    2    0    0 -0.22516056281E+00  0.63198729452E-01  0.11390438162E+01  0.11628036957E+01  0.51100000000E-03 0. -1.
    9000002    1    1    2    0    0  0.50952530983E+00 -0.35025327456E+00  0.27334025234E+00  0.11562232878E+01  0.93800000000E+00 0.  1.
         22    1    1    2    0    0 -0.28436474702E+00  0.28705454511E+00  0.25876158988E+01  0.26189730165E+01  0.00000000000E+00 0. -1.
</event>
<event>
 5    1  0.6776507E+001  0.1599677E+01  0.7818608E-02  0.3353714E+00
         11   -1    0    0    0    0  0.00000000000E+00  0.00000000000E+00  0.39999999674E+01  0.40000000000E+01  0.51100000000E-03 0. -1.
    9000002   -1    0    0    0    0 -0.00000000000E+00 -0.00000000000E+00  0.00000000000E+00  0.93800000000E+00  0.93800000000E+00 0. -1.
         11    1    1    2    0    0  0.43340338668E-01  0.12750369552E+00  0.13748975140E+01  0.13814771125E+01  0.51100000000E-03 0.  1.
    9000002    1    1    2    0    0 -0.12407047866E+00 -0.36141038852E+00  0.98267363366E-01  0.10176008192E+01  0.93800000000E+00 0. -1.
         22    1    1    2    0    0  0.80730139995E-01  0.23390669300E+00  0.25268350900E+01  0.25389220683E+01  0.00000000000E+00 0. -1.
</event>
<event>
 5    1  0.6776507E+001  0.1482522E+01  0.7818608E-02  0.3491650E+00
         11   -1    0    0    0    0  0.00000000000E+00  0.00000000000E+00  0.39999999674E+01  0.40000000000E+01  0.51100000000E-03 0.  1.
    9000002   -1    0    0    0    0 -0.00000000000E+00 -0.00000000000E+00  0.00000000000E+00  0.93800000000E+00  0.93800000000E+00 0.  1.
         11    1    1    2    0    0 -0.13012566466E+00  0.96009255707E-01  0.13682444939E+00  0.21182931067E+00  0.51100000000E-03 0.  1.
    9000002    1    1    2    0    0 -0.12620853625E+00  0.12700448764E+00  0.11409757091E+00  0.96172812696E+00  0.93800000000E+00 0.  1.
         22    1    1    2    0    0  0.25633420091E+00 -0.22301374335E+00  0.37490779471E+01  0.37644425624E+01  0.00000000000E+00 0.  1.
</event>
<event>
 5    1  0.6776507E+001  0.1599622E+01  0.7818608E-02  0.3353774E+00
         11   -1    0    0    0    0  0.00000000000E+00  0.00000000000E+00  0.39999999674E+01  0.40000000000E+01  0.51100000000E-03 0.  1.
    9000002   -1    0    0    0    0 -0.00000000000E+00 -0.00000000000E+00  0.00000000000E+00  0.93800000000E+00  0.93800000000E+00 0. -1.
         11    1    1    2    0    0  0.35041370518E-01  0.15337488679E+00  0.11565105504E+01  0.11671626570E+01  0.51100000000E-03 0.  1.
    9000002    1    1    2    0    0 -0.14007140414E+00 -0.51529884253E+00  0.19642041926E+00  0.10970769693E+01  0.93800000000E+00 0. -1.
         22    1    1    2    0    0  0.10503003363E+00  0.36192395574E+00  0.26470689977E+01  0.26737603737E+01  0.00000000000E+00 0.  1.
</event>
<event>
 5    1  0.6776507E+001  0.1599408E+01  0.7818608E-02  0.3354006E+00
         11   -1    0    0    0    0  0.00000000000E+00  0.00000000000E+00  0.39999999674E+01  0.40000000000E+01  0.51100000000E-03 0. -1.
    9000002   -1    0    0    0    0 -0.00000000000E+00 -0.00000000000E+00  0.00000000000E+00  0.93800000000E+00  0.93800000000E+00 0.  1.
         11    1    1    2    0    0  0.87912208935E-01  0.69897841364E-01  0.11444781033E+01  0.11499759366E+01  0.51100000000E-03 0. -1.
    9000002    1    1    2    0    0 -0.32895295796E+00 -0.18450023313E+00  0.95899317036E-01  0.10155250187E+01  0.93800000000E+00 0.  1.
         22    1    1    2    0    0  0.24104074902E+00  0.11460239176E+00  0.27596225471E+01  0.27724990447E+01  0.00000000000E+00 0. -1.
</event>
<event>
 5    1  0.6776507E+001  0.1591034E+01  0.7818608E-02  0.3363153E+00
         11   -1    0    0    0    0  0.00000000000E+00  0.00000000000E+00  0.39999999674E+01  0.40000000000E+01  0.51100000000E-03 0.  1.
    9000002   -1    0    0    0    0 -0.00000000000E+00 -0.00000000000E+00  0.00000000000E+00  0.93800000000E+00  0.93800000000E+00 0. -1.
         11    1    1    2    0    0  0.10417209845E+00  0.11461541605E+00  0.13584729412E+01  0.13672737519E+01  0.51100000000E-03 0.  1.
    9000002    1    1    2    0    0  0.56394220887E-02 -0.35674101786E+00  0.92439743449E-01  0.10078120177E+01  0.93800000000E+00 0. -1.
         22    1    1    2    0    0 -0.10981152054E+00  0.24212560181E+00  0.25490872827E+01  0.25629142304E+01  0.00000000000E+00 0.  1.
</event>
<event>
 5    1  0.6776507E+001  0.1599677E+01  0.7818608E-02  0.3353714E+00
         11   -1    0    0    0    0  0.00000000000E+00  0.00000000000E+00  0.39999999674E+01  0.40000000000E+01  0.51100000000E-03 0. -1.
    9000002   -1    0    0    0    0 -0.00000000000E+00 -0.00000000000E+00  0.00000000000E+00  0.93800000000E+00  0.93800000000E+00 0. -1.
         11    1    1    2    0    0  0.64728357380E-01 -0.23898727734E-01  0.74892200185E+00  0.75209396714E+00  0.51100000000E-03 0. -1.
    9000002    1    1    2    0    0 -0.33791079692E+00  0.12333071872E+00  0.86854753511E-01  0.10083560488E+01  0.93800000000E+00 0. -1.
         22    1    1    2    0    0  0.27318243954E+00 -0.99431990984E-01  0.31642232120E+01  0.31775499841E+01  0.00000000000E+00 0. -1.
</event>
<event>
 5    1  0.6776507E+001  0.1599230E+01  0.7818608E-02  0.3354199E+00
         11   -1    0    0    0    0  0.00000000000E+00  0.00000000000E+00  0.39999999674E+01  0.40000000000E+01  0.51100000000E-03 0. -1.
    9000002   -1    0    0    0    0 -0.00000000000E+00 -0.00000000000E+00  0.00000000000E+00  0.93800000000E+00  0.93800000000E+00 0. -1.
         11    1    1    2    0    0  0.21894150997E-01  0.33702297900E-01  0.32133905649E+00  0.32384293891E+00  0.51100000000E-03 0. -1.
    9000002    1    1    2    0    0 -0.30087908666E+00 -0.24263949806E+00  0.10097228648E+00  0.10195300650E+01  0.93800000000E+00 0. -1.
         22    1    1    2    0    0  0.27898493566E+00  0.20893720016E+00  0.35776886244E+01  0.35946269961E+01  0.00000000000E+00 0. -1.
</event>
<event>
 5    1  0.6776507E+001  0.1567740E+01  0.7818608E-02  0.3389139E+00
         11   -1    0    0    0    0  0.00000000000E+00  0.00000000000E+00  0.39999999674E+01  0.40000000000E+01  0.51100000000E-03 0. -1.
    9000002   -1    0    0    0    0 -0.00000000000E+00 -0.00000000000E+00  0.00000000000E+00  0.93800000000E+00  0.93800000000E+00 0. -1.
         11    1    1    2    0    0 -0.50682181843E+00 -0.58806308391E-03  0.55733434274E+00  0.75331967463E+00  0.51100000000E-03 0. -1.
    9000002    1    1    2    0    0  0.20139589747E+00  0.84095962293E-01  0.27544538130E+00  0.10016719006E+01  0.93800000000E+00 0. -1.
         22    1    1    2    0    0  0.30542592096E+00 -0.83507899209E-01  0.31672202433E+01  0.31830084248E+01  0.00000000000E+00 0.  1.
</event>
<event>
 5    1  0.6776507E+001  0.1558673E+01  0.7818608E-02  0.3399477E+00
         11   -1    0    0    0    0  0.00000000000E+00  0.00000000000E+00  0.39999999674E+01  0.40000000000E+01  0.51100000000E-03 0. -1.
    9000002   -1    0    0    0    0 -0.00000000000E+00 -0.00000000000E+00  0.00000000000E+00  0.93800000000E+00  0.93800000000E+00 0. -1.
         11    1    1    2    0    0  0.18561161978E+00 -0.11501824320E+00  0.96231486750E+00  0.98677810829E+00  0.51100000000E-03 0. -1.
    9000002    1    1    2    0    0  0.97099295922E-01  0.57541666943E+00  0.27800012075E+00  0.11391491052E+01  0.93800000000E+00 0. -1.
         22    1    1    2    0    0 -0.28271091570E+00 -0.46039842623E+00  0.27596849791E+01  0.28120727865E+01  0.00000000000E+00 0. -1.
</event>
<event>
 5    1  0.6776507E+001  0.1596221E+01  0.7818608E-02  0.3357475E+00
         11   -1    0    0    0    0  0.00000000000E+00  0.00000000000E+00  0.39999999674E+01  0.40000000000E+01  0.51100000000E-03 0. -1.
    9000002   -1    0    0    0    0 -0.00000000000E+00 -0.00000000000E+00  0.00000000000E+00  0.93800000000E+00  0.93800000000E+00 0.  1.
         11    1    1    2    0    0 -0.11078174141E+00  0.11396448401E+00  0.62798753774E+00  0.64778785611E+00  0.51100000000E-03 0. -1.
    9000002    1    1    2    0    0  0.38122553546E+00 -0.50913944339E+00  0.28812102536E+00  0.11693646168E+01  0.93800000000E+00 0.  1.
         22    1    1    2    0    0 -0.27044379406E+00  0.39517495937E+00  0.30838914043E+01  0.31208475271E+01  0.00000000000E+00 0. -1.
</event>
<event>
 5    1  0.6776507E+001  0.1599492E+01  0.7818608E-02  0.3353915E+00
         11   -1    0    0    0    0  0.00000000000E+00  0.00000000000E+00  0.39999999674E+01  0.40000000000E+01  0.51100000000E-03 0. -1.
    9000002   -1    0    0    0    0 -0.00000000000E+00 -0.00000000000E+00  0.00000000000E+00  0.93800000000E+00  0.93800000000E+00 0.  1.
         11    1    1    2    0    0 -0.34627580945E-01 -0.50953847103E-02  0.29675668081E+00  0.29881402416E+00  0.51100000000E-03 0. -1.
    9000002    1    1    2    0    0  0.55462715262E+00  0.64903287024E-01  0.21590078908E+00  0.11127806908E+01  0.93800000000E+00 0.  1.
         22    1    1    2    0    0 -0.51999957167E+00 -0.59807902314E-01  0.34873424975E+01  0.35264052850E+01  0.00000000000E+00 0. -1.
</event>
<event>
 5    1  0.6776507E+001  0.1599676E+01  0.7818608E-02  0.3353715E+00
         11   -1    0    0    0    0  0.00000000000E+00  0.00000000000E+00  0.39999999674E+01  0.40000000000E+01  0.51100000000E-03 0.  1.
    9000002   -1    0    0    0    0 -0.00000000000E+00 -0.00000000000E+00  0.00000000000E+00  0.93800000000E+00  0.93800000000E+00 0. -1.
         11    1    1    2    0    0 -0.36492786752E-02  0.26812693297E-01  0.26312009058E+00  0.26450837595E+00  0.51100000000E-03 0. -1.
    9000002    1    1    2    0    0  0.54339425064E-01 -0.40232572832E+00  0.11126047981E+00  0.10281253130E+01  0.93800000000E+00 0. -1.
         22    1    1    2    0    0 -0.50690146389E-01  0.37551303502E+00  0.36256193970E+01  0.36453663111E+01  0.00000000000E+00 0.  1.
</event>
<event>
 5    1  0.6776507E+001  0.1599662E+01  0.7818608E-02  0.3353731E+00
         11   -1    0    0    0    0  0.00000000000E+00  0.00000000000E+00  0.39999999674E+01  0.40000000000E+01  0.51100000000E-03 0.  1.
    9000002   -1    0    0    0    0 -0.00000000000E+00 -0.00000000000E+00  0.00000000000E+00  0.93800000000E+00  0.93800000000E+00 0. -1.
         11    1    1    2    0    0  0.28309839072E-01  0.46664158888E-02  0.22848617645E+00  0.23028116809E+00  0.51100000000E-03 0.  1.
    9000002    1    1    2    0    0 -0.44198622914E+00 -0.73101056922E-01  0.13628230969E+00  0.10483856443E+01  0.93800000000E+00 0. -1.
         22    1    1    2    0    0  0.41367639007E+00  0.68434641033E-01  0.36352314812E+01  0.36593331876E+01  0.00000000000E+00 0.  1.
</event>
<event>
 5    1  0.6776507E+001  0.1582307E+01  0.7818608E-02  0.3372793E+00
         11   -1    0    0    0    0  0.00000000000E+00  0.00000000000E+00  0.39999999674E+01  0.40000000000E+01  0.51100000000E-03 0.  1.
    9000002   -1    0    0    0    0 -0.00000000000E+00 -0.00000000000E+00  0.00000000000E+00  0.93800000000E+00  0.93800000000E+00 0. -1.
         11    1    1    2    0    0 -0.75715003240E-01  0.40694763258E-01  0.34396854113E+00  0.35454681480E+00  0.51100000000E-03 0.  1.
    9000002    1    1    2    0    0  0.15443344945E+00  0.28001982156E+00  0.82220138132E-01  0.99441688536E+00  0.93800000000E+00 0. -1.
         22    1    1    2    0    0 -0.78718446209E-01 -0.32071458481E+00  0.35738112881E+01  0.35890362998E+01  0.00000000000E+00 0.  1.
</event>
<event>
 5    1  0.6776507E+001  0.1599633E+01  0.7818608E-02  0.3353762E+00
         11   -1    0    0    0    0  0.00000000000E+00  0.00000000000E+00  0.39999999674E+01  0.40000000000E+01  0.51100000000E-03 0.  1.
    9000002   -1    0    0    0    0 -0.00000000000E+00 -0.00000000000E+00  0.00000000000E+00  0.93800000000E+00  0.93800000000E+00 0.  1.
         11    1    1    2    0    0  0.48692658216E-01  0.40042232428E-01  0.71495181783E+00  0.71772607468E+00  0.51100000000E-03 0.  1.
    9000002    1    1    2    0    0 -0.26767815247E+00 -0.25275907192E+00  0.91103663518E-01  0.10117720194E+01  0.93800000000E+00 0.  1.
         22    1    1    2    0    0  0.21898549425E+00  0.21271683949E+00  0.31939444860E+01  0.32085019059E+01  0.00000000000E+00 0.  1.
</event>
<event>
 5    1  0.6776507E+001  0.1598402E+01  0.7818608E-02  0.3355100E+00
         11   -1    0    0    0    0  0.00000000000E+00  0.00000000000E+00  0.39999999674E+01  0.40000000000E+01  0.51100000000E-03 0. -1.
    9000002   -1    0    0    0    0 -0.00000000000E+00 -0.00000000000E+00  0.00000000000E+00  0.93800000000E+00  0.93800000000E+00 0. -1.
         11    1    1    2    0    0 -0.16223918571E+00  0.85432086339E-01  0.11911163548E+01  0.12051467241E+01  0.51100000000E-03 0. -1.
    9000002    1    1    2    0    0  0.39597143009E+00 -0.30152027081E+00  0.17065188649E+00  0.10754877561E+01  0.93800000000E+00 0. -1.
         22    1    1    2    0    0 -0.23373224438E+00  0.21608818447E+00  0.26382317260E+01  0.26573655198E+01  0.00000000000E+00 0. -1.
</event>
<event>
 5    1  0.6776507E+001  0.1572372E+01  0.7818608E-02  0.3383906E+00
         11   -1    0    0    0    0  0.00000000000E+00  0.00000000000E+00  0.39999999674E+01  0.40000000000E+01  0.51100000000E-03 0.  1.
    9000002   -1    0    0    0    0 -0.00000000000E+00 -0.00000000000E+00  0.00000000000E+00  0.93800000000E+00  0.93800000000E+00 0. -1.
         11    1    1    2    0    0 -0.93993270832E-01 -0.16026443441E+00  0.13685647106E+01  0.13811187683E+01  0.51100000000E-03 0.  1.
    9000002    1    1    2    0    0  0.32454414353E+00 -0.81117692177E-01  0.97023905011E-01  0.10005831396E+01  0.93800000000E+00 0. -1.
         22    1    1    2    0    0 -0.23055087269E+00  0.24138212658E+00  0.25344113517E+01  0.25562980921E+01  0.00000000000E+00 0.  1.
</event>
<event>
 5    1  0.6776507E+001  0.1599615E+01  0.7818608E-02  0.3353782E+00
         11   -1    0    0    0    0  0.00000000000E+00  0.00000000000E+00  0.39999999674E+01  0.40000000000E+01  0.51100000000E-03 0. -1.
    9000002   -1    0    0    0    0 -0.00000000000E+00 -0.00000000000E+00  0.00000000000E+00  0.93800000000E+00  0.93800000000E+00 0.  1.
         11    1    1    2    0    0  0.86388252298E-01  0.10776815523E+00  0.13852489102E+01  0.13921177069E+01  0.51100000000E-03 0. -1.
    9000002    1    1    2    0    0 -0.21804643866E+00 -0.30209755041E+00  0.93362806862E-01  0.10135915317E+01  0.93800000000E+00 0.  1.
         22    1    1    2    0    0  0.13165818636E+00  0.19432939519E+00  0.25213882503E+01  0.25322907615E+01  0.00000000000E+00 0. -1.
</event>
<event>
 5    1  0.6776507E+001  0.1598972E+01  0.7818608E-02  0.3354479E+00
         11   -1    0    0    0    0  0.00000000000E+00  0.00000000000E+00  0.39999999674E+01  0.40000000000E+01  0.51100000000E-03 0. -1.
    9000002   -1    0    0    0    0 -0.00000000000E+00 -0.00000000000E+00  0.00000000000E+00  0.93800000000E+00  0.93800000000E+00 0.  1.
         11    1    1    2    0    0 -0.94868425032E-02 -0.45133145283E-02  0.45230805282E-01  0.46437668505E-01  0.51100000000E-03 0. -1.
    9000002    1    1    2    0    0  0.21984037660E+00  0.44486921557E+00  0.16909044353E+00  0.10745575779E+01  0.93800000000E+00 0.  1.
         22    1    1    2    0    0 -0.21035353410E+00 -0.44035590104E+00  0.37856787185E+01  0.38170047536E+01  0.00000000000E+00 0. -1.
</event>
<event>
 5    1  0.6776507E+001  0.1599673E+01  0.7818608E-02  0.3353718E+00
         11   -1    0    0    0    0  0.00000000000E+00  0.00000000000E+00  0.39999999674E+01  0.40000000000E+01  0.51100000000E-03 0. -1.
    9000002   -1    0    0    0    0 -0.00000000000E+00 -0.00000000000E+00  0.00000000000E+00  0.93800000000E+00  0.93800000000E+00 0.  1.
         11    1    1    2    0    0  0.90115275265E-03  0.45320985018E-02  0.44145042965E-01  0.44389164584E-01  0.51100000000E-03 0.  1.
    9000002    1    1    2    0    0 -0.74642750967E-01 -0.39781134593E+00  0.11057467873E+00  0.10275680838E+01  0.93800000000E+00 0.  1.
         22    1    1    2    0    0  0.73741598214E-01  0.39327924743E+00  0.38452802457E+01  0.38660427516E+01  0.00000000000E+00 0. -1.
</event>
<event>
 5    1  0.9150635E+001  0.1594716E+01  0.7818608E-02  0.3359119E+00
         11   -1    0    0    0    0  0.00000000000E+00  0.00000000000E+00  0.39999999674E+01  0.40000000000E+01  0.51100000000E-03 0.  1.
    9000002   -1    0    0    0    0 -0.00000000000E+00 -0.00000000000E+00  0.00000000000E+00  0.93800000000E+00  0.93800000000E+00 0.  1.
         11    1    1    2    0    0 -0.46783622082E-01  0.40233275324E-01  0.90537120980E+00  0.90747160418E+00  0.51100000000E-03 0.  1.
    9000002    1    1    2    0    0  0.27211392397E+00  0.12754873457E+00  0.64147242891E-01  0.98705295505E+00  0.93800000000E+00 0.  1.
         22    1    1    2    0    0 -0.22533030189E+00 -0.16778200990E+00  0.30304815147E+01  0.30434754408E+01  0.00000000000E+00 0.  1.
</event>
<event>
 5    1  0.6776507E+001  0.1599156E+01  0.7818608E-02  0.3354280E+00
         11   -1    0    0    0    0  0.00000000000E+00  0.00000000000E+00  0.39999999674E+01  0.40000000000E+01  0.51100000000E-03 0.  1.
    9000002   -1    0    0    0    0 -0.00000000000E+00 -0.00000000000E+00  0.00000000000E+00  0.93800000000E+00  0.93800000000E+00 0.  1.
         11    1    1    2    0    0 -0.92467724117E-01 -0.10387548476E+00  0.11447468304E+01  0.11531634590E+01  0.51100000000E-03 0.  1.
    9000002    1    1    2    0    0  0.23279492979E+00  0.32747303330E+00  0.10934823420E+00  0.10262714569E+01  0.93800000000E+00 0.  1.
         22    1    1    2    0    0 -0.14032720567E+00 -0.22359754855E+00  0.27459049027E+01  0.27585650841E+01  0.00000000000E+00 0.  1.
</event>
<event>
 5    1  0.6776507E+001  0.1599607E+01  0.7818608E-02  0.3353790E+00
         11   -1    0    0    0    0  0.00000000000E+00  0.00000000000E+00  0.39999999674E+01  0.40000000000E+01  0.51100000000E-03 0. -1.
    9000002   -1    0    0    0    0 -0.00000000000E+00 -0.00000000000E+00  0.00000000000E+00  0.93800000000E+00  0.93800000000E+00 0. -1.
         11    1    1    2    0    0  0.22911070943E-01 -0.49368635055E-01  0.48079409364E+00  0.48386506477E+00  0.51100000000E-03 0. -1.
    9000002    1    1    2    0    0 -0.14261748130E+00  0.36756232295E+00  0.10483016101E+00  0.10228759308E+01  0.93800000000E+00 0. -1.
         22    1    1    2    0    0  0.11970641036E+00 -0.31819368790E+00  0.34143757127E+01  0.34312590044E+01  0.00000000000E+00 0. -1.
</event>
<event>
 5    1  0.6776507E+001  0.1599675E+01  0.7818608E-02  0.3353716E+00
         11   -1    0    0    0    0  0.00000000000E+00  0.00000000000E+00  0.39999999674E+01  0.40000000000E+01  0.51100000000E-03 0. -1.
    9000002   -1    0    0    0    0 -0.00000000000E+00 -0.00000000000E+00  0.00000000000E+00  0.93800000000E+00  0.93800000000E+00 0.  1.
         11    1    1    2    0    0  0.83921101796E-01  0.11059513496E+00  0.12731003388E+01  0.12806477927E+01  0.51100000000E-03 0. -1.
    9000002    1    1    2    0    0 -0.25219814558E+00 -0.33976995467E+00  0.12114397909E+00  0.10361309716E+01  0.93800000000E+00 0.  1.
         22    1    1    2    0    0  0.16827704378E+00  0.22917481971E+00  0.26057556494E+01  0.26212212356E+01  0.00000000000E+00 0. -1.
</event>
<event>
 5    1  0.6776507E+001  0.1599676E+01  0.7818608E-02  0.3353715E+00
         11   -1    0    0    0    0  0.00000000000E+00  0.00000000000E+00  0.39999999674E+01  0.40000000000E+01  0.51100000000E-03 0.  1.
    9000002   -1    0    0    0    0 -0.00000000000E+00 -0.00000000000E+00  0.00000000000E+00  0.93800000000E+00  0.93800000000E+00 0. -1.
         11    1    1    2    0    0 -0.16829860901E+00  0.76508877770E-01  0.13635731446E+01  0.13760486954E+01  0.51100000000E-03 0.  1.
    9000002    1    1    2    0    0  0.46872943880E+00 -0.21318239408E+00  0.18197764965E+00  0.10854095471E+01  0.93800000000E+00 0. -1.
         22    1    1    2    0    0 -0.30043082980E+00  0.13667351631E+00  0.24544491731E+01  0.24765417576E+01  0.00000000000E+00 0.  1.
</event>
<event>
 5    1  0.6776507E+001  0.1598972E+01  0.7818608E-02  0.3354480E+00
         11   -1    0    0    0    0  0.00000000000E+00  0.00000000000E+00  0.39999999674E+01  0.40000000000E+01  0.51100000000E-03 0. -1.
    9000002   -1    0    0    0    0 -0.00000000000E+00 -0.00000000000E+00  0.00000000000E+00  0.93800000000E+00  0.93800000000E+00 0.  1.
         11    1    1    2    0    0  0.18511058489E+00  0.11057623779E-01  0.14802841634E+01  0.14918544384E+01  0.51100000000E-03 0. -1.
    9000002    1    1    2    0    0 -0.55405235922E+00 -0.26010521051E-01  0.21335250774E+00  0.11104115708E+01  0.93800000000E+00 0.  1.
         22    1    1    2    0    0  0.36894177433E+00  0.14952897272E-01  0.23063632962E+01  0.23357339908E+01  0.00000000000E+00 0. -1.
</event>
<event>
 5    1  0.6776507E+001  0.1599608E+01  0.7818608E-02  0.3353789E+00
         11   -1    0    0    0    0  0.00000000000E+00  0.00000000000E+00  0.39999999674E+01  0.40000000000E+01  0.51100000000E-03 0.  1.
    9000002   -1    0    0    0    0 -0.00000000000E+00 -0.00000000000E+00  0.00000000000E+00  0.93800000000E+00  0.93800000000E+00 0.  1.
         11    1    1    2    0    0  0.74481851875E-01  0.45586217395E-02  0.70799972208E+00  0.71192148084E+00  0.51100000000E-03 0.  1.
    9000002    1    1    2    0    0 -0.40480142058E+00 -0.67170370272E-01  0.11378396554E+00  0.10301295256E+01  0.93800000000E+00 0.  1.
         22    1    1    2    0    0  0.33031956870E+00  0.62611748533E-01  0.31782162797E+01  0.31959489935E+01  0.00000000000E+00 0.  1.
</event>
<event>
 5    1  0.6776507E+001  0.1599674E+01  0.7818608E-02  0.3353717E+00
         11   -1    0    0    0    0  0.00000000000E+00  0.00000000000E+00  0.39999999674E+01  0.40000000000E+01  0.51100000000E-03 0. -1.
    9000002   -1    0    0    0    0 -0.00000000000E+00 -0.00000000000E+00  0.00000000000E+00  0.93800000000E+00  0.93800000000E+00 0. -1.
         11    1    1    2    0    0 -0.85720984672E-01  0.40474128294E-01  0.93754865263E+00  0.94232901868E+00  0.51100000000E-03 0.  1.
    9000002    1    1    2    0    0  0.35664297998E+00 -0.16142982191E+00  0.10326325514E+00  0.10216462707E+01  0.93800000000E+00 0. -1.
         22    1    1    2    0    0 -0.27092199531E+00  0.12095569361E+00  0.29591880596E+01  0.29740247106E+01  0.00000000000E+00 0. -1.
</event>
<event>
 5    1  0.6776507E+001  0.1448037E+01  0.7818608E-02  0.3536839E+00
         11   -1    0    0    0    0  0.00000000000E+00  0.00000000000E+00  0.39999999674E+01  0.40000000000E+01  0.51100000000E-03 0.  1.
    9000002   -1    0    0    0    0 -0.00000000000E+00 -0.00000000000E+00  0.00000000000E+00  0.93800000000E+00  0.93800000000E+00 0.  1.
         11    1    1    2    0    0  0.25435953936E+00 -0.50878747402E-01  0.29034535716E+00  0.38934317735E+00  0.51100000000E-03 0.  1.
    9000002    1    1    2    0    0  0.17859186339E-01 -0.14359939125E+00  0.13531406051E+00  0.95869371056E+00  0.93800000000E+00 0.  1.
         22    1    1    2    0    0 -0.27221872570E+00  0.19447813865E+00  0.35743405497E+01  0.35899631121E+01  0.00000000000E+00 0.  1.
</event>
<event>
 5    1  0.6776507E+001  0.1599660E+01  0.7818608E-02  0.3353733E+00
         11   -1    0    0    0    0  0.00000000000E+00  0.00000000000E+00  0.39999999674E+01  0.40000000000E+01  0.51100000000E-03 0.  1.
    9000002   -1    0    0    0    0 -0.00000000000E+00 -0.00000000000E+00  0.00000000000E+00  0.93800000000E+00  0.93800000000E+00 0.  1.
         11    1    1    2    0    0 -0.68062372608E-02 -0.15956728945E-01  0.17924989888E+00  0.18008811575E+00  0.51100000000E-03 0.  1.
    9000002    1    1    2    0    0  0.17356101034E+00  0.31186071538E+00  0.85489553623E-01  0.10072402861E+01  0.93800000000E+00 0.  1.
         22    1    1    2    0    0 -0.16675477308E+00 -0.29590398644E+00  0.37352605149E+01  0.37506715982E+01  0.00000000000E+00 0.  1.
</event>
<event>
 5    1  0.6776507E+001  0.1599670E+01  0.7818608E-02  0.3353722E+00
         11   -1    0    0    0    0  0.00000000000E+00  0.00000000000E+00  0.39999999674E+01  0.40000000000E+01  0.51100000000E-03 0.  1.
    9000002   -1    0    0    0    0 -0.00000000000E+00 -0.00000000000E+00  0.00000000000E+00  0.93800000000E+00  0.93800000000E+00 0. -1.
         11    1    1    2    0    0  0.18539761416E-01 -0.78441150463E-01  0.91155881135E+00  0.91511554708E+00  0.51100000000E-03 0.  1.
    9000002    1    1    2    0    0 -0.70772303847E-01  0.34472036544E+00  0.83059984381E-01  0.10052779767E+01  0.93800000000E+00 0. -1.
         22    1    1    2    0    0  0.52232542431E-01 -0.26627921497E+00  0.30053811716E+01  0.30176064763E+01  0.00000000000E+00 0.  1.
</event>
<event>
 5    1  0.6776507E+001  0.1583231E+01  0.7818608E-02  0.3371768E+00
         11   -1    0    0    0    0  0.00000000000E+00  0.00000000000E+00  0.39999999674E+01  0.40000000000E+01  0.51100000000E-03 0.  1.
    9000002   -1    0    0    0    0 -0.00000000000E+00 -0.00000000000E+00  0.00000000000E+00  0.93800000000E+00  0.93800000000E+00 0.  1.
         11    1    1    2    0    0  0.17496337438E+00  0.57510562508E-01  0.12319778902E+01  0.12456682665E+01  0.51100000000E-03 0.  1.
    9000002    1    1    2    0    0 -0.37181102106E+00  0.23471186981E+00  0.14534002674E+00  0.10460883426E+01  0.93800000000E+00 0.  1.
         22    1    1    2    0    0  0.19684764668E+00 -0.29222243232E+00  0.26226820504E+01  0.26462433909E+01  0.00000000000E+00 0.  1.
</event>
<event>
 5    1  0.6776507E+001  0.1599673E+01  0.7818608E-02  0.3353719E+00
         11   -1    0    0    0    0  0.00000000000E+00  0.00000000000E+00  0.39999999674E+01  0.40000000000E+01  0.51100000000E-03 0.  1.
    9000002   -1    0    0    0    0 -0.00000000000E+00 -0.00000000000E+00  0.00000000000E+00  0.93800000000E+00  0.93800000000E+00 0.  1.
         11    1    1    2    0    0 -0.60330486783E-01 -0.95632535978E-01  0.11565583842E+01  0.11620726771E+01  0.51100000000E-03 0.  1.
    9000002    1    1    2    0    0  0.20912782222E+00  0.31745498085E+00  0.97238802527E-01  0.10167652116E+01  0.93800000000E+00 0.  1.
         22    1    1    2    0    0 -0.14879733544E+00 -0.22182244487E+00  0.27462027806E+01  0.27591621113E+01  0.00000000000E+00 0.  1.
</event>
<event>
 5    1  0.6776507E+001  0.1599669E+01  0.7818608E-02  0.3353723E+00
         11   -1    0    0    0    0  0.00000000000E+00  0.00000000000E+00  0.39999999674E+01  0.40000000000E+01  0.51100000000E-03 0.  1.
    9000002   -1    0    0    0    0 -0.00000000000E+00 -0.00000000000E+00  0.00000000000E+00  0.93800000000E+00  0.93800000000E+00 0.  1.
         11    1    1    2    0    0 -0.16197907578E+00  0.42798278544E-02  0.13643082101E+01  0.13738968997E+01  0.51100000000E-03 0.  1.
    9000002    1    1    2    0    0  0.46201417818E+00 -0.36811008002E-02  0.14525488203E+00  0.10556579143E+01  0.93800000000E+00 0.  1.
         22    1    1    2    0    0 -0.30003510241E+00 -0.59872705417E-03  0.24904368753E+01  0.25084451859E+01  0.00000000000E+00 0.  1.
</event>
<event>
 5    1  0.6776507E+001  0.1599395E+01  0.7818608E-02  0.3354020E+00
         11   -1    0    0    0    0  0.00000000000E+00  0.00000000000E+00  0.39999999674E+01  0.40000000000E+01  0.51100000000E-03 0. -1.
    9000002   -1    0    0    0    0 -0.00000000000E+00 -0.00000000000E+00  0.00000000000E+00  0.93800000000E+00  0.93800000000E+00 0.  1.
         11    1    1    2    0    0 -0.17831491663E+00 -0.48594211998E-01  0.14483307278E+01  0.14600752601E+01  0.51100000000E-03 0. -1.
    9000002    1    1    2    0    0  0.50125534408E+00  0.86469482118E-01  0.17763432331E+00  0.10817263259E+01  0.93800000000E+00 0.  1.
         22    1    1    2    0    0 -0.32294042744E+00 -0.37875270120E-01  0.23740349162E+01  0.23961984140E+01  0.00000000000E+00 0.  1.
</event>
<event>
 5    1  0.6776507E+001  0.1551876E+01  0.7818608E-02  0.3407312E+00
         11   -1    0    0    0    0  0.00000000000E+00  0.00000000000E+00  0.39999999674E+01  0.40000000000E+01  0.51100000000E-03 0. -1.
    9000002   -1    0    0    0    0 -0.00000000000E+00 -0.00000000000E+00  0.00000000000E+00  0.93800000000E+00  0.93800000000E+00 0.  1.
         11    1    1    2    0    0 -0.17406057282E+00 -0.26764149279E+00  0.13643286800E+01  0.14011859477E+01  0.51100000000E-03 0. -1.
    9000002    1    1    2    0    0  0.32646540558E+00  0.65206899483E-01  0.11330850290E+00  0.10017556676E+01  0.93800000000E+00 0.  1.
         22    1    1    2    0    0 -0.15240483276E+00  0.20243459331E+00  0.25223627844E+01  0.25350583847E+01  0.00000000000E+00 0. -1.
</event>
<event>
 5    1  0.6776507E+001  0.1599650E+01  0.7818608E-02  0.3353744E+00
         11   -1    0    0    0    0  0.00000000000E+00  0.00000000000E+00  0.39999999674E+01  0.40000000000E+01  0.51100000000E-03 0.  1.
    9000002   -1    0    0    0    0 -0.00000000000E+00 -0.00000000000E+00  0.00000000000E+00  0.93800000000E+00  0.93800000000E+00 0. -1.
         11    1    1    2    0    0  0.58725671684E-01 -0.10109108570E+00  0.10978054664E+01  0.11040132315E+01  0.51100000000E-03 0.  1.
    9000002    1    1    2    0    0 -0.19471906243E+00  0.34382364359E+00  0.10527022730E+00  0.10232575589E+01  0.93800000000E+00 0. -1.
         22    1    1    2    0    0  0.13599339075E+00 -0.24273255789E+00  0.27969242736E+01  0.28107292096E+01  0.00000000000E+00 0.  1.
</event>
<event>
 5    1  0.6776507E+001  0.1599589E+01  0.7818608E-02  0.3353809E+00
         11   -1    0    0    0    0  0.00000000000E+00  0.00000000000E+00  0.39999999674E+01  0.40000000000E+01  0.51100000000E-03 0.  1.
    9000002   -1    0    0    0    0 -0.00000000000E+00 -0.00000000000E+00  0.00000000000E+00  0.93800000000E+00  0.93800000000E+00 0.  1.
         11    1    1    2    0    0 -0.74332869618E-01  0.20840900742E+00  0.11316823593E+01  0.11531109718E+01  0.51100000000E-03 0.  1.
    9000002    1    1    2    0    0  0.25750473490E+00 -0.69120210741E+00  0.39306576175E+00  0.12563493681E+01  0.93800000000E+00 0.  1.
         22    1    1    2    0    0 -0.18317186528E+00  0.48279309999E+00  0.24752518463E+01  0.25285396600E+01  0.00000000000E+00 0.  1.
</event>
<event>
 5    1  0.6776507E+001  0.1599676E+01  0.7818608E-02  0.3353715E+00
         11   -1    0    0    0    0  0.00000000000E+00  0.00000000000E+00  0.39999999674E+01  0.40000000000E+01  0.51100000000E-03 0. -1.
    9000002   -1    0    0    0    0 -0.00000000000E+00 -0.00000000000E+00  0.00000000000E+00  0.93800000000E+00  0.93800000000E+00 0.  1.
         11    1    1    2    0    0 -0.12866717565E-01 -0.56163565414E-01  0.42915311274E+00  0.43300410367E+00  0.51100000000E-03 0.  1.
    9000002    1    1    2    0    0  0.12113231915E+00  0.49818112350E+00  0.18033200644E+00  0.10840761519E+01  0.93800000000E+00 0.  1.
         22    1    1    2    0    0 -0.10826560158E+00 -0.44201755809E+00  0.33905148482E+01  0.34209197444E+01  0.00000000000E+00 0. -1.
</event>
<event>
 5    1  0.6776507E+001  0.1599077E+01  0.7818608E-02  0.3354366E+00
         11   -1    0    0    0    0  0.00000000000E+00  0.00000000000E+00  0.39999999674E+01  0.40000000000E+01  0.51100000000E-03 0.  1.
    9000002   -1    0    0    0    0 -0.00000000000E+00 -0.00000000000E+00  0.00000000000E+00  0.93800000000E+00  0.93800000000E+00 0.  1.
         11    1    1    2    0    0 -0.21070596837E-01 -0.11441603016E+00  0.10950645664E+01  0.11012273442E+01  0.51100000000E-03 0.  1.
    9000002    1    1    2    0    0  0.16804141383E+00  0.39540821291E+00  0.12551229041E+00  0.10393184818E+01  0.93800000000E+00 0.  1.
         22    1    1    2    0    0 -0.14697081700E+00 -0.28099218275E+00  0.27794231106E+01  0.27974541740E+01  0.00000000000E+00 0.  1.
</event>
<event>
 5    1  0.6776507E+001  0.1569543E+01  0.7818608E-02  0.3387098E+00
         11   -1    0    0    0    0  0.00000000000E+00  0.00000000000E+00  0.39999999674E+01  0.40000000000E+01  0.51100000000E-03 0. -1.
    9000002   -1    0    0    0    0 -0.00000000000E+00 -0.00000000000E+00  0.00000000000E+00  0.93800000000E+00  0.93800000000E+00 0.  1.
         11    1    1    2    0    0 -0.93334923798E-01 -0.91228078007E-01  0.90856366732E+00  0.91789006363E+00  0.51100000000E-03 0. -1.
    9000002    1    1    2    0    0 -0.10778213304E+00 -0.16958337880E+00  0.49670428542E-01  0.96056580308E+00  0.93800000000E+00 0.  1.
         22    1    1    2    0    0  0.20111705684E+00  0.26081145681E+00  0.30417658715E+01  0.30595441333E+01  0.00000000000E+00 0. -1.
</event>
<event>
 5    1  0.6776507E+001  0.1599677E+01  0.7818608E-02  0.3353714E+00
         11   -1    0    0    0    0  0.00000000000E+00  0.00000000000E+00  0.39999999674E+01  0.40000000000E+01  0.51100000000E-03 0. -1.
    9000002   -1    0    0    0    0 -0.00000000000E+00 -0.00000000000E+00  0.00000000000E+00  0.93800000000E+00  0.93800000000E+00 0. -1.
         11    1    1    2    0    0 -0.29831116954E-01  0.41166061139E-01  0.52508496302E+00  0.52754053838E+00  0.51100000000E-03 0. -1.
    9000002    1    1    2    0    0  0.22299451602E+00 -0.30345807854E+00  0.95378824366E-01  0.10152607940E+01  0.93800000000E+00 0. -1.
         22    1    1    2    0    0 -0.19316339907E+00  0.26229201740E+00  0.33795361800E+01  0.33951986677E+01  0.00000000000E+00 0. -1.
</event>
<event>
 5    1  0.6776507E+001  0.1599550E+01  0.7818608E-02  0.3353852E+00
         11   -1    0    0    0    0  0.00000000000E+00  0.00000000000E+00  0.39999999674E+01  0.40000000000E+01  0.51100000000E-03 0.  1.
    9000002   -1    0    0    0    0 -0.00000000000E+00 -0.00000000000E+00  0.00000000000E+00  0.93800000000E+00  0.93800000000E+00 0.  1.
         11    1    1    2    0    0 -0.17658365786E-01 -0.11561000066E+00  0.13043510963E+01  0.13095837253E+01  0.51100000000E-03 0.  1.
    9000002    1    1    2    0    0  0.78013479446E-01  0.37479352981E+00  0.98747442510E-01  0.10179151980E+01  0.93800000000E+00 0.  1.
         22    1    1    2    0    0 -0.60355113660E-01 -0.25918352915E+00  0.25969014286E+01  0.26105010766E+01  0.00000000000E+00 0.  1.
</event>
<event>
 5    1  0.6776507E+001  0.1599672E+01  0.7818608E-02  0.3353720E+00
         11   -1    0    0    0    0  0.00000000000E+00  0.00000000000E+00  0.39999999674E+01  0.40000000000E+01  0.51100000000E-03 0. -1.
    9000002   -1    0    0    0    0 -0.00000000000E+00 -0.00000000000E+00  0.00000000000E+00  0.93800000000E+00  0.93800000000E+00 0.  1.
         11    1    1    2    0    0  0.50811646068E-01  0.25318764579E+00  0.13800320082E+01  0.14039851894E+01  0.51100000000E-03 0. -1.
    9000002    1    1    2    0    0 -0.12884506468E+00 -0.66952612709E+00  0.33064565087E+00  0.12058344961E+01  0.93800000000E+00 0.  1.
         22    1    1    2    0    0  0.78033418611E-01  0.41633848131E+00  0.22893223083E+01  0.23281803145E+01  0.00000000000E+00 0.  1.
</event>
<event>
 5    1  0.6776507E+001  0.1599676E+01  0.7818608E-02  0.3353715E+00
         11   -1    0    0    0    0  0.00000000000E+00  0.00000000000E+00  0.39999999674E+01  0.40000000000E+01  0.51100000000E-03 0. -1.
    9000002   -1    0    0    0    0 -0.00000000000E+00 -0.00000000000E+00  0.00000000000E+00  0.93800000000E+00  0.93800000000E+00 0.  1.
         11    1    1    2    0    0  0.15938380578E+00  0.54929867597E-02  0.80459138725E+00  0.82024443430E+00  0.51100000000E-03 0. -1.
    9000002    1    1    2    0    0 -0.72178934257E+00 -0.22852449005E-01  0.37499046984E+00  0.12417584072E+01  0.93800000000E+00 0.  1.
         22    1    1    2    0    0  0.56240553679E+00  0.17359462246E-01  0.28204181103E+01  0.28759971585E+01  0.00000000000E+00 0. -1.
</event>
<event>
 5    1  0.6776507E+001  0.1597983E+01  0.7818608E-02  0.3355555E+00
         11   -1    0    0    0    0  0.00000000000E+00  0.00000000000E+00  0.39999999674E+01  0.40000000000E+01  0.51100000000E-03 0. -1.
    9000002   -1    0    0    0    0 -0.00000000000E+00 -0.00000000000E+00  0.00000000000E+00  0.93800000000E+00  0.93800000000E+00 0. -1.
         11    1    1    2    0    0 -0.10330164458E-01  0.23624694707E+00  0.14159098093E+01  0.14355208746E+01  0.51100000000E-03 0. -1.
    9000002    1    1    2    0    0 -0.17521905953E-01 -0.51487072139E+00  0.18370045002E+00  0.10858124756E+01  0.93800000000E+00 0. -1.
         22    1    1    2    0    0  0.27852070411E-01  0.27862377432E+00  0.24003897080E+01  0.24166666497E+01  0.00000000000E+00 0. -1.
</event>
<event>
 5    1  0.6776507E+001  0.1599673E+01  0.7818608E-02  0.3353719E+00
         11   -1    0    0    0    0  0.00000000000E+00  0.00000000000E+00  0.39999999674E+01  0.40000000000E+01  0.51100000000E-03 0. -1.
    9000002   -1    0    0    0    0 -0.00000000000E+00 -0.00000000000E+00  0.00000000000E+00  0.93800000000E+00  0.93800000000E+00 0. -1.
         11    1    1    2    0    0 -0.27321767558E-01 -0.64695456851E-01  0.68357917933E+00  0.68717736914E+00  0.51100000000E-03 0. -1.
    9000002    1    1    2    0    0  0.16406812017E+00  0.36191673669E+00  0.10647589055E+00  0.10242476203E+01  0.93800000000E+00 0. -1.
         22    1    1    2    0    0 -0.13674635262E+00 -0.29722127984E+00  0.32099448975E+01  0.32265750106E+01  0.00000000000E+00 0. -1.
</event>
<event>
 5    1  0.6776507E+001  0.1599542E+01  0.7818608E-02  0.3353861E+00
         11   -1    0    0    0    0  0.00000000000E+00  0.00000000000E+00  0.39999999674E+01  0.40000000000E+01  0.51100000000E-03 0. -1.
    9000002   -1    0    0    0    0 -0.00000000000E+00 -0.00000000000E+00  0.00000000000E+00  0.93800000000E+00  0.93800000000E+00 0.  1.
         11    1    1    2    0    0  0.14029189227E-01 -0.10928750876E+00  0.11571725984E+01  0.11624066677E+01  0.51100000000E-03 0. -1.
    9000002    1    1    2    0    0 -0.88704059646E-01  0.35664331408E+00  0.90851228861E-01  0.10115141173E+01  0.93800000000E+00 0.  1.
         22    1    1    2    0    0  0.74674870419E-01 -0.24735580533E+00  0.27519761401E+01  0.27640792150E+01  0.00000000000E+00 0. -1.
</event>
<event>
 5    1  0.6776507E+001  0.1583136E+01  0.7818608E-02  0.3371873E+00
         11   -1    0    0    0    0  0.00000000000E+00  0.00000000000E+00  0.39999999674E+01  0.40000000000E+01  0.51100000000E-03 0. -1.
    9000002   -1    0    0    0    0 -0.00000000000E+00 -0.00000000000E+00  0.00000000000E+00  0.93800000000E+00  0.93800000000E+00 0. -1.
         11    1    1    2    0    0  0.16400405767E+00 -0.51847899482E-01  0.10070408199E+01  0.10216246912E+01  0.51100000000E-03 0. -1.
    9000002    1    1    2    0    0 -0.12252015965E+00  0.31317037663E+00  0.89043073760E-01  0.10004296793E+01  0.93800000000E+00 0. -1.
         22    1    1    2    0    0 -0.41483898013E-01 -0.26132247714E+00  0.29039160737E+01  0.29159456294E+01  0.00000000000E+00 0. -1.
</event>
<event>
 5    1  0.6776507E+001  0.1599677E+01  0.7818608E-02  0.3353714E+00
         11   -1    0    0    0    0  0.00000000000E+00  0.00000000000E+00  0.39999999674E+01  0.40000000000E+01  0.51100000000E-03 0.  1.
    9000002   -1    0    0    0    0 -0.00000000000E+00 -0.00000000000E+00  0.00000000000E+00  0.93800000000E+00  0.93800000000E+00 0.  1.
         11    1    1    2    0    0 -0.82932619561E-02  0.17536117020E+00  0.12922355810E+01  0.13041063516E+01  0.51100000000E-03 0. -1.
    9000002    1    1    2    0    0  0.25724488438E-01 -0.51790162140E+00  0.18465356550E+00  0.10875774814E+01  0.93800000000E+00 0.  1.
         22    1    1    2    0    0 -0.17431226482E-01  0.34254045120E+00  0.25231108209E+01  0.25463161671E+01  0.00000000000E+00 0.  1.
</event>
<event>
 5    1  0.6776507E+001  0.1599659E+01  0.7818608E-02  0.3353734E+00
         11   -1    0    0    0    0  0.00000000000E+00  0.00000000000E+00  0.39999999674E+01  0.40000000000E+01  0.51100000000E-03 0.  1.
    9000002   -1    0    0    0    0 -0.00000000000E+00 -0.00000000000E+00  0.00000000000E+00  0.93800000000E+00  0.93800000000E+00 0.  1.
         11    1    1    2    0    0 -0.10132831863E+00 -0.17600796106E+00  0.13160461444E+01  0.13316245513E+01  0.51100000000E-03 0.  1.
    9000002    1    1    2    0    0  0.29367782383E+00  0.49079544768E+00  0.22693334914E+00  0.11218153059E+01  0.93800000000E+00 0.  1.
         22    1    1    2    0    0 -0.19234950521E+00 -0.31478748661E+00  0.24570204739E+01  0.24845601427E+01  0.00000000000E+00 0.  1.
</event>
<event>
 5    1  0.6776507E+001  0.1599590E+01  0.7818608E-02  0.3353809E+00
         11   -1    0    0    0    0  0.00000000000E+00  0.00000000000E+00  0.39999999674E+01  0.40000000000E+01  0.51100000000E-03 0.  1.
    9000002   -1    0    0    0    0 -0.00000000000E+00 -0.00000000000E+00  0.00000000000E+00  0.93800000000E+00  0.93800000000E+00 0.  1.
         11    1    1    2    0    0 -0.13112174332E-01  0.57404541610E-01  0.58497191986E+00  0.58792824278E+00  0.51100000000E-03 0.  1.
    9000002    1    1    2    0    0  0.67761506159E-01 -0.42985122600E+00  0.12841160798E+00  0.10419679646E+01  0.93800000000E+00 0.  1.
         22    1    1    2    0    0 -0.54649331827E-01  0.37244668439E+00  0.32866164395E+01  0.33081037926E+01  0.00000000000E+00 0.  1.
</event>
<event>
 5    1  0.6776507E+001  0.1599670E+01  0.7818608E-02  0.3353722E+00
         11   -1    0    0    0    0  0.00000000000E+00  0.00000000000E+00  0.39999999674E+01  0.40000000000E+01  0.51100000000E-03 0.  1.
    9000002   -1    0    0    0    0 -0.00000000000E+00 -0.00000000000E+00  0.00000000000E+00  0.93800000000E+00  0.93800000000E+00 0.  1.
         11    1    1    2    0    0 -0.95681931136E-01  0.10048711836E+00  0.14771355568E+01  0.14836382333E+01  0.51100000000E-03 0.  1.
    9000002    1    1    2    0    0  0.25991551166E+00 -0.27036018351E+00  0.94584988135E-01  0.10146137304E+01  0.93800000000E+00 0.  1.
         22    1    1    2    0    0 -0.16423358053E+00  0.16987306515E+00  0.24282794224E+01  0.24397480363E+01  0.00000000000E+00 0.  1.
</event>
<event>
 5    1  0.6776507E+001  0.1590863E+01  0.7818608E-02  0.3363341E+00
         11   -1    0    0    0    0  0.00000000000E+00  0.00000000000E+00  0.39999999674E+01  0.40000000000E+01  0.51100000000E-03 0. -1.
    9000002   -1    0    0    0    0 -0.00000000000E+00 -0.00000000000E+00  0.00000000000E+00  0.93800000000E+00  0.93800000000E+00 0.  1.
         11    1    1    2    0    0 -0.22382118503E-01 -0.21632915270E-01  0.14490130482E+00  0.14820793336E+00  0.51100000000E-03 0. -1.
    9000002    1    1    2    0    0 -0.45931891904E+00  0.12965370677E+00  0.16317985620E+00  0.10650143748E+01  0.93800000000E+00 0.  1.
         22    1    1    2    0    0  0.48170103755E+00 -0.10802079150E+00  0.36919188063E+01  0.37247776918E+01  0.00000000000E+00 0. -1.
</event>
<event>
 5    1  0.6776507E+001  0.1591520E+01  0.7818608E-02  0.3362619E+00
         11   -1    0    0    0    0  0.00000000000E+00  0.00000000000E+00  0.39999999674E+01  0.40000000000E+01  0.51100000000E-03 0.  1.
    9000002   -1    0    0    0    0 -0.00000000000E+00 -0.00000000000E+00  0.00000000000E+00  0.93800000000E+00  0.93800000000E+00 0.  1.
         11    1    1    2    0    0  0.13286945632E+00 -0.25313803151E+00  0.11535024213E+01  0.11884028158E+01  0.51100000000E-03 0.  1.
    9000002    1    1    2    0    0 -0.12840667696E+00  0.66806410433E+00  0.33800579935E+00  0.12070169189E+01  0.93800000000E+00 0.  1.
         22    1    1    2    0    0 -0.44627793568E-02 -0.41492607281E+00  0.25084917467E+01  0.25425802653E+01  0.00000000000E+00 0.  1.
</event>
<event>
 5    1  0.6776507E+001  0.1599676E+01  0.7818608E-02  0.3353715E+00
         11   -1    0    0    0    0  0.00000000000E+00  0.00000000000E+00  0.39999999674E+01  0.40000000000E+01  0.51100000000E-03 0.  1.
    9000002   -1    0    0    0    0 -0.00000000000E+00 -0.00000000000E+00  0.00000000000E+00  0.93800000000E+00  0.93800000000E+00 0.  1.
         11    1    1    2    0    0 -0.48087837451E-01  0.16435969434E-01  0.52773716703E+00  0.53017861121E+00  0.51100000000E-03 0.  1.
    9000002    1    1    2    0    0  0.35456751693E+00 -0.12694581487E+00  0.95393058965E-01  0.10152719831E+01  0.93800000000E+00 0.  1.
         22    1    1    2    0    0 -0.30647967948E+00  0.11050984543E+00  0.33768697414E+01  0.33925494057E+01  0.00000000000E+00 0.  1.
</event>
<event>
 5    1  0.6776507E+001  0.1599607E+01  0.7818608E-02  0.3353790E+00
         11   -1    0    0    0    0  0.00000000000E+00  0.00000000000E+00  0.39999999674E+01  0.40000000000E+01  0.51100000000E-03 0.  1.
    9000002   -1    0    0    0    0 -0.00000000000E+00 -0.00000000000E+00  0.00000000000E+00  0.93800000000E+00  0.93800000000E+00 0.  1.
         11    1    1    2    0    0  0.97314807543E-01  0.12075798068E+00  0.14633786595E+01  0.14715739954E+01  0.51100000000E-03 0.  1.
    9000002    1    1    2    0    0 -0.28360822235E+00 -0.31930954888E+00  0.12353143993E+00  0.10380251579E+01  0.93800000000E+00 0.  1.
         22    1    1    2    0    0  0.18629341481E+00  0.19855156820E+00  0.24130898679E+01  0.24284008467E+01  0.00000000000E+00 0.  1.
</event>
<event>
 5    1  0.6776507E+001  0.1516296E+01  0.7818608E-02  0.3449545E+00
         11   -1    0    0    0    0  0.00000000000E+00  0.00000000000E+00  0.39999999674E+01  0.40000000000E+01  0.51100000000E-03 0.  1.
    9000002   -1    0    0    0    0 -0.00000000000E+00 -0.00000000000E+00  0.00000000000E+00  0.93800000000E+00  0.93800000000E+00 0. -1.
         11    1    1    2    0    0  0.21103393425E+00 -0.15766159636E+00  0.13768383026E+01  0.14018118537E+01  0.51100000000E-03 0.  1.
    9000002    1    1    2    0    0  0.11510934239E+00 -0.16711897679E+00  0.92654125473E-01  0.96416165661E+00  0.93800000000E+00 0. -1.
         22    1    1    2    0    0 -0.32614327664E+00  0.32478057315E+00  0.25305075393E+01  0.25720264897E+01  0.00000000000E+00 0.  1.
</event>
<event>
 5    1  0.6776507E+001  0.1599638E+01  0.7818608E-02  0.3353757E+00
         11   -1    0    0    0    0  0.00000000000E+00  0.00000000000E+00  0.39999999674E+01  0.40000000000E+01  0.51100000000E-03 0.  1.
    9000002   -1    0    0    0    0 -0.00000000000E+00 -0.00000000000E+00  0.00000000000E+00  0.93800000000E+00  0.93800000000E+00 0.  1.
         11    1    1    2    0    0  0.18695496231E-01 -0.18152834919E-01  0.24722012442E+00  0.24859022111E+00  0.51100000000E-03 0.  1.
    9000002    1    1    2    0    0 -0.34704094294E+00  0.29931704603E+00  0.14285851622E+00  0.10536985650E+01  0.93800000000E+00 0.  1.
         22    1    1    2    0    0  0.32834544671E+00 -0.28116421111E+00  0.36099213267E+01  0.36357112139E+01  0.00000000000E+00 0.  1.
</event>
<event>
 5    1  0.6776507E+001  0.1599416E+01  0.7818608E-02  0.3353997E+00
         11   -1    0    0    0    0  0.00000000000E+00  0.00000000000E+00  0.39999999674E+01  0.40000000000E+01  0.51100000000E-03 0. -1.
    9000002   -1    0    0    0    0 -0.00000000000E+00 -0.00000000000E+00  0.00000000000E+00  0.93800000000E+00  0.93800000000E+00 0. -1.
         11    1    1    2    0    0 -0.33618212373E-01 -0.12916687586E+00  0.13613889644E+01  0.13679160937E+01  0.51100000000E-03 0. -1.
    9000002    1    1    2    0    0  0.14189175486E+00  0.34306056440E+00  0.92849439229E-01  0.10130591490E+01  0.93800000000E+00 0. -1.
         22    1    1    2    0    0 -0.10827354249E+00 -0.21389368853E+00  0.25457615638E+01  0.25570247573E+01  0.00000000000E+00 0. -1.
</event>
<event>
 5    1  0.6776507E+001  0.1599666E+01  0.7818608E-02  0.3353726E+00
         11   -1    0    0    0    0  0.00000000000E+00  0.00000000000E+00  0.39999999674E+01  0.40000000000E+01  0.51100000000E-03 0. -1.
    9000002   -1    0    0    0    0 -0.00000000000E+00 -0.00000000000E+00  0.00000000000E+00  0.93800000000E+00  0.93800000000E+00 0. -1.
         11    1    1    2    0    0  0.43605388612E-01  0.93224189233E-01  0.71979396737E+00  0.72711470619E+00  0.51100000000E-03 0. -1.
    9000002    1    1    2    0    0 -0.22997286343E+00 -0.47622373002E+00  0.19242859945E+00  0.10938689706E+01  0.93800000000E+00 0. -1.
         22    1    1    2    0    0  0.18636747482E+00  0.38299954079E+00  0.30877774005E+01  0.31170163232E+01  0.00000000000E+00 0. -1.
</event>
<event>
 5    1  0.6776507E+001  0.1599528E+01  0.7818608E-02  0.3353876E+00
         11   -1    0    0    0    0  0.00000000000E+00  0.00000000000E+00  0.39999999674E+01  0.40000000000E+01  0.51100000000E-03 0.  1.
    9000002   -1    0    0    0    0 -0.00000000000E+00 -0.00000000000E+00  0.00000000000E+00  0.93800000000E+00  0.93800000000E+00 0.  1.
         11    1    1    2    0    0  0.16385163912E+00 -0.17712264952E+00  0.11814338033E+01  0.12058216640E+01  0.51100000000E-03 0.  1.
    9000002    1    1    2    0    0 -0.48819754054E+00  0.57855927663E+00  0.41650326669E+00  0.12752986499E+01  0.93800000000E+00 0.  1.
         22    1    1    2    0    0  0.32434590142E+00 -0.40143662711E+00  0.24020628974E+01  0.24568796861E+01  0.00000000000E+00 0. -1.
</event>
<event>
 5    1  0.6776507E+001  0.1599625E+01  0.7818608E-02  0.3353770E+00
         11   -1    0    0    0    0  0.00000000000E+00  0.00000000000E+00  0.39999999674E+01  0.40000000000E+01  0.51100000000E-03 0.  1.
    9000002   -1    0    0    0    0 -0.00000000000E+00 -0.00000000000E+00  0.00000000000E+00  0.93800000000E+00  0.93800000000E+00 0. -1.
         11    1    1    2    0    0  0.12648973983E-02 -0.71268345547E-02  0.52247785503E-01  0.52749255418E-01  0.51100000000E-03 0.  1.
    9000002    1    1    2    0    0  0.77804273969E-03  0.42071788237E+00  0.11976400652E+00  0.10349838449E+01  0.93800000000E+00 0. -1.
         22    1    1    2    0    0 -0.20429401380E-02 -0.41359104781E+00  0.38279881753E+01  0.38502668997E+01  0.00000000000E+00 0.  1.
</event>
<event>
 5    1  0.6776507E+001  0.1599677E+01  0.7818608E-02  0.3353714E+00
         11   -1    0    0    0    0  0.00000000000E+00  0.00000000000E+00  0.39999999674E+01  0.40000000000E+01  0.51100000000E-03 0.  1.
    9000002   -1    0    0    0    0 -0.00000000000E+00 -0.00000000000E+00  0.00000000000E+00  0.93800000000E+00  0.93800000000E+00 0.  1.
         11    1    1    2    0    0 -0.11430635979E+00 -0.70899374467E-01  0.11976192422E+01  0.12051492753E+01  0.51100000000E-03 0.  1.
    9000002    1    1    2    0    0  0.36796917104E+00  0.22860380241E+00  0.12714822820E+00  0.10409955241E+01  0.93800000000E+00 0.  1.
         22    1    1    2    0    0 -0.25366281125E+00 -0.15770442795E+00  0.26752324969E+01  0.26918552006E+01  0.00000000000E+00 0.  1.
</event>
<event>
 5    1  0.6776507E+001  0.1599621E+01  0.7818608E-02  0.3353775E+00
         11   -1    0    0    0    0  0.00000000000E+00  0.00000000000E+00  0.39999999674E+01  0.40000000000E+01  0.51100000000E-03 0. -1.
    9000002   -1    0    0    0    0 -0.00000000000E+00 -0.00000000000E+00  0.00000000000E+00  0.93800000000E+00  0.93800000000E+00 0.  1.
         11    1    1    2    0    0  0.41556871610E-01 -0.24741788718E-01  0.24509641017E+00  0.24982321967E+00  0.51100000000E-03 0. -1.
    9000002    1    1    2    0    0 -0.60660926145E+00  0.30508650823E+00  0.32775196812E+00  0.12034608121E+01  0.93800000000E+00 0.  1.
         22    1    1    2    0    0  0.56505238983E+00 -0.28034471951E+00  0.34271515891E+01  0.34847159683E+01  0.00000000000E+00 0. -1.
</event>
<event>
 5    1  0.6776507E+001  0.1599676E+01  0.7818608E-02  0.3353715E+00
         11   -1    0    0    0    0  0.00000000000E+00  0.00000000000E+00  0.39999999674E+01  0.40000000000E+01  0.51100000000E-03 0. -1.
    9000002   -1    0    0    0    0 -0.00000000000E+00 -0.00000000000E+00  0.00000000000E+00  0.93800000000E+00  0.93800000000E+00 0.  1.
         11    1    1    2    0    0  0.51363494385E-01 -0.50477529246E-01  0.78413233618E+00  0.78743251855E+00  0.51100000000E-03 0. -1.
    9000002    1    1    2    0    0 -0.25372345808E+00  0.25355514636E+00  0.86356146884E-01  0.10079519778E+01  0.93800000000E+00 0.  1.
         22    1    1    2    0    0  0.20235996369E+00 -0.20307761711E+00  0.31295114843E+01  0.31426155037E+01  0.00000000000E+00 0. -1.
</event>
<event>
 5    1  0.6776507E+001  0.1599666E+01  0.7818608E-02  0.3353726E+00
         11   -1    0    0    0    0  0.00000000000E+00  0.00000000000E+00  0.39999999674E+01  0.40000000000E+01  0.51100000000E-03 0. -1.
    9000002   -1    0    0    0    0 -0.00000000000E+00 -0.00000000000E+00  0.00000000000E+00  0.93800000000E+00  0.93800000000E+00 0.  1.
         11    1    1    2    0    0 -0.57400334720E-01 -0.76283188904E-02  0.47682247134E+00  0.48032584770E+00  0.51100000000E-03 0. -1.
    9000002    1    1    2    0    0  0.44446461847E+00  0.67431003493E-01  0.13726076247E+00  0.10491807538E+01  0.93800000000E+00 0.  1.
         22    1    1    2    0    0 -0.38706428375E+00 -0.59802684603E-01  0.33859167335E+01  0.34084933985E+01  0.00000000000E+00 0. -1.
</event>
<event>
 5    1  0.6776507E+001  0.1599676E+01  0.7818608E-02  0.3353716E+00
         11   -1    0    0    0    0  0.00000000000E+00  0.00000000000E+00  0.39999999674E+01  0.40000000000E+01  0.51100000000E-03 0.  1.
    9000002   -1    0    0    0    0 -0.00000000000E+00 -0.00000000000E+00  0.00000000000E+00  0.93800000000E+00  0.93800000000E+00 0.  1.
         11    1    1    2    0    0  0.20823978327E-01 -0.66222297793E-01  0.57621149692E+00  0.58037830861E+00  0.51100000000E-03 0.  1.
    9000002    1    1    2    0    0 -0.14069357621E+00  0.44881320278E+00  0.15071987025E+00  0.10600888890E+01  0.93800000000E+00 0.  1.
         22    1    1    2    0    0  0.11986959788E+00 -0.38259090499E+00  0.32730686002E+01  0.32975328024E+01  0.00000000000E+00 0.  1.
</event>
<event>
 5    1  0.6776507E+001  0.1599050E+01  0.7818608E-02  0.3354395E+00
         11   -1    0    0    0    0  0.00000000000E+00  0.00000000000E+00  0.39999999674E+01  0.40000000000E+01  0.51100000000E-03 0. -1.
    9000002   -1    0    0    0    0 -0.00000000000E+00 -0.00000000000E+00  0.00000000000E+00  0.93800000000E+00  0.93800000000E+00 0.  1.
         11    1    1    2    0    0  0.35555834445E-01  0.11151199198E+00  0.12628700288E+01  0.12682823473E+01  0.51100000000E-03 0. -1.
    9000002    1    1    2    0    0 -0.15125247199E+00 -0.41730378224E+00  0.13423168433E+00  0.10463660459E+01  0.93800000000E+00 0.  1.
         22    1    1    2    0    0  0.11569663754E+00  0.30579179027E+00  0.26028982543E+01  0.26233516068E+01  0.00000000000E+00 0. -1.
</event>
<event>
 5    1  0.6776507E+001  0.1599668E+01  0.7818608E-02  0.3353724E+00
         11   -1    0    0    0    0  0.00000000000E+00  0.00000000000E+00  0.39999999674E+01  0.40000000000E+01  0.51100000000E-03 0. -1.
    9000002   -1    0    0    0    0 -0.00000000000E+00 -0.00000000000E+00  0.00000000000E+00  0.93800000000E+00  0.93800000000E+00 0.  1.
         11    1    1    2    0    0 -0.69187630593E-01  0.58684959067E-01  0.93553514674E+00  0.93992399935E+00  0.51100000000E-03 0. -1.
    9000002    1    1    2    0    0  0.27634037604E+00 -0.24277957226E+00  0.90915287030E-01  0.10116400118E+01  0.93800000000E+00 0.  1.
         22    1    1    2    0    0 -0.20715274544E+00  0.18409461320E+00  0.29735495336E+01  0.29864359888E+01  0.00000000000E+00 0. -1.
</event>
<event>
 5    1  0.6776507E+001  0.1599656E+01  0.7818608E-02  0.3353737E+00
         11   -1    0    0    0    0  0.00000000000E+00  0.00000000000E+00  0.39999999674E+01  0.40000000000E+01  0.51100000000E-03 0. -1.
    9000002   -1    0    0    0    0 -0.00000000000E+00 -0.00000000000E+00  0.00000000000E+00  0.93800000000E+00  0.93800000000E+00 0. -1.
         11    1    1    2    0    0 -0.27604272368E-03 -0.79281339074E-03  0.92772019517E-02  0.93291130184E-02  0.51100000000E-03 0.  1.
    9000002    1    1    2    0    0  0.19280201820E+00  0.34882829989E+00  0.10714811382E+00  0.10247821814E+01  0.93800000000E+00 0. -1.
         22    1    1    2    0    0 -0.19252597548E+00 -0.34803548649E+00  0.38835746516E+01  0.39038887056E+01  0.00000000000E+00 0. -1.
</event>
<event>
 5    1  0.6776507E+001  0.1590240E+01  0.7818608E-02  0.3364025E+00
         11   -1    0    0    0    0  0.00000000000E+00  0.00000000000E+00  0.39999999674E+01  0.40000000000E+01  0.51100000000E-03 0. -1.
    9000002   -1    0    0    0    0 -0.00000000000E+00 -0.00000000000E+00  0.00000000000E+00  0.93800000000E+00  0.93800000000E+00 0. -1.
         11    1    1    2    0    0 -0.43768740237E+00  0.25771924613E+00  0.66378527005E+00  0.83582331738E+00  0.51100000000E-03 0. -1.
    9000002    1    1    2    0    0 -0.10206728028E+00 -0.81509835540E-01  0.27134442517E+00  0.98515652567E+00  0.93800000000E+00 0. -1.
         22    1    1    2    0    0  0.53975468265E+00 -0.17620941059E+00  0.30648702721E+01  0.31170201570E+01  0.00000000000E+00 0. -1.
</event>
<event>
 5    1  0.6776507E+001  0.1599646E+01  0.7818608E-02  0.3353748E+00
         11   -1    0    0    0    0  0.00000000000E+00  0.00000000000E+00  0.39999999674E+01  0.40000000000E+01  0.51100000000E-03 0. -1.
    9000002   -1    0    0    0    0 -0.00000000000E+00 -0.00000000000E+00  0.00000000000E+00  0.93800000000E+00  0.93800000000E+00 0.  1.
         11    1    1    2    0    0 -0.41132534322E-01  0.95876692565E-01  0.11880859564E+01  0.11926578413E+01  0.51100000000E-03 0. -1.
    9000002    1    1    2    0    0  0.14622034039E+00 -0.33282634995E+00  0.88770717615E-01  0.10098900967E+01  0.93800000000E+00 0.  1.
         22    1    1    2    0    0 -0.10508780607E+00  0.23694965739E+00  0.27231432933E+01  0.27354520619E+01  0.00000000000E+00 0. -1.
</event>
<event>
 5    1  0.6776507E+001  0.1599526E+01  0.7818608E-02  0.3353878E+00
         11   -1    0    0    0    0  0.00000000000E+00  0.00000000000E+00  0.39999999674E+01  0.40000000000E+01  0.51100000000E-03 0.  1.
    9000002   -1    0    0    0    0 -0.00000000000E+00 -0.00000000000E+00  0.00000000000E+00  0.93800000000E+00  0.93800000000E+00 0.  1.
         11    1    1    2    0    0  0.16127689543E+00  0.93647857425E-01  0.14490359036E+01  0.14609878402E+01  0.51100000000E-03 0.  1.
    9000002    1    1    2    0    0 -0.39656390687E+00 -0.22921239994E+00  0.14279588722E+00  0.10535824229E+01  0.93800000000E+00 0.  1.
         22    1    1    2    0    0  0.23528701144E+00  0.13556454251E+00  0.24081681766E+01  0.24234297369E+01  0.00000000000E+00 0. -1.
</event>
<event>
 5    1  0.6776507E+001  0.1599310E+01  0.7818608E-02  0.3354112E+00
         11   -1    0    0    0    0  0.00000000000E+00  0.00000000000E+00  0.39999999674E+01  0.40000000000E+01  0.51100000000E-03 0. -1.
    9000002   -1    0    0    0    0 -0.00000000000E+00 -0.00000000000E+00  0.00000000000E+00  0.93800000000E+00  0.93800000000E+00 0. -1.
         11    1    1    2    0    0  0.74056554564E-01  0.61334954080E-01  0.72214291130E+00  0.72851698356E+00  0.51100000000E-03 0. -1.
    9000002    1    1    2    0    0 -0.33548608660E+00 -0.25525170801E+00  0.12051740004E+00  0.10354094806E+01  0.93800000000E+00 0. -1.
         22    1    1    2    0    0  0.26142953203E+00  0.19391675393E+00  0.31573396560E+01  0.31740735359E+01  0.00000000000E+00 0. -1.
</event>
<event>
 5    1  0.6776507E+001  0.1548925E+01  0.7818608E-02  0.3410736E+00
         11   -1    0    0    0    0  0.00000000000E+00  0.00000000000E+00  0.39999999674E+01  0.40000000000E+01  0.51100000000E-03 0.  1.
    9000002   -1    0    0    0    0 -0.00000000000E+00 -0.00000000000E+00  0.00000000000E+00  0.93800000000E+00  0.93800000000E+00 0.  1.
         11    1    1    2    0    0  0.15126058185E+00 -0.15609029346E+00  0.93766410618E+00  0.96252697649E+00  0.51100000000E-03 0.  1.
    9000002    1    1    2    0    0  0.15600010712E+00  0.91515034609E-01  0.60424122970E-01  0.95718655946E+00  0.93800000000E+00 0.  1.
         22    1    1    2    0    0 -0.30726068897E+00  0.64575258848E-01  0.30019117382E+01  0.30182864640E+01  0.00000000000E+00 0.  1.
</event>
<event>
 5    1  0.6776507E+001  0.1599677E+01  0.7818608E-02  0.3353714E+00
         11   -1    0    0    0    0  0.00000000000E+00  0.00000000000E+00  0.39999999674E+01  0.40000000000E+01  0.51100000000E-03 0. -1.
    9000002   -1    0    0    0    0 -0.00000000000E+00 -0.00000000000E+00  0.00000000000E+00  0.93800000000E+00  0.93800000000E+00 0. -1.
         11    1    1    2    0    0  0.97650565308E-01  0.32379554389E-01  0.11217898038E+01  0.11264975337E+01  0.51100000000E-03 0. -1.
    9000002    1    1    2    0    0 -0.33932137555E+00 -0.11396249183E+00  0.85986593297E-01  0.10076527873E+01  0.93800000000E+00 0. -1.
         22    1    1    2    0    0  0.24167081024E+00  0.81582937443E-01  0.27922235703E+01  0.28038496790E+01  0.00000000000E+00 0. -1.
</event>
<event>
 5    1  0.6776507E+001  0.1599619E+01  0.7818608E-02  0.3353777E+00
         11   -1    0    0    0    0  0.00000000000E+00  0.00000000000E+00  0.39999999674E+01  0.40000000000E+01  0.51100000000E-03 0.  1.
    9000002   -1    0    0    0    0 -0.00000000000E+00 -0.00000000000E+00  0.00000000000E+00  0.93800000000E+00  0.93800000000E+00 0. -1.
         11    1    1    2    0    0  0.79161673972E-01 -0.45910356435E-01  0.78939638619E+00  0.79468311113E+00  0.51100000000E-03 0.  1.
    9000002    1    1    2    0    0 -0.36031626710E+00  0.24808199739E+00  0.12979031400E+00  0.10431021117E+01  0.93800000000E+00 0. -1.
         22    1    1    2    0    0  0.28115459313E+00 -0.20217164096E+00  0.30808132672E+01  0.31002147772E+01  0.00000000000E+00 0.  1.
</event>
<event>
 5    1  0.6776507E+001  0.1599673E+01  0.7818608E-02  0.3353719E+00
         11   -1    0    0    0    0  0.00000000000E+00  0.00000000000E+00  0.39999999674E+01  0.40000000000E+01  0.51100000000E-03 0.  1.
    9000002   -1    0    0    0    0 -0.00000000000E+00 -0.00000000000E+00  0.00000000000E+00  0.93800000000E+00  0.93800000000E+00 0.  1.
         11    1    1    2    0    0 -0.66964584016E-03 -0.89004093377E-01  0.71629181005E+00  0.72180080031E+00  0.51100000000E-03 0.  1.
    9000002    1    1    2    0    0 -0.47709155849E-04  0.48645194328E+00  0.16163218389E+00  0.10689267787E+01  0.93800000000E+00 0.  1.
         22    1    1    2    0    0  0.71735499601E-03 -0.39744784990E+00  0.31220759734E+01  0.31472724210E+01  0.00000000000E+00 0.  1.
</event>
<event>
 5    1  0.8126015E+001  0.1599677E+01  0.7818608E-02  0.3353714E+00
         11   -1    0    0    0    0  0.00000000000E+00  0.00000000000E+00  0.39999999674E+01  0.40000000000E+01  0.51100000000E-03 0. -1.
    9000002   -1    0    0    0    0 -0.00000000000E+00 -0.00000000000E+00  0.00000000000E+00  0.93800000000E+00  0.93800000000E+00 0.  1.
         11    1    1    2    0    0  0.53148190558E-01 -0.13872338379E+00  0.14884227726E+01  0.14958180098E+01  0.51100000000E-03 0.  1.
    9000002    1    1    2    0    0 -0.13910893659E+00  0.36324981860E+00  0.10191401120E+00  0.10205548455E+01  0.93800000000E+00 0.  1.
         22    1    1    2    0    0  0.85960746029E-01 -0.22452643481E+00  0.24096631835E+01  0.24216271447E+01  0.00000000000E+00 0. -1.
</event>
<event>
 5    1  0.6776507E+001  0.1599608E+01  0.7818608E-02  0.3353789E+00
         11   -1    0    0    0    0  0.00000000000E+00  0.00000000000E+00  0.39999999674E+01  0.40000000000E+01  0.51100000000E-03 0.  1.
    9000002   -1    0    0    0    0 -0.00000000000E+00 -0.00000000000E+00  0.00000000000E+00  0.93800000000E+00  0.93800000000E+00 0. -1.
         11    1    1    2    0    0  0.21196599515E-01 -0.55698434036E-01  0.75831247315E+00  0.76065082622E+00  0.51100000000E-03 0.  1.
    9000002    1    1    2    0    0 -0.11878235054E+00  0.32781500793E+00  0.81559213831E-01  0.10040258122E+01  0.93800000000E+00 0. -1.
         22    1    1    2    0    0  0.97585751024E-01 -0.27211657389E+00  0.31601282804E+01  0.31733233616E+01  0.00000000000E+00 0.  1.
</event>
<event>
 5    1  0.6776507E+001  0.1599660E+01  0.7818608E-02  0.3353733E+00
         11   -1    0    0    0    0  0.00000000000E+00  0.00000000000E+00  0.39999999674E+01  0.40000000000E+01  0.51100000000E-03 0. -1.
    9000002   -1    0    0    0    0 -0.00000000000E+00 -0.00000000000E+00  0.00000000000E+00  0.93800000000E+00  0.93800000000E+00 0. -1.
         11    1    1    2    0    0 -0.84740486791E-02  0.12873252213E-01  0.11021028671E+00  0.11128386469E+00  0.51100000000E-03 0. -1.
    9000002    1    1    2    0    0  0.25947755276E+00 -0.40596281263E+00  0.15845043176E+00  0.10663418518E+01  0.93800000000E+00 0. -1.
         22    1    1    2    0    0 -0.25100350408E+00  0.39308956042E+00  0.37313392489E+01  0.37603742835E+01  0.00000000000E+00 0. -1.
</event>
<event>
 5    1  0.6776507E+001  0.1599676E+01  0.7818608E-02  0.3353715E+00
         11   -1    0    0    0    0  0.00000000000E+00  0.00000000000E+00  0.39999999674E+01  0.40000000000E+01  0.51100000000E-03 0.  1.
    9000002   -1    0    0    0    0 -0.00000000000E+00 -0.00000000000E+00  0.00000000000E+00  0.93800000000E+00  0.93800000000E+00 0.  1.
         11    1    1    2    0    0 -0.92345681440E-01  0.72266296462E-01  0.10554269678E+01  0.10619211308E+01  0.51100000000E-03 0.  1.
    9000002    1    1    2    0    0  0.33622548344E+00 -0.26259829866E+00  0.12320384907E+00  0.10377998991E+01  0.93800000000E+00 0.  1.
         22    1    1    2    0    0 -0.24387980200E+00  0.19033200220E+00  0.28213691505E+01  0.28382789701E+01  0.00000000000E+00 0.  1.
</event>
<event>
 5    1  0.6776507E+001  0.1577143E+01  0.7818608E-02  0.3378551E+00
         11   -1    0    0    0    0  0.00000000000E+00  0.00000000000E+00  0.39999999674E+01  0.40000000000E+01  0.51100000000E-03 0. -1.
    9000002   -1    0    0    0    0 -0.00000000000E+00 -0.00000000000E+00  0.00000000000E+00  0.93800000000E+00  0.93800000000E+00 0.  1.
         11    1    1    2    0    0 -0.99572857486E-01  0.68414988663E-01  0.11447769552E+01  0.11511341811E+01  0.51100000000E-03 0. -1.
    9000002    1    1    2    0    0 -0.21453624320E+00 -0.31747139321E+00  0.11759269371E+00  0.10200421201E+01  0.93800000000E+00 0.  1.
         22    1    1    2    0    0  0.31410910069E+00  0.24905640454E+00  0.27376303184E+01  0.27668236988E+01  0.00000000000E+00 0. -1.
</event>
<event>
 5    1  0.6776507E+001  0.1599656E+01  0.7818608E-02  0.3353737E+00
         11   -1    0    0    0    0  0.00000000000E+00  0.00000000000E+00  0.39999999674E+01  0.40000000000E+01  0.51100000000E-03 0. -1.
    9000002   -1    0    0    0    0 -0.00000000000E+00 -0.00000000000E+00  0.00000000000E+00  0.93800000000E+00  0.93800000000E+00 0.  1.
         11    1    1    2    0    0  0.59362233311E-01 -0.34965412337E-01  0.59946370033E+00  0.60340984740E+00  0.51100000000E-03 0. -1.
    9000002    1    1    2    0    0 -0.40695689246E+00  0.22778486206E+00  0.14810573238E+00  0.10579599065E+01  0.93800000000E+00 0.  1.
         22    1    1    2    0    0  0.34759465915E+00 -0.19281944972E+00  0.32524305346E+01  0.32766302461E+01  0.00000000000E+00 0. -1.
</event>
<event>
 5    1  0.6776507E+001  0.1544268E+01  0.7818608E-02  0.3416166E+00
         11   -1    0    0    0    0  0.00000000000E+00  0.00000000000E+00  0.39999999674E+01  0.40000000000E+01  0.51100000000E-03 0.  1.
    9000002   -1    0    0    0    0 -0.00000000000E+00 -0.00000000000E+00  0.00000000000E+00  0.93800000000E+00  0.93800000000E+00 0. -1.
         11    1    1    2    0    0  0.16950716955E+00  0.17681124799E+00  0.13437793675E+01  0.13659202567E+01  0.51100000000E-03 0.  1.
    9000002    1    1    2    0    0  0.12580630054E+00 -0.36506403217E-01  0.53188652998E-01  0.94859526435E+00  0.93800000000E+00 0. -1.
         22    1    1    2    0    0 -0.29531347009E+00 -0.14030484477E+00  0.26030319469E+01  0.26234844790E+01  0.00000000000E+00 0.  1.
</event>
<event>
 5    1  0.6776507E+001  0.1645993E+01  0.7818608E-02  0.3304909E+00
         11   -1    0    0    0    0  0.00000000000E+00  0.00000000000E+00  0.39999999674E+01  0.40000000000E+01  0.51100000000E-03 0.  1.
    9000002   -1    0    0    0    0 -0.00000000000E+00 -0.00000000000E+00  0.00000000000E+00  0.93800000000E+00  0.93800000000E+00 0.  1.
         11    1    1    2    0    0 -0.30619474860E+00 -0.29381509107E+00  0.22546153409E+00  0.48053688337E+00  0.51100000000E-03 0.  1.
    9000002    1    1    2    0    0 -0.17729967444E+00  0.29373118718E+00  0.44572803649E+00  0.10937233048E+01  0.93800000000E+00 0.  1.
         22    1    1    2    0    0  0.48349442304E+00  0.83903888419E-04  0.33288103968E+01  0.33637398119E+01  0.00000000000E+00 0.  1.
</event>
<event>
 5    1  0.6776507E+001  0.1599658E+01  0.7818608E-02  0.3353734E+00
         11   -1    0    0    0    0  0.00000000000E+00  0.00000000000E+00  0.39999999674E+01  0.40000000000E+01  0.51100000000E-03 0. -1.
    9000002   -1    0    0    0    0 -0.00000000000E+00 -0.00000000000E+00  0.00000000000E+00  0.93800000000E+00  0.93800000000E+00 0. -1.
         11    1    1    2    0    0 -0.77174683631E-01 -0.56026621253E-01  0.10305023770E+01  0.10349059494E+01  0.51100000000E-03 0. -1.
    9000002    1    1    2    0    0  0.29076764663E+00  0.22965557255E+00  0.92283286782E-01  0.10127426679E+01  0.93800000000E+00 0. -1.
         22    1    1    2    0    0 -0.21359296300E+00 -0.17362895130E+00  0.28772143036E+01  0.28903513827E+01  0.00000000000E+00 0. -1.
</event>
<event>
 5    1  0.6776507E+001  0.1599672E+01  0.7818608E-02  0.3353720E+00
         11   -1    0    0    0    0  0.00000000000E+00  0.00000000000E+00  0.39999999674E+01  0.40000000000E+01  0.51100000000E-03 0.  1.
    9000002   -1    0    0    0    0 -0.00000000000E+00 -0.00000000000E+00  0.00000000000E+00  0.93800000000E+00  0.93800000000E+00 0.  1.
         11    1    1    2    0    0  0.33872119450E-01  0.23268215239E-01  0.42888647133E+00  0.43085101454E+00  0.51100000000E-03 0.  1.
    9000002    1    1    2    0    0 -0.31006919487E+00 -0.19706049663E+00  0.90685409956E-01  0.10114561723E+01  0.93800000000E+00 0.  1.
         22    1    1    2    0    0  0.27619707542E+00  0.17379228139E+00  0.34804280861E+01  0.34956928131E+01  0.00000000000E+00 0.  1.
</event>
<event>
 5    1  0.6776507E+001  0.1560926E+01  0.7818608E-02  0.3396896E+00
         11   -1    0    0    0    0  0.00000000000E+00  0.00000000000E+00  0.39999999674E+01  0.40000000000E+01  0.51100000000E-03 0.  1.
    9000002   -1    0    0    0    0 -0.00000000000E+00 -0.00000000000E+00  0.00000000000E+00  0.93800000000E+00  0.93800000000E+00 0.  1.
         11    1    1    2    0    0  0.90731500838E-01  0.13915643887E+00  0.57276485170E+00  0.59636947959E+00  0.51100000000E-03 0.  1.
    9000002    1    1    2    0    0  0.26873533409E+00 -0.21676377308E+00  0.11168140588E+00  0.10057444753E+01  0.93800000000E+00 0.  1.
         22    1    1    2    0    0 -0.35946683493E+00  0.77607334218E-01  0.33155537098E+01  0.33358860451E+01  0.00000000000E+00 0.  1.
</event>
<event>
 5    1  0.6776507E+001  0.1599104E+01  0.7818608E-02  0.3354337E+00
         11   -1    0    0    0    0  0.00000000000E+00  0.00000000000E+00  0.39999999674E+01  0.40000000000E+01  0.51100000000E-03 0.  1.
    9000002   -1    0    0    0    0 -0.00000000000E+00 -0.00000000000E+00  0.00000000000E+00  0.93800000000E+00  0.93800000000E+00 0.  1.
         11    1    1    2    0    0  0.32038002219E-02  0.95948470456E-02  0.16955227538E+00  0.16985452786E+00  0.51100000000E-03 0.  1.
    9000002    1    1    2    0    0  0.18480931094E+00 -0.30117508077E+00  0.84214303797E-01  0.10058811857E+01  0.93800000000E+00 0.  1.
         22    1    1    2    0    0 -0.18801311116E+00  0.29158023373E+00  0.37462333882E+01  0.37622642865E+01  0.00000000000E+00 0.  1.
</event>
<event>
 5    1  0.6776507E+001  0.1599181E+01  0.7818608E-02  0.3354253E+00
         11   -1    0    0    0    0  0.00000000000E+00  0.00000000000E+00  0.39999999674E+01  0.40000000000E+01  0.51100000000E-03 0. -1.
    9000002   -1    0    0    0    0 -0.00000000000E+00 -0.00000000000E+00  0.00000000000E+00  0.93800000000E+00  0.93800000000E+00 0. -1.
         11    1    1    2    0    0  0.12463367539E+00 -0.38279883129E-01  0.97842413672E+00  0.98707292280E+00  0.51100000000E-03 0. -1.
    9000002    1    1    2    0    0 -0.40224674359E+00  0.16994596813E+00  0.12968417454E+00  0.10427588695E+01  0.93800000000E+00 0. -1.
         22    1    1    2    0    0  0.27761306820E+00 -0.13166608500E+00  0.28918916561E+01  0.29081682077E+01  0.00000000000E+00 0. -1.
</event>
<event>
 5    1  0.6776507E+001  0.1599065E+01  0.7818608E-02  0.3354378E+00
         11   -1    0    0    0    0  0.00000000000E+00  0.00000000000E+00  0.39999999674E+01  0.40000000000E+01  0.51100000000E-03 0.  1.
    9000002   -1    0    0    0    0 -0.00000000000E+00 -0.00000000000E+00  0.00000000000E+00  0.93800000000E+00  0.93800000000E+00 0.  1.
         11    1    1    2    0    0 -0.60815493032E-01 -0.40110314339E-01  0.49578110668E+00  0.50110530666E+00  0.51100000000E-03 0.  1.
    9000002    1    1    2    0    0  0.37606668396E+00  0.19317579189E+00  0.12144796459E+00  0.10360196163E+01  0.93800000000E+00 0.  1.
         22    1    1    2    0    0 -0.31525119093E+00 -0.15306547755E+00  0.33827708961E+01  0.34008750770E+01  0.00000000000E+00 0.  1.
</event>
<event>
 5    1  0.6776507E+001  0.1599663E+01  0.7818608E-02  0.3353729E+00
         11   -1    0    0    0    0  0.00000000000E+00  0.00000000000E+00  0.39999999674E+01  0.40000000000E+01  0.51100000000E-03 0. -1.
    9000002   -1    0    0    0    0 -0.00000000000E+00 -0.00000000000E+00  0.00000000000E+00  0.93800000000E+00  0.93800000000E+00 0. -1.
         11    1    1    2    0    0  0.12543467736E+00  0.65885320100E-01  0.12365614027E+01  0.12446521994E+01  0.51100000000E-03 0. -1.
    9000002    1    1    2    0    0 -0.38938407451E+00 -0.21885901400E+00  0.13545641160E+00  0.10477173593E+01  0.93800000000E+00 0. -1.
         22    1    1    2    0    0  0.26394939715E+00  0.15297369390E+00  0.26279821531E+01  0.26456304414E+01  0.00000000000E+00 0. -1.
</event>
<event>
 5    1  0.6776507E+001  0.1599618E+01  0.7818608E-02  0.3353778E+00
         11   -1    0    0    0    0  0.00000000000E+00  0.00000000000E+00  0.39999999674E+01  0.40000000000E+01  0.51100000000E-03 0.  1.
    9000002   -1    0    0    0    0 -0.00000000000E+00 -0.00000000000E+00  0.00000000000E+00  0.93800000000E+00  0.93800000000E+00 0. -1.
         11    1    1    2    0    0 -0.72431468657E-01  0.62449444118E-01  0.82534021528E+00  0.83086279421E+00  0.51100000000E-03 0.  1.
    9000002    1    1    2    0    0  0.30715810109E+00 -0.30724978102E+00  0.12795812142E+00  0.10416169199E+01  0.93800000000E+00 0. -1.
         22    1    1    2    0    0 -0.23472663243E+00  0.24480033690E+00  0.30467016307E+01  0.30655202859E+01  0.00000000000E+00 0.  1.
</event>
<event>
 5    1  0.6776507E+001  0.1598971E+01  0.7818608E-02  0.3354481E+00
         11   -1    0    0    0    0  0.00000000000E+00  0.00000000000E+00  0.39999999674E+01  0.40000000000E+01  0.51100000000E-03 0. -1.
    9000002   -1    0    0    0    0 -0.00000000000E+00 -0.00000000000E+00  0.00000000000E+00  0.93800000000E+00  0.93800000000E+00 0.  1.
         11    1    1    2    0    0  0.16451025802E-02  0.42741717637E-01  0.24752382815E+00  0.25119288885E+00  0.51100000000E-03 0. -1.
    9000002    1    1    2    0    0 -0.16973585962E+00 -0.46439867653E+00  0.16783579968E+00  0.10735405202E+01  0.93800000000E+00 0.  1.
         22    1    1    2    0    0  0.16809075704E+00  0.42165695890E+00  0.35846403395E+01  0.36132665910E+01  0.00000000000E+00 0. -1.
</event>
<event>
 5    1  0.6776507E+001  0.1599549E+01  0.7818608E-02  0.3353854E+00
         11   -1    0    0    0    0  0.00000000000E+00  0.00000000000E+00  0.39999999674E+01  0.40000000000E+01  0.51100000000E-03 0.  1.
    9000002   -1    0    0    0    0 -0.00000000000E+00 -0.00000000000E+00  0.00000000000E+00  0.93800000000E+00  0.93800000000E+00 0.  1.
         11    1    1    2    0    0 -0.29344340409E-01 -0.16557685036E+00  0.93707171075E+00  0.95204014406E+00  0.51100000000E-03 0.  1.
    9000002    1    1    2    0    0  0.85534590514E-01  0.62191734883E+00  0.27678398515E+00  0.11621319759E+01  0.93800000000E+00 0.  1.
         22    1    1    2    0    0 -0.56190250105E-01 -0.45634049848E+00  0.27861442715E+01  0.28238278800E+01  0.00000000000E+00 0.  1.
</event>
<event>
 5    1  0.6776507E+001  0.1599331E+01  0.7818608E-02  0.3354090E+00
         11   -1    0    0    0    0  0.00000000000E+00  0.00000000000E+00  0.39999999674E+01  0.40000000000E+01  0.51100000000E-03 0. -1.
    9000002   -1    0    0    0    0 -0.00000000000E+00 -0.00000000000E+00  0.00000000000E+00  0.93800000000E+00  0.93800000000E+00 0. -1.
         11    1    1    2    0    0 -0.94396928308E-02  0.39270430944E-01  0.30732798852E+00  0.30997101186E+00  0.51100000000E-03 0. -1.
    9000002    1    1    2    0    0  0.20325572071E+00 -0.36807104241E+00  0.11986318153E+00  0.10348914738E+01  0.93800000000E+00 0. -1.
         22    1    1    2    0    0 -0.19381602788E+00  0.32880061147E+00  0.35728087973E+01  0.35931375143E+01  0.00000000000E+00 0. -1.
</event>
<event>
 5    1  0.6776507E+001  0.1599676E+01  0.7818608E-02  0.3353715E+00
         11   -1    0    0    0    0  0.00000000000E+00  0.00000000000E+00  0.39999999674E+01  0.40000000000E+01  0.51100000000E-03 0.  1.
    9000002   -1    0    0    0    0 -0.00000000000E+00 -0.00000000000E+00  0.00000000000E+00  0.93800000000E+00  0.93800000000E+00 0. -1.
         11    1    1    2    0    0  0.51518631972E-01  0.14670679771E+00  0.14910169932E+01  0.14991027280E+01  0.51100000000E-03 0.  1.
    9000002    1    1    2    0    0 -0.13404377400E+00 -0.38472702109E+00  0.11206669835E+00  0.10287786735E+01  0.93800000000E+00 0. -1.
         22    1    1    2    0    0  0.82525142032E-01  0.23802022338E+00  0.23969162758E+01  0.24101185985E+01  0.00000000000E+00 0. -1.
</event>
<event>
 5    1  0.6776507E+001  0.1599676E+01  0.7818608E-02  0.3353715E+00
         11   -1    0    0    0    0  0.00000000000E+00  0.00000000000E+00  0.39999999674E+01  0.40000000000E+01  0.51100000000E-03 0. -1.
    9000002   -1    0    0    0    0 -0.00000000000E+00 -0.00000000000E+00  0.00000000000E+00  0.93800000000E+00  0.93800000000E+00 0. -1.
         11    1    1    2    0    0  0.35699592987E+00 -0.15134349614E+00  0.10021500376E+01  0.10745491644E+01  0.51100000000E-03 0. -1.
    9000002    1    1    2    0    0 -0.10310718893E+01  0.43683307858E+00  0.10978506348E+01  0.18273074169E+01  0.93800000000E+00 0. -1.
         22    1    1    2    0    0  0.67407595940E+00 -0.28548958244E+00  0.18999992949E+01  0.20361434187E+01  0.00000000000E+00 0. -1.
</event>
<event>
 5    1  0.6776507E+001  0.1588596E+01  0.7818608E-02  0.3365835E+00
         11   -1    0    0    0    0  0.00000000000E+00  0.00000000000E+00  0.39999999674E+01  0.40000000000E+01  0.51100000000E-03 0. -1.
    9000002   -1    0    0    0    0 -0.00000000000E+00 -0.00000000000E+00  0.00000000000E+00  0.93800000000E+00  0.93800000000E+00 0. -1.
         11    1    1    2    0    0 -0.88917400092E-03  0.21451273332E-01  0.16838031734E+00  0.16974433760E+00  0.51100000000E-03 0. -1.
    9000002    1    1    2    0    0  0.81697749839E+00  0.34122822182E+00  0.61313581124E+00  0.14281696171E+01  0.93800000000E+00 0. -1.
         22    1    1    2    0    0 -0.81608832439E+00 -0.36267949515E+00  0.32184838388E+01  0.33400860453E+01  0.00000000000E+00 0. -1.
</event>
<event>
 5    1  0.6776507E+001  0.1599184E+01  0.7818608E-02  0.3354249E+00
         11   -1    0    0    0    0  0.00000000000E+00  0.00000000000E+00  0.39999999674E+01  0.40000000000E+01  0.51100000000E-03 0.  1.
    9000002   -1    0    0    0    0 -0.00000000000E+00 -0.00000000000E+00  0.00000000000E+00  0.93800000000E+00  0.93800000000E+00 0. -1.
         11    1    1    2    0    0 -0.74720630087E-02  0.13649737293E-01  0.10638860709E+00  0.10752182984E+00  0.51100000000E-03 0.  1.
    9000002    1    1    2    0    0  0.40518038286E+00 -0.20778145597E+00  0.14136444662E+00  0.10522224968E+01  0.93800000000E+00 0. -1.
         22    1    1    2    0    0 -0.39770831985E+00  0.19413171868E+00  0.37522469137E+01  0.37782556733E+01  0.00000000000E+00 0.  1.
</event>
<event>
 5    1  0.6776507E+001  0.1599560E+01  0.7818608E-02  0.3353841E+00
         11   -1    0    0    0    0  0.00000000000E+00  0.00000000000E+00  0.39999999674E+01  0.40000000000E+01  0.51100000000E-03 0.  1.
    9000002   -1    0    0    0    0 -0.00000000000E+00 -0.00000000000E+00  0.00000000000E+00  0.93800000000E+00  0.93800000000E+00 0. -1.
         11    1    1    2    0    0  0.25284420819E-02  0.53813352608E-01  0.67847013063E+00  0.68060579576E+00  0.51100000000E-03 0.  1.
    9000002    1    1    2    0    0 -0.48021229521E-01 -0.35639523762E+00  0.86900775382E-01  0.10083250213E+01  0.93800000000E+00 0. -1.
         22    1    1    2    0    0  0.45492787439E-01  0.30258188501E+00  0.32346290613E+01  0.32490691829E+01  0.00000000000E+00 0.  1.
</event>
<event>
 5    1  0.6776507E+001  0.1598674E+01  0.7818608E-02  0.3354804E+00
         11   -1    0    0    0    0  0.00000000000E+00  0.00000000000E+00  0.39999999674E+01  0.40000000000E+01  0.51100000000E-03 0. -1.
    9000002   -1    0    0    0    0 -0.00000000000E+00 -0.00000000000E+00  0.00000000000E+00  0.93800000000E+00  0.93800000000E+00 0. -1.
         11    1    1    2    0    0 -0.50915135944E-01 -0.12438843716E-01  0.68979311636E+00  0.69178167104E+00  0.51100000000E-03 0. -1.
    9000002    1    1    2    0    0  0.32942322507E+00 -0.89392736440E-01  0.78852098899E-01  0.10012853619E+01  0.93800000000E+00 0. -1.
         22    1    1    2    0    0 -0.27850808913E+00  0.10183158016E+00  0.32313547521E+01  0.32449329670E+01  0.00000000000E+00 0. -1.
</event>
<event>
 5    1  0.6776507E+001  0.1599675E+01  0.7818608E-02  0.3353717E+00
         11   -1    0    0    0    0  0.00000000000E+00  0.00000000000E+00  0.39999999674E+01  0.40000000000E+01  0.51100000000E-03 0. -1.
    9000002   -1    0    0    0    0 -0.00000000000E+00 -0.00000000000E+00  0.00000000000E+00  0.93800000000E+00  0.93800000000E+00 0. -1.
         11    1    1    2    0    0  0.13146533485E+00  0.95140017305E-01  0.13455264734E+01  0.13552772812E+01  0.51100000000E-03 0. -1.
    9000002    1    1    2    0    0 -0.37879737576E+00 -0.26784436938E+00  0.14648785032E+00  0.10566601859E+01  0.93800000000E+00 0. -1.
         22    1    1    2    0    0  0.24733204091E+00  0.17270435207E+00  0.25079856436E+01  0.25260625329E+01  0.00000000000E+00 0. -1.
</event>
<event>
 5    1  0.6776507E+001  0.1599673E+01  0.7818608E-02  0.3353719E+00
         11   -1    0    0    0    0  0.00000000000E+00  0.00000000000E+00  0.39999999674E+01  0.40000000000E+01  0.51100000000E-03 0. -1.
    9000002   -1    0    0    0    0 -0.00000000000E+00 -0.00000000000E+00  0.00000000000E+00  0.93800000000E+00  0.93800000000E+00 0.  1.
         11    1    1    2    0    0 -0.10238929352E+00  0.24059927987E-01  0.34228281612E+00  0.35807853174E+00  0.51100000000E-03 0. -1.
    9000002    1    1    2    0    0  0.96191179639E+00 -0.21304640879E+00  0.77445168339E+00  0.15653378186E+01  0.93800000000E+00 0.  1.
         22    1    1    2    0    0 -0.85952250287E+00  0.18898648080E+00  0.28832654679E+01  0.30145836497E+01  0.00000000000E+00 0. -1.
</event>
<event>
 5    1  0.6776507E+001  0.1563989E+01  0.7818608E-02  0.3393400E+00
         11   -1    0    0    0    0  0.00000000000E+00  0.00000000000E+00  0.39999999674E+01  0.40000000000E+01  0.51100000000E-03 0. -1.
    9000002   -1    0    0    0    0 -0.00000000000E+00 -0.00000000000E+00  0.00000000000E+00  0.93800000000E+00  0.93800000000E+00 0. -1.
         11    1    1    2    0    0  0.11151300345E+00 -0.18182671087E+00  0.78922980542E+00  0.81754513613E+00  0.51100000000E-03 0. -1.
    9000002    1    1    2    0    0 -0.35480164737E+00  0.10663515242E-01  0.11393695373E+00  0.10093678957E+01  0.93800000000E+00 0. -1.
         22    1    1    2    0    0  0.24328864391E+00  0.17116319563E+00  0.30968332082E+01  0.31110869681E+01  0.00000000000E+00 0. -1.
</event>
<event>
 5    1  0.6776507E+001  0.1599666E+01  0.7818608E-02  0.3353726E+00
         11   -1    0    0    0    0  0.00000000000E+00  0.00000000000E+00  0.39999999674E+01  0.40000000000E+01  0.51100000000E-03 0. -1.
    9000002   -1    0    0    0    0 -0.00000000000E+00 -0.00000000000E+00  0.00000000000E+00  0.93800000000E+00  0.93800000000E+00 0.  1.
         11    1    1    2    0    0  0.19640233710E-01  0.56857117349E-01  0.63279848983E+00  0.63565136704E+00  0.51100000000E-03 0. -1.
    9000002    1    1    2    0    0 -0.12677455914E+00 -0.36719154784E+00  0.10164675370E+00  0.10203320460E+01  0.93800000000E+00 0.  1.
         22    1    1    2    0    0  0.10713432543E+00  0.31033443049E+00  0.32655547238E+01  0.32820165869E+01  0.00000000000E+00 0. -1.
</event>
<event>
 5    1  0.6776507E+001  0.1578712E+01  0.7818608E-02  0.3376798E+00
         11   -1    0    0    0    0  0.00000000000E+00  0.00000000000E+00  0.39999999674E+01  0.40000000000E+01  0.51100000000E-03 0.  1.
    9000002   -1    0    0    0    0 -0.00000000000E+00 -0.00000000000E+00  0.00000000000E+00  0.93800000000E+00  0.93800000000E+00 0. -1.
         11    1    1    2    0    0  0.30957975904E+00 -0.15330496202E-01  0.79779034986E+00  0.85588805038E+00  0.51100000000E-03 0.  1.
    9000002    1    1    2    0    0 -0.72060023128E+00  0.86234798964E-01  0.40386962818E+00  0.12528590545E+01  0.93800000000E+00 0. -1.
         22    1    1    2    0    0  0.41102047224E+00 -0.70904302761E-01  0.27983399893E+01  0.28292528951E+01  0.00000000000E+00 0.  1.
</event>
<event>
 5    1  0.6776507E+001  0.1599672E+01  0.7818608E-02  0.3353720E+00
         11   -1    0    0    0    0  0.00000000000E+00  0.00000000000E+00  0.39999999674E+01  0.40000000000E+01  0.51100000000E-03 0.  1.
    9000002   -1    0    0    0    0 -0.00000000000E+00 -0.00000000000E+00  0.00000000000E+00  0.93800000000E+00  0.93800000000E+00 0.  1.
         11    1    1    2    0    0 -0.15876913413E+00 -0.16348696844E+00  0.12741758125E+01  0.12943955690E+01  0.51100000000E-03 0.  1.
    9000002    1    1    2    0    0  0.46706896725E+00  0.47205104499E+00  0.31225582962E+00  0.11909379969E+01  0.93800000000E+00 0.  1.
         22    1    1    2    0    0 -0.30829983312E+00 -0.30856407655E+00  0.24135683252E+01  0.24526664341E+01  0.00000000000E+00 0.  1.
</event>
<event>
 5    1  0.8487128E+001  0.1598251E+01  0.7818608E-02  0.3355264E+00
         11   -1    0    0    0    0  0.00000000000E+00  0.00000000000E+00  0.39999999674E+01  0.40000000000E+01  0.51100000000E-03 0. -1.
    9000002   -1    0    0    0    0 -0.00000000000E+00 -0.00000000000E+00  0.00000000000E+00  0.93800000000E+00  0.93800000000E+00 0. -1.
         11    1    1    2    0    0 -0.89451181324E-01 -0.34336155512E-01  0.12682651810E+01  0.12718794424E+01  0.51100000000E-03 0. -1.
    9000002    1    1    2    0    0  0.24838126176E+00  0.23460112900E+00  0.79341584755E-01  0.10014339858E+01  0.93800000000E+00 0. -1.
         22    1    1    2    0    0 -0.15893008044E+00 -0.20026497349E+00  0.26523932016E+01  0.26646865718E+01  0.00000000000E+00 0. -1.
</event>
<event>
 5    1  0.6776507E+001  0.1599278E+01  0.7818608E-02  0.3354147E+00
         11   -1    0    0    0    0  0.00000000000E+00  0.00000000000E+00  0.39999999674E+01  0.40000000000E+01  0.51100000000E-03 0. -1.
    9000002   -1    0    0    0    0 -0.00000000000E+00 -0.00000000000E+00  0.00000000000E+00  0.93800000000E+00  0.93800000000E+00 0. -1.
         11    1    1    2    0    0 -0.77964521717E-02 -0.26221904790E-01  0.45099658605E+00  0.45182580128E+00  0.51100000000E-03 0. -1.
    9000002    1    1    2    0    0  0.11119825383E+00  0.35322022919E+00  0.92484797896E-01  0.10126830796E+01  0.93800000000E+00 0. -1.
         22    1    1    2    0    0 -0.10340180166E+00 -0.32699832440E+00  0.34565185834E+01  0.34734911191E+01  0.00000000000E+00 0. -1.
</event>
<event>
 5    1  0.6776507E+001  0.1599676E+01  0.7818608E-02  0.3353716E+00
         11   -1    0    0    0    0  0.00000000000E+00  0.00000000000E+00  0.39999999674E+01  0.40000000000E+01  0.51100000000E-03 0.  1.
    9000002   -1    0    0    0    0 -0.00000000000E+00 -0.00000000000E+00  0.00000000000E+00  0.93800000000E+00  0.93800000000E+00 0.  1.
         11    1    1    2    0    0 -0.14248608879E+00  0.52300889711E-01  0.12504768122E+01  0.12596547890E+01  0.51100000000E-03 0.  1.
    9000002    1    1    2    0    0  0.43600926383E+00 -0.15844393939E+00  0.14647317177E+00  0.10566489247E+01  0.93800000000E+00 0.  1.
         22    1    1    2    0    0 -0.29352317504E+00  0.10614304968E+00  0.26030499834E+01  0.26216962863E+01  0.00000000000E+00 0.  1.
</event>
<event>
 5    1  0.6776507E+001  0.1544464E+01  0.7818608E-02  0.3415937E+00
         11   -1    0    0    0    0  0.00000000000E+00  0.00000000000E+00  0.39999999674E+01  0.40000000000E+01  0.51100000000E-03 0. -1.
    9000002   -1    0    0    0    0 -0.00000000000E+00 -0.00000000000E+00  0.00000000000E+00  0.93800000000E+00  0.93800000000E+00 0.  1.
         11    1    1    2    0    0  0.13816633242E+00  0.20407127269E+00  0.14593784531E+01  0.14800407934E+01  0.51100000000E-03 0. -1.
    9000002    1    1    2    0    0  0.14550025683E+00 -0.26842363915E-01  0.56345561184E-01  0.95126739643E+00  0.93800000000E+00 0.  1.
         22    1    1    2    0    0 -0.28366658925E+00 -0.17722890877E+00  0.24842759531E+01  0.25066918102E+01  0.00000000000E+00 0. -1.
</event>
<event>
 5    1  0.6776507E+001  0.1599670E+01  0.7818608E-02  0.3353722E+00
         11   -1    0    0    0    0  0.00000000000E+00  0.00000000000E+00  0.39999999674E+01  0.40000000000E+01  0.51100000000E-03 0. -1.
    9000002   -1    0    0    0    0 -0.00000000000E+00 -0.00000000000E+00  0.00000000000E+00  0.93800000000E+00  0.93800000000E+00 0.  1.
         11    1    1    2    0    0  0.80926831195E-01 -0.12883243773E-01  0.85215901610E+00  0.85609017038E+00  0.51100000000E-03 0. -1.
    9000002    1    1    2    0    0 -0.38025197563E+00  0.51507250334E-01  0.99123046771E-01  0.10182897133E+01  0.93800000000E+00 0.  1.
         22    1    1    2    0    0  0.29932514444E+00 -0.38624006561E-01  0.30487179045E+01  0.30636201163E+01  0.00000000000E+00 0. -1.
</event>
<event>
 5    1  0.6776507E+001  0.1582551E+01  0.7818608E-02  0.3372522E+00
         11   -1    0    0    0    0  0.00000000000E+00  0.00000000000E+00  0.39999999674E+01  0.40000000000E+01  0.51100000000E-03 0.  1.
    9000002   -1    0    0    0    0 -0.00000000000E+00 -0.00000000000E+00  0.00000000000E+00  0.93800000000E+00  0.93800000000E+00 0.  1.
         11    1    1    2    0    0  0.23407679966E+00 -0.12990080605E+00  0.89047977120E+00  0.92984980056E+00  0.51100000000E-03 0.  1.
    9000002    1    1    2    0    0 -0.10468915160E+01  0.16193404679E-01  0.94657051639E+00  0.16947223416E+01  0.93800000000E+00 0.  1.
         22    1    1    2    0    0  0.81281471634E+00  0.11370740137E+00  0.21629496798E+01  0.23134278578E+01  0.00000000000E+00 0.  1.
</event>
<event>
 5    1  0.6776507E+001  0.1599626E+01  0.7818608E-02  0.3353770E+00
         11   -1    0    0    0    0  0.00000000000E+00  0.00000000000E+00  0.39999999674E+01  0.40000000000E+01  0.51100000000E-03 0. -1.
    9000002   -1    0    0    0    0 -0.00000000000E+00 -0.00000000000E+00  0.00000000000E+00  0.93800000000E+00  0.93800000000E+00 0. -1.
         11    1    1    2    0    0  0.10420538600E-01 -0.19629848414E-01  0.15883510110E+00  0.16038319437E+00  0.51100000000E-03 0. -1.
    9000002    1    1    2    0    0 -0.32272309147E+00  0.43372062210E+00  0.20155946100E+00  0.11012420207E+01  0.93800000000E+00 0. -1.
         22    1    1    2    0    0  0.31230255287E+00 -0.41409077369E+00  0.36396054053E+01  0.36763747849E+01  0.00000000000E+00 0. -1.
</event>
<event>
 5    1  0.6776507E+001  0.1597021E+01  0.7818608E-02  0.3356603E+00
         11   -1    0    0    0    0  0.00000000000E+00  0.00000000000E+00  0.39999999674E+01  0.40000000000E+01  0.51100000000E-03 0. -1.
    9000002   -1    0    0    0    0 -0.00000000000E+00 -0.00000000000E+00  0.00000000000E+00  0.93800000000E+00  0.93800000000E+00 0. -1.
         11    1    1    2    0    0 -0.67740192139E-01 -0.19202128413E+00  0.13931071990E+01  0.14079093850E+01  0.51100000000E-03 0. -1.
    9000002    1    1    2    0    0  0.58849896957E-01  0.42936134118E+00  0.12952296890E+00  0.10413619309E+01  0.93800000000E+00 0. -1.
         22    1    1    2    0    0  0.88902951816E-02 -0.23734005705E+00  0.24773697994E+01  0.24887286841E+01  0.00000000000E+00 0. -1.
</event>
<event>
 5    1  0.6776507E+001  0.1539504E+01  0.7818608E-02  0.3421760E+00
         11   -1    0    0    0    0  0.00000000000E+00  0.00000000000E+00  0.39999999674E+01  0.40000000000E+01  0.51100000000E-03 0. -1.
    9000002   -1    0    0    0    0 -0.00000000000E+00 -0.00000000000E+00  0.00000000000E+00  0.93800000000E+00  0.93800000000E+00 0. -1.
         11    1    1    2    0    0  0.11278384338E+00  0.15478090798E+00  0.60005277246E+00  0.62987372994E+00  0.51100000000E-03 0. -1.
    9000002    1    1    2    0    0 -0.24112798203E-01  0.18825117217E+00  0.70197004789E-01  0.95957884009E+00  0.93800000000E+00 0. -1.
         22    1    1    2    0    0 -0.88671045182E-01 -0.34303208015E+00  0.33297501901E+01  0.33485474300E+01  0.00000000000E+00 0. -1.
</event>
<event>
 5    1  0.6776507E+001  0.1598254E+01  0.7818608E-02  0.3355260E+00
         11   -1    0    0    0    0  0.00000000000E+00  0.00000000000E+00  0.39999999674E+01  0.40000000000E+01  0.51100000000E-03 0.  1.
    9000002   -1    0    0    0    0 -0.00000000000E+00 -0.00000000000E+00  0.00000000000E+00  0.93800000000E+00  0.93800000000E+00 0. -1.
         11    1    1    2    0    0 -0.63767440894E-01 -0.12138130215E+00  0.89485387805E+00  0.90529742693E+00  0.51100000000E-03 0.  1.
    9000002    1    1    2    0    0  0.16350169162E+00  0.40194008614E+00  0.12880054914E+00  0.10414999844E+01  0.93800000000E+00 0. -1.
         22    1    1    2    0    0 -0.99734250729E-01 -0.28055878399E+00  0.29763455402E+01  0.29912025887E+01  0.00000000000E+00 0.  1.
</event>
<event>
 5    1  0.6776507E+001  0.1599651E+01  0.7818608E-02  0.3353743E+00
         11   -1    0    0    0    0  0.00000000000E+00  0.00000000000E+00  0.39999999674E+01  0.40000000000E+01  0.51100000000E-03 0. -1.
    9000002   -1    0    0    0    0 -0.00000000000E+00 -0.00000000000E+00  0.00000000000E+00  0.93800000000E+00  0.93800000000E+00 0. -1.
         11    1    1    2    0    0 -0.47954459418E-01 -0.33572150226E+00  0.14022742428E+01  0.14426995080E+01  0.51100000000E-03 0. -1.
    9000002    1    1    2    0    0  0.13322792263E+00  0.83342156153E+00  0.53307921624E+00  0.13698024052E+01  0.93800000000E+00 0. -1.
         22    1    1    2    0    0 -0.85273463216E-01 -0.49770005927E+00  0.20646465083E+01  0.21254980868E+01  0.00000000000E+00 0. -1.
</event>
<event>
 5    1  0.6776507E+001  0.1599563E+01  0.7818608E-02  0.3353838E+00
         11   -1    0    0    0    0  0.00000000000E+00  0.00000000000E+00  0.39999999674E+01  0.40000000000E+01  0.51100000000E-03 0. -1.
    9000002   -1    0    0    0    0 -0.00000000000E+00 -0.00000000000E+00  0.00000000000E+00  0.93800000000E+00  0.93800000000E+00 0.  1.
         11    1    1    2    0    0 -0.67963773058E-01 -0.11054758102E-01  0.50264212271E+00  0.50733681788E+00  0.51100000000E-03 0. -1.
    9000002    1    1    2    0    0  0.46798543699E+00  0.43764023466E-01  0.15060489393E+00  0.10599299472E+01  0.93800000000E+00 0.  1.
         22    1    1    2    0    0 -0.40002166393E+00 -0.32709265363E-01  0.33467529507E+01  0.33707332349E+01  0.00000000000E+00 0. -1.
</event>
<event>
 5    1  0.6776507E+001  0.1599674E+01  0.7818608E-02  0.3353717E+00
         11   -1    0    0    0    0  0.00000000000E+00  0.00000000000E+00  0.39999999674E+01  0.40000000000E+01  0.51100000000E-03 0. -1.
    9000002   -1    0    0    0    0 -0.00000000000E+00 -0.00000000000E+00  0.00000000000E+00  0.93800000000E+00  0.93800000000E+00 0. -1.
         11    1    1    2    0    0 -0.79586031371E-01 -0.12608437858E+00  0.14591040493E+01  0.14667024561E+01  0.51100000000E-03 0. -1.
    9000002    1    1    2    0    0  0.20885348287E+00  0.34042716115E+00  0.10758698085E+00  0.10251484711E+01  0.93800000000E+00 0. -1.
         22    1    1    2    0    0 -0.12926745150E+00 -0.21434278258E+00  0.24333089372E+01  0.24461490728E+01  0.00000000000E+00 0. -1.
</event>
<event>
 5    1  0.6776507E+001  0.1599561E+01  0.7818608E-02  0.3353840E+00
         11   -1    0    0    0    0  0.00000000000E+00  0.00000000000E+00  0.39999999674E+01  0.40000000000E+01  0.51100000000E-03 0. -1.
    9000002   -1    0    0    0    0 -0.00000000000E+00 -0.00000000000E+00  0.00000000000E+00  0.93800000000E+00  0.93800000000E+00 0.  1.
         11    1    1    2    0    0 -0.10742736239E+00 -0.13326852706E-01  0.11140607722E+01  0.11193077809E+01  0.51100000000E-03 0. -1.
    9000002    1    1    2    0    0  0.35669492111E+00  0.82443308195E-01  0.90125392378E-01  0.10109375610E+01  0.93800000000E+00 0.  1.
         22    1    1    2    0    0 -0.24926755872E+00 -0.69116455489E-01  0.27958138028E+01  0.28077546581E+01  0.00000000000E+00 0. -1.
</event>
<event>
 5    1  0.6776507E+001  0.1596721E+01  0.7818608E-02  0.3356930E+00
         11   -1    0    0    0    0  0.00000000000E+00  0.00000000000E+00  0.39999999674E+01  0.40000000000E+01  0.51100000000E-03 0. -1.
    9000002   -1    0    0    0    0 -0.00000000000E+00 -0.00000000000E+00  0.00000000000E+00  0.93800000000E+00  0.93800000000E+00 0. -1.
         11    1    1    2    0    0  0.31062654816E+00  0.25698199834E-01  0.13144409411E+01  0.13508902615E+01  0.51100000000E-03 0. -1.
    9000002    1    1    2    0    0 -0.69339973202E+00 -0.19398160427E-01  0.34659782445E+00  0.12170265112E+01  0.93800000000E+00 0. -1.
         22    1    1    2    0    0  0.38277318386E+00 -0.63000394063E-02  0.23389612019E+01  0.23700832273E+01  0.00000000000E+00 0. -1.
</event>
<event>
 5    1  0.6776507E+001  0.1456660E+01  0.7818608E-02  0.3525321E+00
         11   -1    0    0    0    0  0.00000000000E+00  0.00000000000E+00  0.39999999674E+01  0.40000000000E+01  0.51100000000E-03 0.  1.
    9000002   -1    0    0    0    0 -0.00000000000E+00 -0.00000000000E+00  0.00000000000E+00  0.93800000000E+00  0.93800000000E+00 0. -1.
         11    1    1    2    0    0 -0.87709327159E-01 -0.13668909576E+00  0.70061978513E-01  0.17687785877E+00  0.51100000000E-03 0.  1.
    9000002    1    1    2    0    0 -0.40797728433E+00  0.29652555172E+00  0.31747583855E+00  0.11113090369E+01  0.93800000000E+00 0. -1.
         22    1    1    2    0    0  0.49568661149E+00 -0.15983645596E+00  0.36124621503E+01  0.36498131044E+01  0.00000000000E+00 0.  1.
</event>
<event>
 5    1  0.6776507E+001  0.1599666E+01  0.7818608E-02  0.3353726E+00
         11   -1    0    0    0    0  0.00000000000E+00  0.00000000000E+00  0.39999999674E+01  0.40000000000E+01  0.51100000000E-03 0. -1.
    9000002   -1    0    0    0    0 -0.00000000000E+00 -0.00000000000E+00  0.00000000000E+00  0.93800000000E+00  0.93800000000E+00 0.  1.
         11    1    1    2    0    0 -0.56972990843E-01 -0.33888326008E-01  0.67193906509E+00  0.67520123567E+00  0.51100000000E-03 0. -1.
    9000002    1    1    2    0    0  0.31950047562E+00  0.18439012802E+00  0.91448222315E-01  0.10120706747E+01  0.93800000000E+00 0.  1.
         22    1    1    2    0    0 -0.26252748478E+00 -0.15050180201E+00  0.32366126800E+01  0.32507280896E+01  0.00000000000E+00 0. -1.
</event>
<event>
 5    1  0.6776507E+001  0.1545376E+01  0.7818608E-02  0.3414872E+00
         11   -1    0    0    0    0  0.00000000000E+00  0.00000000000E+00  0.39999999674E+01  0.40000000000E+01  0.51100000000E-03 0. -1.
    9000002   -1    0    0    0    0 -0.00000000000E+00 -0.00000000000E+00  0.00000000000E+00  0.93800000000E+00  0.93800000000E+00 0.  1.
         11    1    1    2    0    0  0.19702690967E+00 -0.75617734365E-01  0.78562053998E+00  0.81347251880E+00  0.51100000000E-03 0. -1.
    9000002    1    1    2    0    0  0.12947934103E+00  0.21628930595E+00  0.84974543034E-01  0.97499263412E+00  0.93800000000E+00 0.  1.
         22    1    1    2    0    0 -0.32650625070E+00 -0.14067157158E+00  0.31294048844E+01  0.31495348471E+01  0.00000000000E+00 0. -1.
</event>
<event>
 5    1  0.6776507E+001  0.1599676E+01  0.7818608E-02  0.3353715E+00
         11   -1    0    0    0    0  0.00000000000E+00  0.00000000000E+00  0.39999999674E+01  0.40000000000E+01  0.51100000000E-03 0.  1.
    9000002   -1    0    0    0    0 -0.00000000000E+00 -0.00000000000E+00  0.00000000000E+00  0.93800000000E+00  0.93800000000E+00 0.  1.
         11    1    1    2    0    0  0.26738545538E-01  0.20880539450E+00  0.94250417479E+00  0.96572719916E+00  0.51100000000E-03 0.  1.
    9000002    1    1    2    0    0 -0.10145222803E+00 -0.78224577740E+00  0.45661259541E+00  0.13078761689E+01  0.93800000000E+00 0.  1.
         22    1    1    2    0    0  0.74713682496E-01  0.57344038290E+00  0.26008831972E+01  0.26643966320E+01  0.00000000000E+00 0.  1.
</event>
<event>
 5    1  0.6776507E+001  0.1599604E+01  0.7818608E-02  0.3353793E+00
         11   -1    0    0    0    0  0.00000000000E+00  0.00000000000E+00  0.39999999674E+01  0.40000000000E+01  0.51100000000E-03 0.  1.
    9000002   -1    0    0    0    0 -0.00000000000E+00 -0.00000000000E+00  0.00000000000E+00  0.93800000000E+00  0.93800000000E+00 0.  1.
         11    1    1    2    0    0  0.71111331748E-01 -0.10917743795E+00  0.83854533221E+00  0.84860772430E+00  0.51100000000E-03 0.  1.
    9000002    1    1    2    0    0 -0.34864825259E+00  0.46544768319E+00  0.23512191538E+00  0.11284163526E+01  0.93800000000E+00 0.  1.
         22    1    1    2    0    0  0.27753692085E+00 -0.35627024524E+00  0.29263327198E+01  0.29609759231E+01  0.00000000000E+00 0.  1.
</event>
<event>
 5    1  0.6776507E+001  0.1599123E+01  0.7818608E-02  0.3354315E+00
         11   -1    0    0    0    0  0.00000000000E+00  0.00000000000E+00  0.39999999674E+01  0.40000000000E+01  0.51100000000E-03 0.  1.
    9000002   -1    0    0    0    0 -0.00000000000E+00 -0.00000000000E+00  0.00000000000E+00  0.93800000000E+00  0.93800000000E+00 0.  1.
         11    1    1    2    0    0 -0.15773224931E+00 -0.15045344551E-01  0.12483891189E+01  0.12584043381E+01  0.51100000000E-03 0.  1.
    9000002    1    1    2    0    0  0.44380175010E+00 -0.22399349122E-01  0.13447856792E+00  0.10466089095E+01  0.93800000000E+00 0.  1.
         22    1    1    2    0    0 -0.28606950079E+00  0.37444693673E-01  0.26171322806E+01  0.26329867524E+01  0.00000000000E+00 0.  1.
</event>
<event>
 5    1  0.6776507E+001  0.1599635E+01  0.7818608E-02  0.3353760E+00
         11   -1    0    0    0    0  0.00000000000E+00  0.00000000000E+00  0.39999999674E+01  0.40000000000E+01  0.51100000000E-03 0.  1.
    9000002   -1    0    0    0    0 -0.00000000000E+00 -0.00000000000E+00  0.00000000000E+00  0.93800000000E+00  0.93800000000E+00 0.  1.
         11    1    1    2    0    0  0.80554180315E-01 -0.65391367144E-02  0.60561937460E+00  0.61098839947E+00  0.51100000000E-03 0.  1.
    9000002    1    1    2    0    0 -0.47876394578E+00  0.25201426815E-01  0.15685385653E+00  0.10650338774E+01  0.93800000000E+00 0.  1.
         22    1    1    2    0    0  0.39820976547E+00 -0.18662290100E-01  0.32375267362E+01  0.32619777231E+01  0.00000000000E+00 0.  1.
</event>
<event>
 5    1  0.6776507E+001  0.1594072E+01  0.7818608E-02  0.3359822E+00
         11   -1    0    0    0    0  0.00000000000E+00  0.00000000000E+00  0.39999999674E+01  0.40000000000E+01  0.51100000000E-03 0. -1.
    9000002   -1    0    0    0    0 -0.00000000000E+00 -0.00000000000E+00  0.00000000000E+00  0.93800000000E+00  0.93800000000E+00 0.  1.
         11    1    1    2    0    0 -0.20746410316E-01 -0.24061597155E-01  0.40480684831E+00  0.40605199120E+00  0.51100000000E-03 0. -1.
    9000002    1    1    2    0    0 -0.31265293915E+00  0.98229439824E-01  0.76309987682E-01  0.99652802139E+00  0.93800000000E+00 0.  1.
         22    1    1    2    0    0  0.33339934946E+00 -0.74167842670E-01  0.35188831314E+01  0.35354199874E+01  0.00000000000E+00 0. -1.
</event>
<event>
 5    1  0.6776507E+001  0.1599183E+01  0.7818608E-02  0.3354251E+00
         11   -1    0    0    0    0  0.00000000000E+00  0.00000000000E+00  0.39999999674E+01  0.40000000000E+01  0.51100000000E-03 0. -1.
    9000002   -1    0    0    0    0 -0.00000000000E+00 -0.00000000000E+00  0.00000000000E+00  0.93800000000E+00  0.93800000000E+00 0.  1.
         11    1    1    2    0    0 -0.44442632505E-01 -0.45162159387E-01  0.69084699615E+00  0.69374678481E+00  0.51100000000E-03 0. -1.
    9000002    1    1    2    0    0  0.15781545141E+00  0.32310413044E+00  0.87191952608E-01  0.10083394430E+01  0.93800000000E+00 0.  1.
         22    1    1    2    0    0 -0.11337281891E+00 -0.27794197105E+00  0.32219610186E+01  0.32359137721E+01  0.00000000000E+00 0. -1.
</event>
<event>
 5    1  0.6776507E+001  0.1599674E+01  0.7818608E-02  0.3353717E+00
         11   -1    0    0    0    0  0.00000000000E+00  0.00000000000E+00  0.39999999674E+01  0.40000000000E+01  0.51100000000E-03 0. -1.
    9000002   -1    0    0    0    0 -0.00000000000E+00 -0.00000000000E+00  0.00000000000E+00  0.93800000000E+00  0.93800000000E+00 0.  1.
         11    1    1    2    0    0  0.12044232162E+00  0.58717842531E-01  0.10971639240E+01  0.11053158260E+01  0.51100000000E-03 0. -1.
    9000002    1    1    2    0    0 -0.42227313924E+00 -0.19999774321E+00  0.14866378135E+00  0.10584227045E+01  0.93800000000E+00 0.  1.
         22    1    1    2    0    0  0.30183081762E+00  0.14127990068E+00  0.27541722620E+01  0.27742614696E+01  0.00000000000E+00 0. -1.
</event>
<event>
 5    1  0.6776507E+001  0.1578431E+01  0.7818608E-02  0.3377112E+00
         11   -1    0    0    0    0  0.00000000000E+00  0.00000000000E+00  0.39999999674E+01  0.40000000000E+01  0.51100000000E-03 0. -1.
    9000002   -1    0    0    0    0 -0.00000000000E+00 -0.00000000000E+00  0.00000000000E+00  0.93800000000E+00  0.93800000000E+00 0. -1.
         11    1    1    2    0    0 -0.15525066596E+00 -0.23843057903E+00  0.11202065986E+01  0.11557746299E+01  0.51100000000E-03 0. -1.
    9000002    1    1    2    0    0  0.40471904847E-01  0.55158749293E+00  0.23180186592E+00  0.11133116556E+01  0.93800000000E+00 0. -1.
         22    1    1    2    0    0  0.11477876111E+00 -0.31315691390E+00  0.26479915028E+01  0.26689137145E+01  0.00000000000E+00 0. -1.
</event>
<event>
 5    1  0.6776507E+001  0.1569836E+01  0.7818608E-02  0.3386768E+00
         11   -1    0    0    0    0  0.00000000000E+00  0.00000000000E+00  0.39999999674E+01  0.40000000000E+01  0.51100000000E-03 0. -1.
    9000002   -1    0    0    0    0 -0.00000000000E+00 -0.00000000000E+00  0.00000000000E+00  0.93800000000E+00  0.93800000000E+00 0. -1.
         11    1    1    2    0    0  0.12463881985E+00 -0.19860516930E-01  0.61310288429E+00  0.62595901096E+00  0.51100000000E-03 0. -1.
    9000002    1    1    2    0    0  0.16854646282E+00  0.13075086567E+00  0.52966209865E-01  0.96340703671E+00  0.93800000000E+00 0. -1.
         22    1    1    2    0    0 -0.29318528267E+00 -0.11089034874E+00  0.33339308732E+01  0.33486339523E+01  0.00000000000E+00 0. -1.
</event>
<event>
 5    1  0.6776507E+001  0.1599677E+01  0.7818608E-02  0.3353714E+00
         11   -1    0    0    0    0  0.00000000000E+00  0.00000000000E+00  0.39999999674E+01  0.40000000000E+01  0.51100000000E-03 0. -1.
    9000002   -1    0    0    0    0 -0.00000000000E+00 -0.00000000000E+00  0.00000000000E+00  0.93800000000E+00  0.93800000000E+00 0. -1.
         11    1    1    2    0    0  0.93949384838E-01 -0.28240471880E-01  0.10358699319E+01  0.10405050640E+01  0.51100000000E-03 0.  1.
    9000002    1    1    2    0    0 -0.35438081104E+00  0.10663301475E+00  0.92040826922E-01  0.10125570961E+01  0.93800000000E+00 0. -1.
         22    1    1    2    0    0  0.26043142620E+00 -0.78392542873E-01  0.28720892085E+01  0.28849378399E+01  0.00000000000E+00 0. -1.
</event>
<event>
 5    1  0.6776507E+001  0.1595953E+01  0.7818608E-02  0.3357767E+00
         11   -1    0    0    0    0  0.00000000000E+00  0.00000000000E+00  0.39999999674E+01  0.40000000000E+01  0.51100000000E-03 0.  1.
    9000002   -1    0    0    0    0 -0.00000000000E+00 -0.00000000000E+00  0.00000000000E+00  0.93800000000E+00  0.93800000000E+00 0. -1.
         11    1    1    2    0    0  0.62576224026E-02  0.13441791634E+00  0.80635244623E+00  0.81750343285E+00  0.51100000000E-03 0.  1.
    9000002    1    1    2    0    0 -0.22164169463E+00 -0.42842821817E+00  0.16212929954E+00  0.10671483911E+01  0.93800000000E+00 0. -1.
         22    1    1    2    0    0  0.21538407223E+00  0.29401030183E+00  0.30315182216E+01  0.30533481760E+01  0.00000000000E+00 0. -1.
</event>
<event>
 5    1  0.6776507E+001  0.1506551E+01  0.7818608E-02  0.3461484E+00
         11   -1    0    0    0    0  0.00000000000E+00  0.00000000000E+00  0.39999999674E+01  0.40000000000E+01  0.51100000000E-03 0. -1.
    9000002   -1    0    0    0    0 -0.00000000000E+00 -0.00000000000E+00  0.00000000000E+00  0.93800000000E+00  0.93800000000E+00 0. -1.
         11    1    1    2    0    0 -0.15005635866E-01 -0.25159471550E+00  0.61329793894E+00  0.66306839240E+00  0.51100000000E-03 0. -1.
    9000002    1    1    2    0    0  0.91578831589E-01 -0.11581170904E+00  0.86524621532E-01  0.95348284960E+00  0.93800000000E+00 0. -1.
         22    1    1    2    0    0 -0.76573195723E-01  0.36740642453E+00  0.33001774069E+01  0.33214487580E+01  0.00000000000E+00 0. -1.
</event>
<event>
 5    1  0.6776507E+001  0.1599676E+01  0.7818608E-02  0.3353715E+00
         11   -1    0    0    0    0  0.00000000000E+00  0.00000000000E+00  0.39999999674E+01  0.40000000000E+01  0.51100000000E-03 0.  1.
    9000002   -1    0    0    0    0 -0.00000000000E+00 -0.00000000000E+00  0.00000000000E+00  0.93800000000E+00  0.93800000000E+00 0.  1.
         11    1    1    2    0    0  0.20264346069E-01  0.76634336958E-01  0.51356747770E+00  0.51964918993E+00  0.51100000000E-03 0.  1.
    9000002    1    1    2    0    0 -0.14411657679E+00 -0.55944015391E+00  0.23177441574E+00  0.11257469757E+01  0.93800000000E+00 0.  1.
         22    1    1    2    0    0  0.12385223072E+00  0.48280581695E+00  0.32546580739E+01  0.32926038344E+01  0.00000000000E+00 0.  1.
</event>
<event>
 5    1  0.6776507E+001  0.1589527E+01  0.7818608E-02  0.3364809E+00
         11   -1    0    0    0    0  0.00000000000E+00  0.00000000000E+00  0.39999999674E+01  0.40000000000E+01  0.51100000000E-03 0. -1.
    9000002   -1    0    0    0    0 -0.00000000000E+00 -0.00000000000E+00  0.00000000000E+00  0.93800000000E+00  0.93800000000E+00 0.  1.
         11    1    1    2    0    0  0.68534256368E-01  0.83381308525E-01  0.63075062989E+00  0.63991874886E+00  0.51100000000E-03 0. -1.
    9000002    1    1    2    0    0 -0.40958419741E+00  0.38020363800E-01  0.12286394590E+00  0.10315737065E+01  0.93800000000E+00 0.  1.
         22    1    1    2    0    0  0.34104994104E+00 -0.12140167233E+00  0.32463853916E+01  0.32665075446E+01  0.00000000000E+00 0. -1.
</event>
<event>
 5    1  0.6776507E+001  0.1599487E+01  0.7818608E-02  0.3353921E+00
         11   -1    0    0    0    0  0.00000000000E+00  0.00000000000E+00  0.39999999674E+01  0.40000000000E+01  0.51100000000E-03 0. -1.
    9000002   -1    0    0    0    0 -0.00000000000E+00 -0.00000000000E+00  0.00000000000E+00  0.93800000000E+00  0.93800000000E+00 0. -1.
         11    1    1    2    0    0 -0.87210196734E-01  0.26704218251E-01  0.10213955347E+01  0.10254598155E+01  0.51100000000E-03 0. -1.
    9000002    1    1    2    0    0  0.37210800787E+00 -0.61847316003E-01  0.95861984393E-01  0.10155407328E+01  0.93800000000E+00 0. -1.
         22    1    1    2    0    0 -0.28489781113E+00  0.35143097753E-01  0.28827424482E+01  0.28969994517E+01  0.00000000000E+00 0. -1.
</event>
<event>
 5    1  0.7850844E+001  0.1559238E+01  0.7818608E-02  0.3398829E+00
         11   -1    0    0    0    0  0.00000000000E+00  0.00000000000E+00  0.39999999674E+01  0.40000000000E+01  0.51100000000E-03 0.  1.
    9000002   -1    0    0    0    0 -0.00000000000E+00 -0.00000000000E+00  0.00000000000E+00  0.93800000000E+00  0.93800000000E+00 0.  1.
         11    1    1    2    0    0 -0.18429338186E+00  0.14623064297E+00  0.14041257399E+01  0.14236982848E+01  0.51100000000E-03 0.  1.
    9000002    1    1    2    0    0 -0.33530449234E-01 -0.65348921395E-01  0.33555605637E-01  0.94146946378E+00  0.93800000000E+00 0.  1.
         22    1    1    2    0    0  0.21782383110E+00 -0.80881721577E-01  0.25623186218E+01  0.25728322515E+01  0.00000000000E+00 0.  1.
</event>
<event>
 5    1  0.6776507E+001  0.1598975E+01  0.7818608E-02  0.3354477E+00
         11   -1    0    0    0    0  0.00000000000E+00  0.00000000000E+00  0.39999999674E+01  0.40000000000E+01  0.51100000000E-03 0.  1.
    9000002   -1    0    0    0    0 -0.00000000000E+00 -0.00000000000E+00  0.00000000000E+00  0.93800000000E+00  0.93800000000E+00 0. -1.
         11    1    1    2    0    0 -0.86984752422E-01 -0.28355061224E-01  0.68736492948E+00  0.69342711517E+00  0.51100000000E-03 0.  1.
    9000002    1    1    2    0    0  0.37313095007E+00  0.23267079512E+00  0.13173446471E+00  0.10442989869E+01  0.93800000000E+00 0. -1.
         22    1    1    2    0    0 -0.28614619764E+00 -0.20431573389E+00  0.31809005732E+01  0.32002738980E+01  0.00000000000E+00 0.  1.
</event>
<event>
 5    1  0.6776507E+001  0.1599668E+01  0.7818608E-02  0.3353724E+00
         11   -1    0    0    0    0  0.00000000000E+00  0.00000000000E+00  0.39999999674E+01  0.40000000000E+01  0.51100000000E-03 0. -1.
    9000002   -1    0    0    0    0 -0.00000000000E+00 -0.00000000000E+00  0.00000000000E+00  0.93800000000E+00  0.93800000000E+00 0.  1.
         11    1    1    2    0    0 -0.12073931305E+00  0.77705482116E-01  0.11743550458E+01  0.11831002318E+01  0.51100000000E-03 0. -1.
    9000002    1    1    2    0    0  0.38685021828E+00 -0.26051332878E+00  0.14810949200E+00  0.10579700882E+01  0.93800000000E+00 0.  1.
         22    1    1    2    0    0 -0.26611090523E+00  0.18280784666E+00  0.26775354296E+01  0.26969296801E+01  0.00000000000E+00 0. -1.
</event>
<event>
 5    1  0.6776507E+001  0.1599583E+01  0.7818608E-02  0.3353816E+00
         11   -1    0    0    0    0  0.00000000000E+00  0.00000000000E+00  0.39999999674E+01  0.40000000000E+01  0.51100000000E-03 0.  1.
    9000002   -1    0    0    0    0 -0.00000000000E+00 -0.00000000000E+00  0.00000000000E+00  0.93800000000E+00  0.93800000000E+00 0. -1.
         11    1    1    2    0    0 -0.48129258715E-01 -0.68649006659E-01  0.58003361045E+00  0.58606173910E+00  0.51100000000E-03 0.  1.
    9000002    1    1    2    0    0  0.33014483730E+00  0.49599652401E+00  0.24756217532E+00  0.11384810917E+01  0.93800000000E+00 0. -1.
         22    1    1    2    0    0 -0.28201557858E+00 -0.42734751735E+00  0.31724041816E+01  0.32134571692E+01  0.00000000000E+00 0.  1.
</event>
<event>
 5    1  0.6776507E+001  0.1557073E+01  0.7818608E-02  0.3401314E+00
         11   -1    0    0    0    0  0.00000000000E+00  0.00000000000E+00  0.39999999674E+01  0.40000000000E+01  0.51100000000E-03 0.  1.
    9000002   -1    0    0    0    0 -0.00000000000E+00 -0.00000000000E+00  0.00000000000E+00  0.93800000000E+00  0.93800000000E+00 0.  1.
         11    1    1    2    0    0  0.33540816088E+00  0.16742714093E+00  0.30295453721E+00  0.48198775362E+00  0.51100000000E-03 0.  1.
    9000002    1    1    2    0    0  0.12318695673E+00 -0.28516071382E+00  0.30934926672E+00  0.10353900849E+01  0.93800000000E+00 0.  1.
         22    1    1    2    0    0 -0.45859511761E+00  0.11773357289E+00  0.33876961634E+01  0.34206221615E+01  0.00000000000E+00 0.  1.
</event>
<event>
 5    1  0.6776507E+001  0.1593859E+01  0.7818608E-02  0.3360056E+00
         11   -1    0    0    0    0  0.00000000000E+00  0.00000000000E+00  0.39999999674E+01  0.40000000000E+01  0.51100000000E-03 0. -1.
    9000002   -1    0    0    0    0 -0.00000000000E+00 -0.00000000000E+00  0.00000000000E+00  0.93800000000E+00  0.93800000000E+00 0.  1.
         11    1    1    2    0    0 -0.51404366097E-01  0.21118295436E-01  0.29463752412E+00  0.29983315860E+00  0.51100000000E-03 0. -1.
    9000002    1    1    2    0    0  0.45515295429E-01 -0.38858490064E+00  0.10796150211E+00  0.10220418548E+01  0.93800000000E+00 0.  1.
         22    1    1    2    0    0  0.58890706683E-02  0.36746660520E+00  0.35974009411E+01  0.36161249866E+01  0.00000000000E+00 0. -1.
</event>
<event>
 5    1  0.6776507E+001  0.1599676E+01  0.7818608E-02  0.3353715E+00
         11   -1    0    0    0    0  0.00000000000E+00  0.00000000000E+00  0.39999999674E+01  0.40000000000E+01  0.51100000000E-03 0. -1.
    9000002   -1    0    0    0    0 -0.00000000000E+00 -0.00000000000E+00  0.00000000000E+00  0.93800000000E+00  0.93800000000E+00 0.  1.
         11    1    1    2    0    0  0.70810384101E-01  0.13214500222E+00  0.13094460433E+01  0.13180006122E+01  0.51100000000E-03 0. -1.
    9000002    1    1    2    0    0 -0.21158794735E+00 -0.39223775473E+00  0.13481471632E+00  0.10472052919E+01  0.93800000000E+00 0.  1.
         22    1    1    2    0    0  0.14077756325E+00  0.26009275251E+00  0.25557392077E+01  0.25727940959E+01  0.00000000000E+00 0. -1.
</event>
<event>
 5    1  0.6776507E+001  0.1598374E+01  0.7818608E-02  0.3355130E+00
         11   -1    0    0    0    0  0.00000000000E+00  0.00000000000E+00  0.39999999674E+01  0.40000000000E+01  0.51100000000E-03 0. -1.
    9000002   -1    0    0    0    0 -0.00000000000E+00 -0.00000000000E+00  0.00000000000E+00  0.93800000000E+00  0.93800000000E+00 0. -1.
         11    1    1    2    0    0  0.44601489131E-02  0.17369809366E-01  0.89731370333E-01  0.91507284675E-01  0.51100000000E-03 0. -1.
    9000002    1    1    2    0    0  0.24638558167E+00 -0.39035588166E+00  0.14611128434E+00  0.10555927608E+01  0.93800000000E+00 0. -1.
         22    1    1    2    0    0 -0.25084573059E+00  0.37298607230E+00  0.37641573127E+01  0.37908999545E+01  0.00000000000E+00 0. -1.
</event>
<event>
 5    1  0.6776507E+001  0.1599649E+01  0.7818608E-02  0.3353744E+00
         11   -1    0    0    0    0  0.00000000000E+00  0.00000000000E+00  0.39999999674E+01  0.40000000000E+01  0.51100000000E-03 0.  1.
    9000002   -1    0    0    0    0 -0.00000000000E+00 -0.00000000000E+00  0.00000000000E+00  0.93800000000E+00  0.93800000000E+00 0. -1.
         11    1    1    2    0    0 -0.36145853137E-01  0.45586033326E-01  0.63306210338E+00  0.63572989311E+00  0.51100000000E-03 0.  1.
    9000002    1    1    2    0    0  0.24067860757E+00 -0.30310406678E+00  0.10089976815E+00  0.10197171327E+01  0.93800000000E+00 0. -1.
         22    1    1    2    0    0 -0.20453275443E+00  0.25751803346E+00  0.32660380958E+01  0.32825529742E+01  0.00000000000E+00 0.  1.
</event>
<event>
 5    1  0.6776507E+001  0.1599292E+01  0.7818608E-02  0.3354132E+00
         11   -1    0    0    0    0  0.00000000000E+00  0.00000000000E+00  0.39999999674E+01  0.40000000000E+01  0.51100000000E-03 0.  1.
    9000002   -1    0    0    0    0 -0.00000000000E+00 -0.00000000000E+00  0.00000000000E+00  0.93800000000E+00  0.93800000000E+00 0.  1.
         11    1    1    2    0    0  0.14700779239E-01 -0.30697051289E+00  0.11386484845E+01  0.11793929121E+01  0.51100000000E-03 0.  1.
    9000002    1    1    2    0    0 -0.23363689819E-01  0.86154791084E+00  0.56023133993E+00  0.13915867989E+01  0.93800000000E+00 0.  1.
         22    1    1    2    0    0  0.86629105799E-02 -0.55457739795E+00  0.23011201429E+01  0.23670202890E+01  0.00000000000E+00 0.  1.
</event>
<event>
 5    1  0.6776507E+001  0.1599676E+01  0.7818608E-02  0.3353715E+00
         11   -1    0    0    0    0  0.00000000000E+00  0.00000000000E+00  0.39999999674E+01  0.40000000000E+01  0.51100000000E-03 0.  1.
    9000002   -1    0    0    0    0 -0.00000000000E+00 -0.00000000000E+00  0.00000000000E+00  0.93800000000E+00  0.93800000000E+00 0. -1.
         11    1    1    2    0    0 -0.14813121136E+00 -0.19177323758E-01  0.10114250428E+01  0.10223949843E+01  0.51100000000E-03 0.  1.
    9000002    1    1    2    0    0  0.55761647887E+00  0.73214967552E-01  0.21899014377E+00  0.11153910758E+01  0.93800000000E+00 0. -1.
         22    1    1    2    0    0 -0.40948526751E+00 -0.54037643795E-01  0.27695847808E+01  0.28002139399E+01  0.00000000000E+00 0. -1.
</event>
<event>
 5    1  0.6776507E+001  0.1599677E+01  0.7818608E-02  0.3353714E+00
         11   -1    0    0    0    0  0.00000000000E+00  0.00000000000E+00  0.39999999674E+01  0.40000000000E+01  0.51100000000E-03 0.  1.
    9000002   -1    0    0    0    0 -0.00000000000E+00 -0.00000000000E+00  0.00000000000E+00  0.93800000000E+00  0.93800000000E+00 0. -1.
         11    1    1    2    0    0  0.87784264738E-01 -0.37908113001E-01  0.10174515193E+01  0.10219349086E+01  0.51100000000E-03 0. -1.
    9000002    1    1    2    0    0 -0.33670531928E+00  0.14484590806E+00  0.90252541509E-01  0.10111084662E+01  0.93800000000E+00 0. -1.
         22    1    1    2    0    0  0.24892105455E+00 -0.10693779506E+00  0.28922959065E+01  0.29049566252E+01  0.00000000000E+00 0.  1.
</event>
<event>
 5    1  0.6776507E+001  0.1597932E+01  0.7818608E-02  0.3355611E+00
         11   -1    0    0    0    0  0.00000000000E+00  0.00000000000E+00  0.39999999674E+01  0.40000000000E+01  0.51100000000E-03 0.  1.
    9000002   -1    0    0    0    0 -0.00000000000E+00 -0.00000000000E+00  0.00000000000E+00  0.93800000000E+00  0.93800000000E+00 0. -1.
         11    1    1    2    0    0  0.30075224600E-01  0.13086960505E+00  0.10950687083E+01  0.11032710953E+01  0.51100000000E-03 0.  1.
    9000002    1    1    2    0    0 -0.25383873990E+00 -0.40114949538E+00  0.15517464837E+00  0.10626750185E+01  0.93800000000E+00 0. -1.
         22    1    1    2    0    0  0.22376351530E+00  0.27027989033E+00  0.27497566107E+01  0.27720538862E+01  0.00000000000E+00 0.  1.
</event>
<event>
 5    1  0.6776507E+001  0.1599440E+01  0.7818608E-02  0.3353972E+00
         11   -1    0    0    0    0  0.00000000000E+00  0.00000000000E+00  0.39999999674E+01  0.40000000000E+01  0.51100000000E-03 0.  1.
    9000002   -1    0    0    0    0 -0.00000000000E+00 -0.00000000000E+00  0.00000000000E+00  0.93800000000E+00  0.93800000000E+00 0.  1.
         11    1    1    2    0    0 -0.37776776840E-02  0.13818390886E+00  0.14202761046E+01  0.14269875746E+01  0.51100000000E-03 0.  1.
    9000002    1    1    2    0    0 -0.15498344675E-01 -0.41921510480E+00  0.11920925375E+00  0.10344256131E+01  0.93800000000E+00 0.  1.
         22    1    1    2    0    0  0.19276022359E-01  0.28103119594E+00  0.24605146090E+01  0.24765868124E+01  0.00000000000E+00 0.  1.
</event>
<event>
 5    1  0.6776507E+001  0.1599676E+01  0.7818608E-02  0.3353715E+00
         11   -1    0    0    0    0  0.00000000000E+00  0.00000000000E+00  0.39999999674E+01  0.40000000000E+01  0.51100000000E-03 0.  1.
    9000002   -1    0    0    0    0 -0.00000000000E+00 -0.00000000000E+00  0.00000000000E+00  0.93800000000E+00  0.93800000000E+00 0. -1.
         11    1    1    2    0    0  0.97090841956E-01  0.23207448342E-01  0.81922762657E+00  0.82528745447E+00  0.51100000000E-03 0.  1.
    9000002    1    1    2    0    0 -0.45699553374E+00 -0.11372883809E+00  0.15110886799E+00  0.10604041949E+01  0.93800000000E+00 0. -1.
         22    1    1    2    0    0  0.35990469179E+00  0.90521389753E-01  0.30296634728E+01  0.30523083507E+01  0.00000000000E+00 0.  1.
</event>
<event>
 5    1  0.6776507E+001  0.1597549E+01  0.7818608E-02  0.3356028E+00
         11   -1    0    0    0    0  0.00000000000E+00  0.00000000000E+00  0.39999999674E+01  0.40000000000E+01  0.51100000000E-03 0.  1.
    9000002   -1    0    0    0    0 -0.00000000000E+00 -0.00000000000E+00  0.00000000000E+00  0.93800000000E+00  0.93800000000E+00 0.  1.
         11    1    1    2    0    0  0.12530705207E+00 -0.53701556200E-01  0.72896957781E+00  0.74160813165E+00  0.51100000000E-03 0.  1.
    9000002    1    1    2    0    0 -0.43317000364E+00  0.34934766753E+00  0.21618613481E+00  0.11118725151E+01  0.93800000000E+00 0.  1.
         22    1    1    2    0    0  0.30786295158E+00 -0.29564611133E+00  0.30548442547E+01  0.30845193533E+01  0.00000000000E+00 0.  1.
</event>
<event>
 5    1  0.6776507E+001  0.1599672E+01  0.7818608E-02  0.3353720E+00
         11   -1    0    0    0    0  0.00000000000E+00  0.00000000000E+00  0.39999999674E+01  0.40000000000E+01  0.51100000000E-03 0. -1.
    9000002   -1    0    0    0    0 -0.00000000000E+00 -0.00000000000E+00  0.00000000000E+00  0.93800000000E+00  0.93800000000E+00 0.  1.
         11    1    1    2    0    0 -0.17422221987E-01  0.77623419028E-01  0.70817485853E+00  0.71262951130E+00  0.51100000000E-03 0. -1.
    9000002    1    1    2    0    0  0.83692529354E-01 -0.42328854921E+00  0.12611712177E+00  0.10401572784E+01  0.93800000000E+00 0.  1.
         22    1    1    2    0    0 -0.66270307367E-01  0.34566513018E+00  0.31657079871E+01  0.31852132103E+01  0.00000000000E+00 0. -1.
</event>
<event>
 5    1  0.6776507E+001  0.1599674E+01  0.7818608E-02  0.3353718E+00
         11   -1    0    0    0    0  0.00000000000E+00  0.00000000000E+00  0.39999999674E+01  0.40000000000E+01  0.51100000000E-03 0.  1.
    9000002   -1    0    0    0    0 -0.00000000000E+00 -0.00000000000E+00  0.00000000000E+00  0.93800000000E+00  0.93800000000E+00 0.  1.
         11    1    1    2    0    0  0.70402035040E-01  0.16502483103E-02  0.67731075222E+00  0.68096202982E+00  0.51100000000E-03 0.  1.
    9000002    1    1    2    0    0 -0.39624815285E+00 -0.13907138909E-01  0.10599397057E+00  0.10238577679E+01  0.93800000000E+00 0.  1.
         22    1    1    2    0    0  0.32584611781E+00  0.12256890599E-01  0.32166952446E+01  0.32331802023E+01  0.00000000000E+00 0.  1.
</event>
<event>
 5    1  0.6776507E+001  0.1595857E+01  0.7818608E-02  0.3357872E+00
         11   -1    0    0    0    0  0.00000000000E+00  0.00000000000E+00  0.39999999674E+01  0.40000000000E+01  0.51100000000E-03 0. -1.
    9000002   -1    0    0    0    0 -0.00000000000E+00 -0.00000000000E+00  0.00000000000E+00  0.93800000000E+00  0.93800000000E+00 0. -1.
         11    1    1    2    0    0  0.11367393809E-01  0.18158471538E-01  0.92895925844E+00  0.92920638864E+00  0.51100000000E-03 0. -1.
    9000002    1    1    2    0    0  0.10837709162E-01 -0.33749364367E+00  0.79408705434E-01  0.10000845754E+01  0.93800000000E+00 0. -1.
         22    1    1    2    0    0 -0.22205102971E-01  0.31933517213E+00  0.29916320035E+01  0.30087090360E+01  0.00000000000E+00 0. -1.
</event>
<event>
 5    1  0.6776507E+001  0.1599125E+01  0.7818608E-02  0.3354314E+00
         11   -1    0    0    0    0  0.00000000000E+00  0.00000000000E+00  0.39999999674E+01  0.40000000000E+01  0.51100000000E-03 0. -1.
    9000002   -1    0    0    0    0 -0.00000000000E+00 -0.00000000000E+00  0.00000000000E+00  0.93800000000E+00  0.93800000000E+00 0.  1.
         11    1    1    2    0    0 -0.97978009767E-01 -0.22413340183E-02  0.12996172802E+01  0.13033073506E+01  0.51100000000E-03 0. -1.
    9000002    1    1    2    0    0  0.35562465893E+00  0.59477323042E-01  0.87721626568E-01  0.10087346201E+01  0.93800000000E+00 0.  1.
         22    1    1    2    0    0 -0.25764664916E+00 -0.57235989023E-01  0.26126610606E+01  0.26259580293E+01  0.00000000000E+00 0. -1.
</event>
<event>
 5    1  0.6776507E+001  0.1599663E+01  0.7818608E-02  0.3353729E+00
         11   -1    0    0    0    0  0.00000000000E+00  0.00000000000E+00  0.39999999674E+01  0.40000000000E+01  0.51100000000E-03 0.  1.
    9000002   -1    0    0    0    0 -0.00000000000E+00 -0.00000000000E+00  0.00000000000E+00  0.93800000000E+00  0.93800000000E+00 0. -1.
         11    1    1    2    0    0 -0.82150215508E-01  0.85999268338E-01  0.92970963499E+00  0.93728586812E+00  0.51100000000E-03 0.  1.
    9000002    1    1    2    0    0  0.34335198601E+00 -0.33981183553E+00  0.15931863674E+00  0.10670469052E+01  0.93800000000E+00 0. -1.
         22    1    1    2    0    0 -0.26120177050E+00  0.25381256719E+00  0.29109716956E+01  0.29336672267E+01  0.00000000000E+00 0. -1.
</event>
<event>
 5    1  0.6776507E+001  0.1599677E+01  0.7818608E-02  0.3353714E+00
         11   -1    0    0    0    0  0.00000000000E+00  0.00000000000E+00  0.39999999674E+01  0.40000000000E+01  0.51100000000E-03 0. -1.
    9000002   -1    0    0    0    0 -0.00000000000E+00 -0.00000000000E+00  0.00000000000E+00  0.93800000000E+00  0.93800000000E+00 0. -1.
         11    1    1    2    0    0 -0.70763409433E-01 -0.43620199240E-01  0.67241994204E+00  0.67753894462E+00  0.51100000000E-03 0.  1.
    9000002    1    1    2    0    0  0.40649540776E+00  0.24918284761E+00  0.15503308014E+00  0.10635835012E+01  0.93800000000E+00 0. -1.
         22    1    1    2    0    0 -0.33573199833E+00 -0.20556264837E+00  0.31725469452E+01  0.31968775542E+01  0.00000000000E+00 0. -1.
</event>
<event>
 5    1  0.6776507E+001  0.1561637E+01  0.7818608E-02  0.3396084E+00
         11   -1    0    0    0    0  0.00000000000E+00  0.00000000000E+00  0.39999999674E+01  0.40000000000E+01  0.51100000000E-03 0. -1.
    9000002   -1    0    0    0    0 -0.00000000000E+00 -0.00000000000E+00  0.00000000000E+00  0.93800000000E+00  0.93800000000E+00 0. -1.
         11    1    1    2    0    0  0.91563498451E-01 -0.15245557901E-01  0.17473502709E+00  0.19786078969E+00  0.51100000000E-03 0. -1.
    9000002    1    1    2    0    0  0.18138515588E+00  0.35307518247E+00  0.13852879497E+00  0.10279089874E+01  0.93800000000E+00 0. -1.
         22    1    1    2    0    0 -0.27294865433E+00 -0.33782962457E+00  0.36867361453E+01  0.37122302230E+01  0.00000000000E+00 0. -1.
</event>
<event>
 5    1  0.6776507E+001  0.1599675E+01  0.7818608E-02  0.3353716E+00
         11   -1    0    0    0    0  0.00000000000E+00  0.00000000000E+00  0.39999999674E+01  0.40000000000E+01  0.51100000000E-03 0. -1.
    9000002   -1    0    0    0    0 -0.00000000000E+00 -0.00000000000E+00  0.00000000000E+00  0.93800000000E+00  0.93800000000E+00 0.  1.
         11    1    1    2    0    0 -0.12105166924E+00 -0.51355952344E-01  0.13558990662E+01  0.13622604301E+01  0.51100000000E-03 0. -1.
    9000002    1    1    2    0    0  0.34572936656E+00  0.15163517096E+00  0.95867560369E-01  0.10156557532E+01  0.93800000000E+00 0.  1.
         22    1    1    2    0    0 -0.22467769732E+00 -0.10027921862E+00  0.25482333408E+01  0.25600838167E+01  0.00000000000E+00 0. -1.
</event>
<event>
 5    1  0.6776507E+001  0.1599608E+01  0.7818608E-02  0.3353789E+00
         11   -1    0    0    0    0  0.00000000000E+00  0.00000000000E+00  0.39999999674E+01  0.40000000000E+01  0.51100000000E-03 0.  1.
    9000002   -1    0    0    0    0 -0.00000000000E+00 -0.00000000000E+00  0.00000000000E+00  0.93800000000E+00  0.93800000000E+00 0.  1.
         11    1    1    2    0    0 -0.77361498265E-01  0.64635332218E-02  0.52627735211E+00  0.53197245337E+00  0.51100000000E-03 0.  1.
    9000002    1    1    2    0    0  0.53824367784E+00 -0.92409324109E-01  0.20591245770E+00  0.11047577473E+01  0.93800000000E+00 0.  1.
         22    1    1    2    0    0 -0.46088217958E+00  0.85945790887E-01  0.32678101575E+01  0.33012697994E+01  0.00000000000E+00 0.  1.
</event>
<event>
 5    1  0.6776507E+001  0.1470518E+01  0.7818608E-02  0.3507119E+00
         11   -1    0    0    0    0  0.00000000000E+00  0.00000000000E+00  0.39999999674E+01  0.40000000000E+01  0.51100000000E-03 0.  1.
    9000002   -1    0    0    0    0 -0.00000000000E+00 -0.00000000000E+00  0.00000000000E+00  0.93800000000E+00  0.93800000000E+00 0.  1.
         11    1    1    2    0    0 -0.27614927707E+00 -0.22607805783E+00  0.11535523732E+01  0.12074986751E+01  0.51100000000E-03 0.  1.
    9000002    1    1    2    0    0 -0.20051600478E+00  0.52673882051E-01  0.13270262206E+00  0.96976037861E+00  0.93800000000E+00 0.  1.
         22    1    1    2    0    0  0.47666528184E+00  0.17340417578E+00  0.27137449721E+01  0.27607409463E+01  0.00000000000E+00 0.  1.
</event>
<event>
 5    1  0.6776507E+001  0.1599553E+01  0.7818608E-02  0.3353849E+00
         11   -1    0    0    0    0  0.00000000000E+00  0.00000000000E+00  0.39999999674E+01  0.40000000000E+01  0.51100000000E-03 0.  1.
    9000002   -1    0    0    0    0 -0.00000000000E+00 -0.00000000000E+00  0.00000000000E+00  0.93800000000E+00  0.93800000000E+00 0.  1.
         11    1    1    2    0    0 -0.63569139153E-01  0.84439726318E-02  0.73475059750E+00  0.73754392260E+00  0.51100000000E-03 0.  1.
    9000002    1    1    2    0    0  0.39235017069E+00 -0.51968759184E-01  0.10570271800E+00  0.10235509137E+01  0.93800000000E+00 0.  1.
         22    1    1    2    0    0 -0.32878103154E+00  0.43524786552E-01  0.31595466519E+01  0.31769051637E+01  0.00000000000E+00 0.  1.
</event>
<event>
 5    1  0.6776507E+001  0.1599499E+01  0.7818608E-02  0.3353907E+00
         11   -1    0    0    0    0  0.00000000000E+00  0.00000000000E+00  0.39999999674E+01  0.40000000000E+01  0.51100000000E-03 0. -1.
    9000002   -1    0    0    0    0 -0.00000000000E+00 -0.00000000000E+00  0.00000000000E+00  0.93800000000E+00  0.93800000000E+00 0. -1.
         11    1    1    2    0    0  0.35215100126E-01 -0.14043064859E-02  0.30815135323E+00  0.31016059223E+00  0.51100000000E-03 0. -1.
    9000002    1    1    2    0    0 -0.36244484095E+00 -0.52653006759E-01  0.90251618565E-01  0.10110034404E+01  0.93800000000E+00 0. -1.
         22    1    1    2    0    0  0.32722974082E+00  0.54057313245E-01  0.36015969956E+01  0.36168359674E+01  0.00000000000E+00 0. -1.
</event>
<event>
 5    1  0.6776507E+001  0.1599654E+01  0.7818608E-02  0.3353739E+00
         11   -1    0    0    0    0  0.00000000000E+00  0.00000000000E+00  0.39999999674E+01  0.40000000000E+01  0.51100000000E-03 0. -1.
    9000002   -1    0    0    0    0 -0.00000000000E+00 -0.00000000000E+00  0.00000000000E+00  0.93800000000E+00  0.93800000000E+00 0. -1.
         11    1    1    2    0    0 -0.74784380080E-01  0.96095493436E-03  0.78023585371E+00  0.78381239814E+00  0.51100000000E-03 0. -1.
    9000002    1    1    2    0    0  0.36211496963E+00  0.14311890253E-01  0.88200958860E-01  0.10094332522E+01  0.93800000000E+00 0. -1.
         22    1    1    2    0    0 -0.28733058955E+00 -0.15272845187E-01  0.31315631548E+01  0.31447543497E+01  0.00000000000E+00 0. -1.
</event>
<event>
 5    1  0.6776507E+001  0.1599645E+01  0.7818608E-02  0.3353748E+00
         11   -1    0    0    0    0  0.00000000000E+00  0.00000000000E+00  0.39999999674E+01  0.40000000000E+01  0.51100000000E-03 0.  1.
    9000002   -1    0    0    0    0 -0.00000000000E+00 -0.00000000000E+00  0.00000000000E+00  0.93800000000E+00  0.93800000000E+00 0.  1.
         11    1    1    2    0    0  0.29557134155E-01  0.64039624663E-01  0.70625002038E+00  0.70976337614E+00  0.51100000000E-03 0.  1.
    9000002    1    1    2    0    0 -0.13467967895E+00 -0.35653381375E+00  0.97772702991E-01  0.10171816346E+01  0.93800000000E+00 0.  1.
         22    1    1    2    0    0  0.10512254480E+00  0.29249418909E+00  0.31959772440E+01  0.32110549893E+01  0.00000000000E+00 0.  1.
</event>
<event>
 5    1  0.6776507E+001  0.1599676E+01  0.7818608E-02  0.3353715E+00
         11   -1    0    0    0    0  0.00000000000E+00  0.00000000000E+00  0.39999999674E+01  0.40000000000E+01  0.51100000000E-03 0.  1.
    9000002   -1    0    0    0    0 -0.00000000000E+00 -0.00000000000E+00  0.00000000000E+00  0.93800000000E+00  0.93800000000E+00 0.  1.
         11    1    1    2    0    0 -0.22792490453E-01 -0.78322987235E-01  0.86587386379E+00  0.86970788031E+00  0.51100000000E-03 0.  1.
    9000002    1    1    2    0    0  0.10016465535E+00  0.35216896688E+00  0.90050615593E-01  0.10109446339E+01  0.93800000000E+00 0.  1.
         22    1    1    2    0    0 -0.77372164900E-01 -0.27384597965E+00  0.30440754880E+01  0.30573474858E+01  0.00000000000E+00 0.  1.
</event>
<event>
 5    1  0.6776507E+001  0.1599671E+01  0.7818608E-02  0.3353721E+00
         11   -1    0    0    0    0  0.00000000000E+00  0.00000000000E+00  0.39999999674E+01  0.40000000000E+01  0.51100000000E-03 0.  1.
    9000002   -1    0    0    0    0 -0.00000000000E+00 -0.00000000000E+00  0.00000000000E+00  0.93800000000E+00  0.93800000000E+00 0. -1.
         11    1    1    2    0    0 -0.44029849038E-01  0.91777233644E-01  0.11070671085E+01  0.11117371686E+01  0.51100000000E-03 0.  1.
    9000002    1    1    2    0    0  0.16368785673E+00 -0.31938005776E+00  0.86450809074E-01  0.10080253361E+01  0.93800000000E+00 0. -1.
         22    1    1    2    0    0 -0.11965800770E+00  0.22760282412E+00  0.28064820497E+01  0.28182374953E+01  0.00000000000E+00 0.  1.
</event>
<event>
 5    1  0.6776507E+001  0.1599240E+01  0.7818608E-02  0.3354189E+00
         11   -1    0    0    0    0  0.00000000000E+00  0.00000000000E+00  0.39999999674E+01  0.40000000000E+01  0.51100000000E-03 0. -1.
    9000002   -1    0    0    0    0 -0.00000000000E+00 -0.00000000000E+00  0.00000000000E+00  0.93800000000E+00  0.93800000000E+00 0.  1.
         11    1    1    2    0    0 -0.16766511299E+00  0.29647121571E-01  0.14625652074E+01  0.14724427965E+01  0.51100000000E-03 0. -1.
    9000002    1    1    2    0    0  0.42176242043E+00 -0.13923064798E+00  0.13424331742E+00  0.10464864934E+01  0.93800000000E+00 0.  1.
         22    1    1    2    0    0 -0.25409730744E+00  0.10958352641E+00  0.24031914425E+01  0.24190707101E+01  0.00000000000E+00 0. -1.
</event>
<event>
 5    1  0.6776507E+001  0.1599586E+01  0.7818608E-02  0.3353813E+00
         11   -1    0    0    0    0  0.00000000000E+00  0.00000000000E+00  0.39999999674E+01  0.40000000000E+01  0.51100000000E-03 0. -1.
    9000002   -1    0    0    0    0 -0.00000000000E+00 -0.00000000000E+00  0.00000000000E+00  0.93800000000E+00  0.93800000000E+00 0.  1.
         11    1    1    2    0    0  0.13437305697E+00  0.68796390443E-01  0.13567628640E+01  0.13651354483E+01  0.51100000000E-03 0. -1.
    9000002    1    1    2    0    0 -0.37831524196E+00 -0.16623904363E+00  0.11545550180E+00  0.10314707048E+01  0.93800000000E+00 0.  1.
         22    1    1    2    0    0  0.24394218499E+00  0.97442653190E-01  0.25277816015E+01  0.25413938470E+01  0.00000000000E+00 0. -1.
</event>
<event>
 5    1  0.6776507E+001  0.1599482E+01  0.7818608E-02  0.3353926E+00
         11   -1    0    0    0    0  0.00000000000E+00  0.00000000000E+00  0.39999999674E+01  0.40000000000E+01  0.51100000000E-03 0. -1.
    9000002   -1    0    0    0    0 -0.00000000000E+00 -0.00000000000E+00  0.00000000000E+00  0.93800000000E+00  0.93800000000E+00 0. -1.
         11    1    1    2    0    0 -0.12523532726E+00 -0.11590710286E+00  0.92841881219E+00  0.94397038917E+00  0.51100000000E-03 0. -1.
    9000002    1    1    2    0    0  0.51750847960E+00  0.50338836358E+00  0.37498721490E+00  0.12416417689E+01  0.93800000000E+00 0. -1.
         22    1    1    2    0    0 -0.39227315234E+00 -0.38748126072E+00  0.26965939403E+01  0.27523878419E+01  0.00000000000E+00 0. -1.
</event>
<event>
 5    1  0.6776507E+001  0.1599664E+01  0.7818608E-02  0.3353728E+00
         11   -1    0    0    0    0  0.00000000000E+00  0.00000000000E+00  0.39999999674E+01  0.40000000000E+01  0.51100000000E-03 0.  1.
    9000002   -1    0    0    0    0 -0.00000000000E+00 -0.00000000000E+00  0.00000000000E+00  0.93800000000E+00  0.93800000000E+00 0.  1.
         11    1    1    2    0    0  0.85822381338E-01  0.72912899012E-01  0.10576379769E+01  0.10636165302E+01  0.51100000000E-03 0.  1.
    9000002    1    1    2    0    0 -0.30680503618E+00 -0.27902306213E+00  0.11624075332E+00  0.10321526593E+01  0.93800000000E+00 0.  1.
         22    1    1    2    0    0  0.22098265485E+00  0.20611016312E+00  0.28261212372E+01  0.28422308105E+01  0.00000000000E+00 0.  1.
</event>
<event>
 5    1  0.6776507E+001  0.1599675E+01  0.7818608E-02  0.3353716E+00
         11   -1    0    0    0    0  0.00000000000E+00  0.00000000000E+00  0.39999999674E+01  0.40000000000E+01  0.51100000000E-03 0.  1.
    9000002   -1    0    0    0    0 -0.00000000000E+00 -0.00000000000E+00  0.00000000000E+00  0.93800000000E+00  0.93800000000E+00 0. -1.
         11    1    1    2    0    0  0.75686095836E-01 -0.49958110717E-01  0.71953070296E+00  0.72522333909E+00  0.51100000000E-03 0.  1.
    9000002    1    1    2    0    0 -0.40292122162E+00  0.26064888075E+00  0.15712505056E+00  0.10652772556E+01  0.93800000000E+00 0. -1.
         22    1    1    2    0    0  0.32723512578E+00 -0.21069077003E+00  0.31233442138E+01  0.31474994053E+01  0.00000000000E+00 0.  1.
</event>
<event>
 5    1  0.6776507E+001  0.1594586E+01  0.7818608E-02  0.3359261E+00
         11   -1    0    0    0    0  0.00000000000E+00  0.00000000000E+00  0.39999999674E+01  0.40000000000E+01  0.51100000000E-03 0.  1.
    9000002   -1    0    0    0    0 -0.00000000000E+00 -0.00000000000E+00  0.00000000000E+00  0.93800000000E+00  0.93800000000E+00 0.  1.
         11    1    1    2    0    0  0.34175991563E-02 -0.28189854164E-01  0.10497658847E+00  0.10875060050E+00  0.51100000000E-03 0.  1.
    9000002    1    1    2    0    0  0.43977260293E+00  0.17094889269E+00  0.15619361685E+00  0.10615384648E+01  0.93800000000E+00 0.  1.
         22    1    1    2    0    0 -0.44319020209E+00 -0.14275903853E+00  0.37388297620E+01  0.37677109347E+01  0.00000000000E+00 0.  1.
</event>
<event>
 5    1  0.6776507E+001  0.1599672E+01  0.7818608E-02  0.3353720E+00
         11   -1    0    0    0    0  0.00000000000E+00  0.00000000000E+00  0.39999999674E+01  0.40000000000E+01  0.51100000000E-03 0.  1.
    9000002   -1    0    0    0    0 -0.00000000000E+00 -0.00000000000E+00  0.00000000000E+00  0.93800000000E+00  0.93800000000E+00 0. -1.
         11    1    1    2    0    0  0.12665806163E-01  0.14160081544E-01  0.17578946648E+00  0.17681382356E+00  0.51100000000E-03 0. -1.
    9000002    1    1    2    0    0 -0.30261853388E+00 -0.31322180653E+00  0.12856694849E+00  0.10421417070E+01  0.93800000000E+00 0. -1.
         22    1    1    2    0    0  0.28995272772E+00  0.29906172499E+00  0.36956435524E+01  0.37190444695E+01  0.00000000000E+00 0.  1.
</event>
<event>
 5    1  0.6776507E+001  0.1599655E+01  0.7818608E-02  0.3353738E+00
         11   -1    0    0    0    0  0.00000000000E+00  0.00000000000E+00  0.39999999674E+01  0.40000000000E+01  0.51100000000E-03 0.  1.
    9000002   -1    0    0    0    0 -0.00000000000E+00 -0.00000000000E+00  0.00000000000E+00  0.93800000000E+00  0.93800000000E+00 0.  1.
         11    1    1    2    0    0 -0.74886195845E-01 -0.11774839485E+00  0.76251871662E+00  0.77518235347E+00  0.51100000000E-03 0.  1.
    9000002    1    1    2    0    0  0.37931396562E+00  0.55543040220E+00  0.32102755964E+00  0.11980336849E+01  0.93800000000E+00 0.  1.
         22    1    1    2    0    0 -0.30442776977E+00 -0.43768200735E+00  0.29164536911E+01  0.29647839616E+01  0.00000000000E+00 0.  1.
</event>
<event>
 5    1  0.6776507E+001  0.1586734E+01  0.7818608E-02  0.3367888E+00
         11   -1    0    0    0    0  0.00000000000E+00  0.00000000000E+00  0.39999999674E+01  0.40000000000E+01  0.51100000000E-03 0.  1.
    9000002   -1    0    0    0    0 -0.00000000000E+00 -0.00000000000E+00  0.00000000000E+00  0.93800000000E+00  0.93800000000E+00 0.  1.
         11    1    1    2    0    0  0.38690923044E-01  0.70338174352E-01  0.99365627915E+00  0.99689393042E+00  0.51100000000E-03 0.  1.
    9000002    1    1    2    0    0  0.30557062367E+00 -0.17457043763E+00  0.93566966429E-01  0.10062042640E+01  0.93800000000E+00 0.  1.
         22    1    1    2    0    0 -0.34426154672E+00  0.10423226328E+00  0.29127767218E+01  0.29349018056E+01  0.00000000000E+00 0.  1.
</event>
<event>
 5    1  0.6776507E+001  0.1599260E+01  0.7818608E-02  0.3354167E+00
         11   -1    0    0    0    0  0.00000000000E+00  0.00000000000E+00  0.39999999674E+01  0.40000000000E+01  0.51100000000E-03 0. -1.
    9000002   -1    0    0    0    0 -0.00000000000E+00 -0.00000000000E+00  0.00000000000E+00  0.93800000000E+00  0.93800000000E+00 0.  1.
         11    1    1    2    0    0 -0.64268753812E-01 -0.24020748629E-01  0.66063401447E+00  0.66418749708E+00  0.51100000000E-03 0. -1.
    9000002    1    1    2    0    0  0.45062033318E+00  0.21424759750E+00  0.17077324009E+00  0.10760893166E+01  0.93800000000E+00 0.  1.
         22    1    1    2    0    0 -0.38635157936E+00 -0.19022684888E+00  0.31685927128E+01  0.31977231863E+01  0.00000000000E+00 0. -1.
</event>
<event>
 5    1  0.6776507E+001  0.1495210E+01  0.7818608E-02  0.3475592E+00
         11   -1    0    0    0    0  0.00000000000E+00  0.00000000000E+00  0.39999999674E+01  0.40000000000E+01  0.51100000000E-03 0. -1.
    9000002   -1    0    0    0    0 -0.00000000000E+00 -0.00000000000E+00  0.00000000000E+00  0.93800000000E+00  0.93800000000E+00 0.  1.
         11    1    1    2    0    0  0.11237115294E+00 -0.37460545173E-01  0.49789003731E-01  0.12849036723E+00  0.51100000000E-03 0. -1.
    9000002    1    1    2    0    0  0.13135460552E+00  0.50827123768E+00  0.29308002336E+00  0.11141515083E+01  0.93800000000E+00 0.  1.
         22    1    1    2    0    0 -0.24372575846E+00 -0.47081069251E+00  0.36571309403E+01  0.36953581244E+01  0.00000000000E+00 0. -1.
</event>
<event>
 5    1  0.6776507E+001  0.1599509E+01  0.7818608E-02  0.3353897E+00
         11   -1    0    0    0    0  0.00000000000E+00  0.00000000000E+00  0.39999999674E+01  0.40000000000E+01  0.51100000000E-03 0.  1.
    9000002   -1    0    0    0    0 -0.00000000000E+00 -0.00000000000E+00  0.00000000000E+00  0.93800000000E+00  0.93800000000E+00 0. -1.
         11    1    1    2    0    0 -0.97138212910E-01 -0.59839995031E-01  0.11794880381E+01  0.11849932281E+01  0.51100000000E-03 0.  1.
    9000002    1    1    2    0    0  0.33506013443E+00  0.24202718585E+00  0.11557923262E+00  0.10315255748E+01  0.93800000000E+00 0. -1.
         22    1    1    2    0    0 -0.23792192152E+00 -0.18218719082E+00  0.27049326967E+01  0.27214811972E+01  0.00000000000E+00 0.  1.
</event>
<event>
 5    1  0.6776507E+001  0.1599608E+01  0.7818608E-02  0.3353789E+00
         11   -1    0    0    0    0  0.00000000000E+00  0.00000000000E+00  0.39999999674E+01  0.40000000000E+01  0.51100000000E-03 0.  1.
    9000002   -1    0    0    0    0 -0.00000000000E+00 -0.00000000000E+00  0.00000000000E+00  0.93800000000E+00  0.93800000000E+00 0. -1.
         11    1    1    2    0    0  0.50567595926E-01  0.11034183566E+00  0.95763902292E+00  0.96530055516E+00  0.51100000000E-03 0.  1.
    9000002    1    1    2    0    0 -0.23632157169E+00 -0.44566943354E+00  0.17439162989E+00  0.10792245224E+01  0.93800000000E+00 0. -1.
         22    1    1    2    0    0  0.18575397576E+00  0.33532759788E+00  0.28679693146E+01  0.28934749224E+01  0.00000000000E+00 0.  1.
</event>
<event>
 5    1  0.6776507E+001  0.1597484E+01  0.7818608E-02  0.3356099E+00
         11   -1    0    0    0    0  0.00000000000E+00  0.00000000000E+00  0.39999999674E+01  0.40000000000E+01  0.51100000000E-03 0. -1.
    9000002   -1    0    0    0    0 -0.00000000000E+00 -0.00000000000E+00  0.00000000000E+00  0.93800000000E+00  0.93800000000E+00 0.  1.
         11    1    1    2    0    0 -0.17950456794E-01  0.22047679662E-01  0.10589996418E+00  0.10965118610E+00  0.51100000000E-03 0. -1.
    9000002    1    1    2    0    0  0.60583171824E-01 -0.46936924212E+00  0.15459400804E+00  0.10619421422E+01  0.93800000000E+00 0.  1.
         22    1    1    2    0    0 -0.42632715030E-01  0.44732156245E+00  0.37395059951E+01  0.37664066717E+01  0.00000000000E+00 0. -1.
</event>
<event>
 5    1  0.6776507E+001  0.1599633E+01  0.7818608E-02  0.3353762E+00
         11   -1    0    0    0    0  0.00000000000E+00  0.00000000000E+00  0.39999999674E+01  0.40000000000E+01  0.51100000000E-03 0. -1.
    9000002   -1    0    0    0    0 -0.00000000000E+00 -0.00000000000E+00  0.00000000000E+00  0.93800000000E+00  0.93800000000E+00 0. -1.
         11    1    1    2    0    0  0.78009119652E-01 -0.31851341827E+00  0.13854338807E+01  0.14237146903E+01  0.51100000000E-03 0. -1.
    9000002    1    1    2    0    0 -0.17994488625E+00  0.79637730289E+00  0.49388858937E+00  0.13380459295E+01  0.93800000000E+00 0. -1.
         22    1    1    2    0    0  0.10193576660E+00 -0.47786388462E+00  0.21206774973E+01  0.21762393802E+01  0.00000000000E+00 0. -1.
</event>
<event>
 5    1  0.6776507E+001  0.1591568E+01  0.7818608E-02  0.3362566E+00
         11   -1    0    0    0    0  0.00000000000E+00  0.00000000000E+00  0.39999999674E+01  0.40000000000E+01  0.51100000000E-03 0. -1.
    9000002   -1    0    0    0    0 -0.00000000000E+00 -0.00000000000E+00  0.00000000000E+00  0.93800000000E+00  0.93800000000E+00 0.  1.
         11    1    1    2    0    0  0.29309426733E-01 -0.13950267443E-01  0.12638758097E+00  0.13049036057E+00  0.51100000000E-03 0. -1.
    9000002    1    1    2    0    0  0.27482621368E+00  0.27751780573E+00  0.10950585128E+00  0.10219496620E+01  0.93800000000E+00 0.  1.
         22    1    1    2    0    0 -0.30413564041E+00 -0.26356753829E+00  0.37641065351E+01  0.37855599774E+01  0.00000000000E+00 0. -1.
</event>
<event>
 5    1  0.6776507E+001  0.1599672E+01  0.7818608E-02  0.3353720E+00
         11   -1    0    0    0    0  0.00000000000E+00  0.00000000000E+00  0.39999999674E+01  0.40000000000E+01  0.51100000000E-03 0.  1.
    9000002   -1    0    0    0    0 -0.00000000000E+00 -0.00000000000E+00  0.00000000000E+00  0.93800000000E+00  0.93800000000E+00 0.  1.
         11    1    1    2    0    0  0.13073076021E+00  0.35715579095E-01  0.14203325914E+01  0.14267834683E+01  0.51100000000E-03 0.  1.
    9000002    1    1    2    0    0 -0.36382909693E+00 -0.10374524618E+00  0.96291534624E-01  0.10159974151E+01  0.93800000000E+00 0.  1.
         22    1    1    2    0    0  0.23309833672E+00  0.68029667086E-01  0.24833758414E+01  0.24952191166E+01  0.00000000000E+00 0.  1.
</event>
<event>
 5    1  0.6776507E+001  0.1599485E+01  0.7818608E-02  0.3353923E+00
         11   -1    0    0    0    0  0.00000000000E+00  0.00000000000E+00  0.39999999674E+01  0.40000000000E+01  0.51100000000E-03 0. -1.
    9000002   -1    0    0    0    0 -0.00000000000E+00 -0.00000000000E+00  0.00000000000E+00  0.93800000000E+00  0.93800000000E+00 0. -1.
         11    1    1    2    0    0 -0.62887436116E-02 -0.71575107526E-01  0.70913153719E+00  0.71276247269E+00  0.51100000000E-03 0. -1.
    9000002    1    1    2    0    0 -0.34126911853E-01  0.37714013385E+00  0.96626975490E-01  0.10161594851E+01  0.93800000000E+00 0. -1.
         22    1    1    2    0    0  0.40415655465E-01 -0.30556502632E+00  0.31942414547E+01  0.32090780423E+01  0.00000000000E+00 0. -1.
</event>
<event>
 5    1  0.6776507E+001  0.1599677E+01  0.7818608E-02  0.3353714E+00
         11   -1    0    0    0    0  0.00000000000E+00  0.00000000000E+00  0.39999999674E+01  0.40000000000E+01  0.51100000000E-03 0. -1.
    9000002   -1    0    0    0    0 -0.00000000000E+00 -0.00000000000E+00  0.00000000000E+00  0.93800000000E+00  0.93800000000E+00 0.  1.
         11    1    1    2    0    0 -0.86761909304E-01 -0.50118203091E-03  0.78102555646E+00  0.78583017316E+00  0.51100000000E-03 0. -1.
    9000002    1    1    2    0    0  0.43036721398E+00  0.36154484938E-02  0.12545074685E+00  0.10396205559E+01  0.93800000000E+00 0.  1.
         22    1    1    2    0    0 -0.34360530468E+00 -0.31142664629E-02  0.30935236640E+01  0.31125492709E+01  0.00000000000E+00 0. -1.
</event>
<event>
 5    1  0.6776507E+001  0.1595958E+01  0.7818608E-02  0.3357762E+00
         11   -1    0    0    0    0  0.00000000000E+00  0.00000000000E+00  0.39999999674E+01  0.40000000000E+01  0.51100000000E-03 0. -1.
    9000002   -1    0    0    0    0 -0.00000000000E+00 -0.00000000000E+00  0.00000000000E+00  0.93800000000E+00  0.93800000000E+00 0.  1.
         11    1    1    2    0    0  0.15624738288E+00 -0.11687966757E+00  0.11791014577E+01  0.11951379042E+01  0.51100000000E-03 0. -1.
    9000002    1    1    2    0    0 -0.29871207725E+00  0.31969575308E+00  0.13297169527E+00  0.10435323432E+01  0.93800000000E+00 0.  1.
         22    1    1    2    0    0  0.14246469437E+00 -0.20281608551E+00  0.26879268144E+01  0.26993297526E+01  0.00000000000E+00 0. -1.
</event>
<event>
 5    1  0.7071951E+001  0.1599667E+01  0.7818608E-02  0.3353724E+00
         11   -1    0    0    0    0  0.00000000000E+00  0.00000000000E+00  0.39999999674E+01  0.40000000000E+01  0.51100000000E-03 0. -1.
    9000002   -1    0    0    0    0 -0.00000000000E+00 -0.00000000000E+00  0.00000000000E+00  0.93800000000E+00  0.93800000000E+00 0. -1.
         11    1    1    2    0    0  0.10832431082E+00 -0.70995062421E-01  0.13974075420E+01  0.14033967917E+01  0.51100000000E-03 0. -1.
    9000002    1    1    2    0    0 -0.29934602483E+00  0.20788119672E+00  0.89212001621E-01  0.10102600733E+01  0.93800000000E+00 0. -1.
         22    1    1    2    0    0  0.19102171401E+00 -0.13688613430E+00  0.25133804237E+01  0.25243431350E+01  0.00000000000E+00 0. -1.
</event>
<event>
 5    1  0.6776507E+001  0.1599665E+01  0.7818608E-02  0.3353728E+00
         11   -1    0    0    0    0  0.00000000000E+00  0.00000000000E+00  0.39999999674E+01  0.40000000000E+01  0.51100000000E-03 0.  1.
    9000002   -1    0    0    0    0 -0.00000000000E+00 -0.00000000000E+00  0.00000000000E+00  0.93800000000E+00  0.93800000000E+00 0.  1.
         11    1    1    2    0    0 -0.41056743017E-01 -0.55827826918E-01  0.56778672070E+00  0.57200037039E+00  0.51100000000E-03 0.  1.
    9000002    1    1    2    0    0  0.26263389648E+00  0.39123595752E+00  0.15130452937E+00  0.10605560799E+01  0.93800000000E+00 0.  1.
         22    1    1    2    0    0 -0.22157715346E+00 -0.33540813060E+00  0.32809087173E+01  0.33054435497E+01  0.00000000000E+00 0.  1.
</event>
<event>
 5    1  0.6776507E+001  0.1598185E+01  0.7818608E-02  0.3355335E+00
         11   -1    0    0    0    0  0.00000000000E+00  0.00000000000E+00  0.39999999674E+01  0.40000000000E+01  0.51100000000E-03 0.  1.
    9000002   -1    0    0    0    0 -0.00000000000E+00 -0.00000000000E+00  0.00000000000E+00  0.93800000000E+00  0.93800000000E+00 0. -1.
         11    1    1    2    0    0  0.58495691965E-01 -0.52991287295E-01  0.53285299271E+00  0.53866724002E+00  0.51100000000E-03 0.  1.
    9000002    1    1    2    0    0 -0.19336921738E+00  0.41855975046E+00  0.14592396218E+00  0.10553301482E+01  0.93800000000E+00 0. -1.
         22    1    1    2    0    0  0.13487352541E+00 -0.36556846316E+00  0.33212230125E+01  0.33440026118E+01  0.00000000000E+00 0.  1.
</event>
<event>
 5    1  0.6776507E+001  0.1599114E+01  0.7818608E-02  0.3354325E+00
         11   -1    0    0    0    0  0.00000000000E+00  0.00000000000E+00  0.39999999674E+01  0.40000000000E+01  0.51100000000E-03 0. -1.
    9000002   -1    0    0    0    0 -0.00000000000E+00 -0.00000000000E+00  0.00000000000E+00  0.93800000000E+00  0.93800000000E+00 0.  1.
         11    1    1    2    0    0 -0.11816156371E+00 -0.89731810840E-02  0.14254704171E+01  0.14303876553E+01  0.51100000000E-03 0. -1.
    9000002    1    1    2    0    0  0.34725506516E+00  0.96545803462E-01  0.87662281067E-01  0.10086802506E+01  0.93800000000E+00 0.  1.
         22    1    1    2    0    0 -0.22909350145E+00 -0.87572622378E-01  0.24868672691E+01  0.24989320941E+01  0.00000000000E+00 0. -1.
</event>
<event>
 5    1  0.6776507E+001  0.1599438E+01  0.7818608E-02  0.3353974E+00
         11   -1    0    0    0    0  0.00000000000E+00  0.00000000000E+00  0.39999999674E+01  0.40000000000E+01  0.51100000000E-03 0. -1.
    9000002   -1    0    0    0    0 -0.00000000000E+00 -0.00000000000E+00  0.00000000000E+00  0.93800000000E+00  0.93800000000E+00 0.  1.
         11    1    1    2    0    0  0.38704110809E-02  0.41010485554E-01  0.31130575990E+00  0.31401970842E+00  0.51100000000E-03 0. -1.
    9000002    1    1    2    0    0 -0.27141458346E-01 -0.38830503860E+00  0.10226023112E+00  0.10206951634E+01  0.93800000000E+00 0.  1.
         22    1    1    2    0    0  0.23271047265E-01  0.34729455304E+00  0.35864339763E+01  0.36032851282E+01  0.00000000000E+00 0. -1.
</event>
<event>
 5    1  0.6776507E+001  0.1599675E+01  0.7818608E-02  0.3353717E+00
         11   -1    0    0    0    0  0.00000000000E+00  0.00000000000E+00  0.39999999674E+01  0.40000000000E+01  0.51100000000E-03 0. -1.
    9000002   -1    0    0    0    0 -0.00000000000E+00 -0.00000000000E+00  0.00000000000E+00  0.93800000000E+00  0.93800000000E+00 0.  1.
         11    1    1    2    0    0 -0.12702791610E+00  0.27649007413E-01  0.12653548358E+01  0.12720155977E+01  0.51100000000E-03 0. -1.
    9000002    1    1    2    0    0  0.39575364044E+00 -0.83651002841E-01  0.11043011688E+00  0.10274518212E+01  0.93800000000E+00 0.  1.
         22    1    1    2    0    0 -0.26872572434E+00  0.56001995428E-01  0.26242150146E+01  0.26385325811E+01  0.00000000000E+00 0. -1.
</event>
<event>
 5    1  0.6776507E+001  0.1545856E+01  0.7818608E-02  0.3414311E+00
         11   -1    0    0    0    0  0.00000000000E+00  0.00000000000E+00  0.39999999674E+01  0.40000000000E+01  0.51100000000E-03 0. -1.
    9000002   -1    0    0    0    0 -0.00000000000E+00 -0.00000000000E+00  0.00000000000E+00  0.93800000000E+00  0.93800000000E+00 0. -1.
         11    1    1    2    0    0  0.13400284801E-01 -0.13587456102E+00  0.39418978708E+00  0.41716581035E+00  0.51100000000E-03 0. -1.
    9000002    1    1    2    0    0  0.44230725150E+00 -0.23769617142E+00  0.22297229014E+00  0.10870583318E+01  0.93800000000E+00 0. -1.
         22    1    1    2    0    0 -0.45570753630E+00  0.37357073244E+00  0.33828378901E+01  0.34337758578E+01  0.00000000000E+00 0. -1.
</event>
<event>
 5    1  0.6776507E+001  0.1599677E+01  0.7818608E-02  0.3353714E+00
         11   -1    0    0    0    0  0.00000000000E+00  0.00000000000E+00  0.39999999674E+01  0.40000000000E+01  0.51100000000E-03 0. -1.
    9000002   -1    0    0    0    0 -0.00000000000E+00 -0.00000000000E+00  0.00000000000E+00  0.93800000000E+00  0.93800000000E+00 0.  1.
         11    1    1    2    0    0  0.12688155355E+00  0.82472015624E-02  0.14070623205E+01  0.14127956611E+01  0.51100000000E-03 0.  1.
    9000002    1    1    2    0    0 -0.35359138482E+00 -0.22661565541E-01  0.84216536783E-01  0.10062190810E+01  0.93800000000E+00 0.  1.
         22    1    1    2    0    0  0.22670983127E+00  0.14414363978E-01  0.25087211100E+01  0.25189852579E+01  0.00000000000E+00 0. -1.
</event>
<event>
 5    1  0.6776507E+001  0.1592916E+01  0.7818608E-02  0.3361088E+00
         11   -1    0    0    0    0  0.00000000000E+00  0.00000000000E+00  0.39999999674E+01  0.40000000000E+01  0.51100000000E-03 0.  1.
    9000002   -1    0    0    0    0 -0.00000000000E+00 -0.00000000000E+00  0.00000000000E+00  0.93800000000E+00  0.93800000000E+00 0.  1.
         11    1    1    2    0    0  0.93424267984E-01  0.19301882031E+00  0.10408366688E+01  0.10626973187E+01  0.51100000000E-03 0.  1.
    9000002    1    1    2    0    0 -0.26726966673E+00 -0.39357894062E+00  0.16031733469E+00  0.10638999507E+01  0.93800000000E+00 0.  1.
         22    1    1    2    0    0  0.17384539875E+00  0.20056012030E+00  0.27988459638E+01  0.28114027306E+01  0.00000000000E+00 0.  1.
</event>
<event>
 5    1  0.6776507E+001  0.1599647E+01  0.7818608E-02  0.3353746E+00
         11   -1    0    0    0    0  0.00000000000E+00  0.00000000000E+00  0.39999999674E+01  0.40000000000E+01  0.51100000000E-03 0.  1.
    9000002   -1    0    0    0    0 -0.00000000000E+00 -0.00000000000E+00  0.00000000000E+00  0.93800000000E+00  0.93800000000E+00 0.  1.
         11    1    1    2    0    0 -0.10316517026E+00  0.15805874097E+00  0.14090522697E+01  0.14216378505E+01  0.51100000000E-03 0.  1.
    9000002    1    1    2    0    0  0.29576210643E+00 -0.42264636770E+00  0.18268645813E+00  0.10859666283E+01  0.93800000000E+00 0.  1.
         22    1    1    2    0    0 -0.19259693617E+00  0.26458762673E+00  0.24082612395E+01  0.24303955212E+01  0.00000000000E+00 0.  1.
</event>
<event>
 5    1  0.6776507E+001  0.1599677E+01  0.7818608E-02  0.3353714E+00
         11   -1    0    0    0    0  0.00000000000E+00  0.00000000000E+00  0.39999999674E+01  0.40000000000E+01  0.51100000000E-03 0.  1.
    9000002   -1    0    0    0    0 -0.00000000000E+00 -0.00000000000E+00  0.00000000000E+00  0.93800000000E+00  0.93800000000E+00 0. -1.
         11    1    1    2    0    0  0.15533465891E+00  0.87734657118E-01  0.14554056032E+01  0.14662987271E+01  0.51100000000E-03 0.  1.
    9000002    1    1    2    0    0 -0.40928900536E+00 -0.23215171375E+00  0.15084867411E+00  0.10601939589E+01  0.93800000000E+00 0. -1.
         22    1    1    2    0    0  0.25395434645E+00  0.14441705663E+00  0.23937456901E+01  0.24115073139E+01  0.00000000000E+00 0.  1.
</event>
<event>
 5    1  0.6776507E+001  0.1599667E+01  0.7818608E-02  0.3353725E+00
         11   -1    0    0    0    0  0.00000000000E+00  0.00000000000E+00  0.39999999674E+01  0.40000000000E+01  0.51100000000E-03 0. -1.
    9000002   -1    0    0    0    0 -0.00000000000E+00 -0.00000000000E+00  0.00000000000E+00  0.93800000000E+00  0.93800000000E+00 0.  1.
         11    1    1    2    0    0 -0.77039145214E-01 -0.11289224241E+00  0.11409669827E+01  0.11491238423E+01  0.51100000000E-03 0. -1.
    9000002    1    1    2    0    0  0.25308388329E+00  0.37304446686E+00  0.13804438078E+00  0.10498161159E+01  0.93800000000E+00 0.  1.
         22    1    1    2    0    0 -0.17604473808E+00 -0.26015222446E+00  0.27209886039E+01  0.27390600418E+01  0.00000000000E+00 0. -1.
</event>
<event>
 5    1  0.6776507E+001  0.1599676E+01  0.7818608E-02  0.3353715E+00
         11   -1    0    0    0    0  0.00000000000E+00  0.00000000000E+00  0.39999999674E+01  0.40000000000E+01  0.51100000000E-03 0. -1.
    9000002   -1    0    0    0    0 -0.00000000000E+00 -0.00000000000E+00  0.00000000000E+00  0.93800000000E+00  0.93800000000E+00 0. -1.
         11    1    1    2    0    0 -0.92770679264E-01 -0.53322002232E-01  0.65877578540E+00  0.66740949305E+00  0.51100000000E-03 0.  1.
    9000002    1    1    2    0    0  0.52747910437E+00  0.30738730306E+00  0.26064000593E+00  0.11491293976E+01  0.93800000000E+00 0. -1.
         22    1    1    2    0    0 -0.43470842510E+00 -0.25406530082E+00  0.30805841760E+01  0.31214611094E+01  0.00000000000E+00 0. -1.
</event>
<event>
 5    1  0.6776507E+001  0.1486104E+01  0.7818608E-02  0.3487086E+00
         11   -1    0    0    0    0  0.00000000000E+00  0.00000000000E+00  0.39999999674E+01  0.40000000000E+01  0.51100000000E-03 0. -1.
    9000002   -1    0    0    0    0 -0.00000000000E+00 -0.00000000000E+00  0.00000000000E+00  0.93800000000E+00  0.93800000000E+00 0.  1.
         11    1    1    2    0    0 -0.35461250583E+00  0.84092288322E-01  0.90235685325E+00  0.97317505824E+00  0.51100000000E-03 0. -1.
    9000002    1    1    2    0    0  0.53905448580E-01 -0.14326658713E+00  0.10461649831E+00  0.95614837975E+00  0.93800000000E+00 0.  1.
         22    1    1    2    0    0  0.30070705725E+00  0.59174298809E-01  0.29930266158E+01  0.30086765620E+01  0.00000000000E+00 0. -1.
</event>
<event>
 5    1  0.6776507E+001  0.1537985E+01  0.7818608E-02  0.3423551E+00
         11   -1    0    0    0    0  0.00000000000E+00  0.00000000000E+00  0.39999999674E+01  0.40000000000E+01  0.51100000000E-03 0. -1.
    9000002   -1    0    0    0    0 -0.00000000000E+00 -0.00000000000E+00  0.00000000000E+00  0.93800000000E+00  0.93800000000E+00 0. -1.
         11    1    1    2    0    0  0.28585802644E+00  0.10259454427E+00  0.12381056629E+01  0.12748122785E+01  0.51100000000E-03 0. -1.
    9000002    1    1    2    0    0 -0.14353030684E+00  0.11915115921E+00  0.70541402489E-01  0.95896717211E+00  0.93800000000E+00 0. -1.
         22    1    1    2    0    0 -0.14232771960E+00 -0.22174570347E+00  0.26913529020E+01  0.27042205494E+01  0.00000000000E+00 0. -1.
</event>
<event>
 5    1  0.6776507E+001  0.1599664E+01  0.7818608E-02  0.3353728E+00
         11   -1    0    0    0    0  0.00000000000E+00  0.00000000000E+00  0.39999999674E+01  0.40000000000E+01  0.51100000000E-03 0. -1.
    9000002   -1    0    0    0    0 -0.00000000000E+00 -0.00000000000E+00  0.00000000000E+00  0.93800000000E+00  0.93800000000E+00 0.  1.
         11    1    1    2    0    0 -0.24876762293E-01  0.26254903825E-01  0.40485728255E+00  0.40646999106E+00  0.51100000000E-03 0. -1.
    9000002    1    1    2    0    0  0.26184407809E+00 -0.26526137895E+00  0.93403858066E-01  0.10136538862E+01  0.93800000000E+00 0.  1.
         22    1    1    2    0    0 -0.23696731580E+00  0.23900647513E+00  0.35017388267E+01  0.35178761227E+01  0.00000000000E+00 0. -1.
</event>
<event>
 5    1  0.6776507E+001  0.1599677E+01  0.7818608E-02  0.3353714E+00
         11   -1    0    0    0    0  0.00000000000E+00  0.00000000000E+00  0.39999999674E+01  0.40000000000E+01  0.51100000000E-03 0.  1.
    9000002   -1    0    0    0    0 -0.00000000000E+00 -0.00000000000E+00  0.00000000000E+00  0.93800000000E+00  0.93800000000E+00 0. -1.
         11    1    1    2    0    0  0.55097239627E-01  0.93529588280E-01  0.10426793123E+01  0.10483147901E+01  0.51100000000E-03 0.  1.
    9000002    1    1    2    0    0 -0.20444850743E+00 -0.35023363234E+00  0.11101318871E+00  0.10279254435E+01  0.93800000000E+00 0. -1.
         22    1    1    2    0    0  0.14935126780E+00  0.25670404406E+00  0.28463074663E+01  0.28617597663E+01  0.00000000000E+00 0. -1.
</event>
<event>
 5    1  0.6776507E+001  0.1580327E+01  0.7818608E-02  0.3374996E+00
         11   -1    0    0    0    0  0.00000000000E+00  0.00000000000E+00  0.39999999674E+01  0.40000000000E+01  0.51100000000E-03 0. -1.
    9000002   -1    0    0    0    0 -0.00000000000E+00 -0.00000000000E+00  0.00000000000E+00  0.93800000000E+00  0.93800000000E+00 0. -1.
         11    1    1    2    0    0 -0.56182940117E-01 -0.28382156057E-01  0.11144904235E+00  0.12799695193E+00  0.51100000000E-03 0. -1.
    9000002    1    1    2    0    0  0.14709057247E-01  0.41688338144E+00  0.13412009000E+00  0.10352972079E+01  0.93800000000E+00 0. -1.
         22    1    1    2    0    0  0.41473882871E-01 -0.38850122539E+00  0.37544308350E+01  0.37747058402E+01  0.00000000000E+00 0. -1.
</event>
<event>
 5    1  0.6776507E+001  0.1550862E+01  0.7818608E-02  0.3408486E+00
         11   -1    0    0    0    0  0.00000000000E+00  0.00000000000E+00  0.39999999674E+01  0.40000000000E+01  0.51100000000E-03 0.  1.
    9000002   -1    0    0    0    0 -0.00000000000E+00 -0.00000000000E+00  0.00000000000E+00  0.93800000000E+00  0.93800000000E+00 0.  1.
         11    1    1    2    0    0 -0.10772528317E+00  0.12887950781E+00  0.57419144478E+00  0.59825641706E+00  0.51100000000E-03 0.  1.
    9000002    1    1    2    0    0 -0.23494850062E+00 -0.31833479432E-01  0.75373702869E-01  0.97043256512E+00  0.93800000000E+00 0.  1.
         22    1    1    2    0    0  0.34267378379E+00 -0.97046028382E-01  0.33504348197E+01  0.33693110178E+01  0.00000000000E+00 0.  1.
</event>
<event>
 5    1  0.6776507E+001  0.1599675E+01  0.7818608E-02  0.3353717E+00
         11   -1    0    0    0    0  0.00000000000E+00  0.00000000000E+00  0.39999999674E+01  0.40000000000E+01  0.51100000000E-03 0. -1.
    9000002   -1    0    0    0    0 -0.00000000000E+00 -0.00000000000E+00  0.00000000000E+00  0.93800000000E+00  0.93800000000E+00 0. -1.
         11    1    1    2    0    0 -0.67305176061E-01 -0.19059430613E+00  0.14505859804E+01  0.14646010118E+01  0.51100000000E-03 0. -1.
    9000002    1    1    2    0    0  0.17799585600E+00  0.49596639281E+00  0.19097081847E+00  0.10926934799E+01  0.93800000000E+00 0. -1.
         22    1    1    2    0    0 -0.11069067994E+00 -0.30537208668E+00  0.23584431685E+01  0.23807055082E+01  0.00000000000E+00 0.  1.
</event>
<event>
 5    1  0.6776507E+001  0.1599017E+01  0.7818608E-02  0.3354431E+00
         11   -1    0    0    0    0  0.00000000000E+00  0.00000000000E+00  0.39999999674E+01  0.40000000000E+01  0.51100000000E-03 0.  1.
    9000002   -1    0    0    0    0 -0.00000000000E+00 -0.00000000000E+00  0.00000000000E+00  0.93800000000E+00  0.93800000000E+00 0. -1.
         11    1    1    2    0    0 -0.86425526416E-01  0.90864400612E-02  0.79341383246E+00  0.79815894763E+00  0.51100000000E-03 0.  1.
    9000002    1    1    2    0    0  0.36428419300E+00  0.61351599483E-01  0.92242757760E-01  0.10123337979E+01  0.93800000000E+00 0. -1.
         22    1    1    2    0    0 -0.27785866659E+00 -0.70438039545E-01  0.31143433771E+01  0.31275072545E+01  0.00000000000E+00 0.  1.
</event>
<event>
 5    1  0.6776507E+001  0.1470511E+01  0.7818608E-02  0.3507128E+00
         11   -1    0    0    0    0  0.00000000000E+00  0.00000000000E+00  0.39999999674E+01  0.40000000000E+01  0.51100000000E-03 0. -1.
    9000002   -1    0    0    0    0 -0.00000000000E+00 -0.00000000000E+00  0.00000000000E+00  0.93800000000E+00  0.93800000000E+00 0. -1.
         11    1    1    2    0    0  0.20255717664E+00  0.21686033425E+00  0.53004953609E+00  0.60746241547E+00  0.51100000000E-03 0. -1.
    9000002    1    1    2    0    0 -0.37274309562E+00  0.37596519852E+00  0.32410412426E+00  0.11247998618E+01  0.93800000000E+00 0. -1.
         22    1    1    2    0    0  0.17018591898E+00 -0.59282553277E+00  0.31458463070E+01  0.32057377227E+01  0.00000000000E+00 0. -1.
</event>
<event>
 5    1  0.6776507E+001  0.1599673E+01  0.7818608E-02  0.3353718E+00
         11   -1    0    0    0    0  0.00000000000E+00  0.00000000000E+00  0.39999999674E+01  0.40000000000E+01  0.51100000000E-03 0.  1.
    9000002   -1    0    0    0    0 -0.00000000000E+00 -0.00000000000E+00  0.00000000000E+00  0.93800000000E+00  0.93800000000E+00 0.  1.
         11    1    1    2    0    0  0.27789232919E-02  0.51195731244E-01  0.53318573049E+00  0.53564541408E+00  0.51100000000E-03 0.  1.
    9000002    1    1    2    0    0 -0.22580347935E-01 -0.38597399602E+00  0.10066491498E+00  0.10195406921E+01  0.93800000000E+00 0.  1.
         22    1    1    2    0    0  0.19801424643E-01  0.33477826477E+00  0.33661493219E+01  0.33828138938E+01  0.00000000000E+00 0.  1.
</event>
<event>
 5    1  0.6776507E+001  0.1599151E+01  0.7818608E-02  0.3354286E+00
         11   -1    0    0    0    0  0.00000000000E+00  0.00000000000E+00  0.39999999674E+01  0.40000000000E+01  0.51100000000E-03 0. -1.
    9000002   -1    0    0    0    0 -0.00000000000E+00 -0.00000000000E+00  0.00000000000E+00  0.93800000000E+00  0.93800000000E+00 0. -1.
         11    1    1    2    0    0 -0.97705563372E-01 -0.91517857840E-01  0.12781429728E+01  0.12851348627E+01  0.51100000000E-03 0. -1.
    9000002    1    1    2    0    0  0.36671205754E+00  0.24301220571E+00  0.13170299013E+00  0.10443765331E+01  0.93800000000E+00 0. -1.
         22    1    1    2    0    0 -0.26900649417E+00 -0.15149434787E+00  0.25901540044E+01  0.26084886042E+01  0.00000000000E+00 0. -1.
</event>
<event>
 5    1  0.6776507E+001  0.1599676E+01  0.7818608E-02  0.3353715E+00
         11   -1    0    0    0    0  0.00000000000E+00  0.00000000000E+00  0.39999999674E+01  0.40000000000E+01  0.51100000000E-03 0.  1.
    9000002   -1    0    0    0    0 -0.00000000000E+00 -0.00000000000E+00  0.00000000000E+00  0.93800000000E+00  0.93800000000E+00 0. -1.
         11    1    1    2    0    0 -0.15010938829E+00  0.64571903268E-01  0.12607886173E+01  0.12713341645E+01  0.51100000000E-03 0.  1.
    9000002    1    1    2    0    0  0.45795601146E+00 -0.19456564948E+00  0.16941372737E+00  0.10752323058E+01  0.93800000000E+00 0. -1.
         22    1    1    2    0    0 -0.30784662317E+00  0.12999374621E+00  0.25697976227E+01  0.25914335297E+01  0.00000000000E+00 0.  1.
</event>
<event>
 5    1  0.6776507E+001  0.1599669E+01  0.7818608E-02  0.3353723E+00
         11   -1    0    0    0    0  0.00000000000E+00  0.00000000000E+00  0.39999999674E+01  0.40000000000E+01  0.51100000000E-03 0.  1.
    9000002   -1    0    0    0    0 -0.00000000000E+00 -0.00000000000E+00  0.00000000000E+00  0.93800000000E+00  0.93800000000E+00 0.  1.
         11    1    1    2    0    0 -0.11139712200E+00 -0.11764864306E+00  0.10125630206E+01  0.10254436376E+01  0.51100000000E-03 0.  1.
    9000002    1    1    2    0    0  0.42290391908E+00  0.43496074901E+00  0.25715665901E+00  0.11463036793E+01  0.93800000000E+00 0.  1.
         22    1    1    2    0    0 -0.31150679708E+00 -0.31731210595E+00  0.27302802877E+01  0.27662526831E+01  0.00000000000E+00 0.  1.
</event>
<event>
 5    1  0.6776507E+001  0.1597725E+01  0.7818608E-02  0.3355836E+00
         11   -1    0    0    0    0  0.00000000000E+00  0.00000000000E+00  0.39999999674E+01  0.40000000000E+01  0.51100000000E-03 0.  1.
    9000002   -1    0    0    0    0 -0.00000000000E+00 -0.00000000000E+00  0.00000000000E+00  0.93800000000E+00  0.93800000000E+00 0.  1.
         11    1    1    2    0    0  0.14591917612E+00 -0.62846520030E-01  0.13197017858E+01  0.13292310392E+01  0.51100000000E-03 0.  1.
    9000002    1    1    2    0    0 -0.36939937796E+00  0.31896529874E+00  0.16447766417E+00  0.10700895590E+01  0.93800000000E+00 0.  1.
         22    1    1    2    0    0  0.22348020184E+00 -0.25611877871E+00  0.25158205174E+01  0.25386794018E+01  0.00000000000E+00 0.  1.
</event>
<event>
 5    1  0.6776507E+001  0.1599610E+01  0.7818608E-02  0.3353787E+00
         11   -1    0    0    0    0  0.00000000000E+00  0.00000000000E+00  0.39999999674E+01  0.40000000000E+01  0.51100000000E-03 0.  1.
    9000002   -1    0    0    0    0 -0.00000000000E+00 -0.00000000000E+00  0.00000000000E+00  0.93800000000E+00  0.93800000000E+00 0. -1.
         11    1    1    2    0    0  0.52724846616E-02  0.14984217585E-02  0.39113599695E-01  0.39499103336E-01  0.51100000000E-03 0.  1.
    9000002    1    1    2    0    0 -0.33752460165E+00 -0.17585554164E+00  0.97521572797E-01  0.10169574649E+01  0.93800000000E+00 0. -1.
         22    1    1    2    0    0  0.33225211699E+00  0.17435711988E+00  0.38633647949E+01  0.38815434318E+01  0.00000000000E+00 0.  1.
</event>
<event>
 5    1  0.6776507E+001  0.1599677E+01  0.7818608E-02  0.3353714E+00
         11   -1    0    0    0    0  0.00000000000E+00  0.00000000000E+00  0.39999999674E+01  0.40000000000E+01  0.51100000000E-03 0. -1.
    9000002   -1    0    0    0    0 -0.00000000000E+00 -0.00000000000E+00  0.00000000000E+00  0.93800000000E+00  0.93800000000E+00 0.  1.
         11    1    1    2    0    0 -0.16251019055E+00 -0.43110859570E-01  0.14890994023E+01  0.14985611096E+01  0.51100000000E-03 0. -1.
    9000002    1    1    2    0    0  0.42218093116E+00  0.11328802090E+00  0.12953036981E+00  0.10429252279E+01  0.93800000000E+00 0.  1.
         22    1    1    2    0    0 -0.25967074061E+00 -0.70177161331E-01  0.23813701953E+01  0.23965136625E+01  0.00000000000E+00 0. -1.
</event>
<event>
 5    1  0.6776507E+001  0.1599652E+01  0.7818608E-02  0.3353741E+00
         11   -1    0    0    0    0  0.00000000000E+00  0.00000000000E+00  0.39999999674E+01  0.40000000000E+01  0.51100000000E-03 0.  1.
    9000002   -1    0    0    0    0 -0.00000000000E+00 -0.00000000000E+00  0.00000000000E+00  0.93800000000E+00  0.93800000000E+00 0. -1.
         11    1    1    2    0    0  0.59045973614E-01  0.37459352317E-01  0.46645810248E+00  0.47167049152E+00  0.51100000000E-03 0.  1.
    9000002    1    1    2    0    0 -0.45592855246E+00 -0.28510603326E+00  0.19928585857E+00  0.10994158215E+01  0.93800000000E+00 0. -1.
         22    1    1    2    0    0  0.39688257884E+00  0.24764668094E+00  0.33342560063E+01  0.33669136870E+01  0.00000000000E+00 0.  1.
</event>
<event>
 5    1  0.6776507E+001  0.1597752E+01  0.7818608E-02  0.3355807E+00
         11   -1    0    0    0    0  0.00000000000E+00  0.00000000000E+00  0.39999999674E+01  0.40000000000E+01  0.51100000000E-03 0.  1.
    9000002   -1    0    0    0    0 -0.00000000000E+00 -0.00000000000E+00  0.00000000000E+00  0.93800000000E+00  0.93800000000E+00 0. -1.
         11    1    1    2    0    0 -0.10122458849E+00  0.13449340465E+00  0.14793370981E+01  0.14888832742E+01  0.51100000000E-03 0.  1.
    9000002    1    1    2    0    0  0.38655392090E+00 -0.29965563849E+00  0.16518199195E+00  0.10706757333E+01  0.93800000000E+00 0. -1.
         22    1    1    2    0    0 -0.28532933241E+00  0.16516223384E+00  0.23554808773E+01  0.23784409925E+01  0.00000000000E+00 0.  1.
</event>
<event>
 5    1  0.6776507E+001  0.1578821E+01  0.7818608E-02  0.3376676E+00
         11   -1    0    0    0    0  0.00000000000E+00  0.00000000000E+00  0.39999999674E+01  0.40000000000E+01  0.51100000000E-03 0. -1.
    9000002   -1    0    0    0    0 -0.00000000000E+00 -0.00000000000E+00  0.00000000000E+00  0.93800000000E+00  0.93800000000E+00 0. -1.
         11    1    1    2    0    0 -0.16193908946E+00 -0.26288595399E+00  0.60093116324E+00  0.67561217986E+00  0.51100000000E-03 0. -1.
    9000002    1    1    2    0    0  0.48896107216E+00  0.77635708572E+00  0.68359602849E+00  0.14795136988E+01  0.93800000000E+00 0. -1.
         22    1    1    2    0    0 -0.32702198271E+00 -0.51347113173E+00  0.27154727756E+01  0.27828741214E+01  0.00000000000E+00 0. -1.
</event>
<event>
 5    1  0.6776507E+001  0.1599676E+01  0.7818608E-02  0.3353715E+00
         11   -1    0    0    0    0  0.00000000000E+00  0.00000000000E+00  0.39999999674E+01  0.40000000000E+01  0.51100000000E-03 0.  1.
    9000002   -1    0    0    0    0 -0.00000000000E+00 -0.00000000000E+00  0.00000000000E+00  0.93800000000E+00  0.93800000000E+00 0. -1.
         11    1    1    2    0    0 -0.64459535837E-01 -0.30864992722E-01  0.72896593776E+00  0.73246111096E+00  0.51100000000E-03 0.  1.
    9000002    1    1    2    0    0  0.34908383999E+00  0.16257291242E+00  0.99837885953E-01  0.10188724565E+01  0.93800000000E+00 0. -1.
         22    1    1    2    0    0 -0.28462430415E+00 -0.13170791969E+00  0.31711961436E+01  0.31866664325E+01  0.00000000000E+00 0.  1.
</event>
<event>
 5    1  0.6776507E+001  0.1556525E+01  0.7818608E-02  0.3401945E+00
         11   -1    0    0    0    0  0.00000000000E+00  0.00000000000E+00  0.39999999674E+01  0.40000000000E+01  0.51100000000E-03 0. -1.
    9000002   -1    0    0    0    0 -0.00000000000E+00 -0.00000000000E+00  0.00000000000E+00  0.93800000000E+00  0.93800000000E+00 0.  1.
         11    1    1    2    0    0  0.12399854664E+00  0.19680372676E+00  0.13534588516E+01  0.13733020318E+01  0.51100000000E-03 0. -1.
    9000002    1    1    2    0    0 -0.12621228692E+00  0.77005383833E-01  0.46965611042E-01  0.95074136290E+00  0.93800000000E+00 0.  1.
         22    1    1    2    0    0  0.22137402829E-02 -0.27380911059E+00  0.25995755047E+01  0.26139566053E+01  0.00000000000E+00 0. -1.
</event>
<event>
 5    1  0.6776507E+001  0.1598576E+01  0.7818608E-02  0.3354910E+00
         11   -1    0    0    0    0  0.00000000000E+00  0.00000000000E+00  0.39999999674E+01  0.40000000000E+01  0.51100000000E-03 0. -1.
    9000002   -1    0    0    0    0 -0.00000000000E+00 -0.00000000000E+00  0.00000000000E+00  0.93800000000E+00  0.93800000000E+00 0.  1.
         11    1    1    2    0    0  0.61407152460E-01 -0.31268996852E+00  0.13009898218E+01  0.13394478834E+01  0.51100000000E-03 0. -1.
    9000002    1    1    2    0    0 -0.22511109683E+00  0.76138714079E+00  0.46482635476E+00  0.13138846693E+01  0.93800000000E+00 0.  1.
         22    1    1    2    0    0  0.16370394437E+00 -0.44869717228E+00  0.22341837908E+01  0.22846674473E+01  0.00000000000E+00 0. -1.
</event>
<event>
 5    1  0.6776507E+001  0.1599663E+01  0.7818608E-02  0.3353729E+00
         11   -1    0    0    0    0  0.00000000000E+00  0.00000000000E+00  0.39999999674E+01  0.40000000000E+01  0.51100000000E-03 0. -1.
    9000002   -1    0    0    0    0 -0.00000000000E+00 -0.00000000000E+00  0.00000000000E+00  0.93800000000E+00  0.93800000000E+00 0. -1.
         11    1    1    2    0    0  0.44595076520E-01  0.98191811070E-01  0.10750420245E+01  0.10804378595E+01  0.51100000000E-03 0. -1.
    9000002    1    1    2    0    0 -0.17359867930E+00 -0.36346137276E+00  0.10948570712E+00  0.10266799847E+01  0.93800000000E+00 0. -1.
         22    1    1    2    0    0  0.12900360278E+00  0.26526956169E+00  0.28154722357E+01  0.28308821558E+01  0.00000000000E+00 0. -1.
</event>
<event>
 5    1  0.6776507E+001  0.1599676E+01  0.7818608E-02  0.3353715E+00
         11   -1    0    0    0    0  0.00000000000E+00  0.00000000000E+00  0.39999999674E+01  0.40000000000E+01  0.51100000000E-03 0.  1.
    9000002   -1    0    0    0    0 -0.00000000000E+00 -0.00000000000E+00  0.00000000000E+00  0.93800000000E+00  0.93800000000E+00 0. -1.
         11    1    1    2    0    0 -0.55651400494E-01  0.14347566371E+00  0.11598182587E+01  0.11699833327E+01  0.51100000000E-03 0.  1.
    9000002    1    1    2    0    0  0.18528994660E+00 -0.47070376659E+00  0.17534840974E+00  0.10800395664E+01  0.93800000000E+00 0. -1.
         22    1    1    2    0    0 -0.12963854611E+00  0.32722810289E+00  0.26648332989E+01  0.26879771009E+01  0.00000000000E+00 0. -1.
</event>
<event>
 5    1  0.6776507E+001  0.1597909E+01  0.7818608E-02  0.3355636E+00
         11   -1    0    0    0    0  0.00000000000E+00  0.00000000000E+00  0.39999999674E+01  0.40000000000E+01  0.51100000000E-03 0.  1.
    9000002   -1    0    0    0    0 -0.00000000000E+00 -0.00000000000E+00  0.00000000000E+00  0.93800000000E+00  0.93800000000E+00 0. -1.
         11    1    1    2    0    0 -0.98292481694E-01  0.31895145600E-01  0.61268353690E+00  0.62133733976E+00  0.51100000000E-03 0.  1.
    9000002    1    1    2    0    0  0.38680543358E+00 -0.23151160672E+00  0.13956686860E+00  0.10500185609E+01  0.93800000000E+00 0. -1.
         22    1    1    2    0    0 -0.28851295189E+00  0.19961646112E+00  0.32477495619E+01  0.32666440993E+01  0.00000000000E+00 0.  1.
</event>
<event>
 5    1  0.6776507E+001  0.1599124E+01  0.7818608E-02  0.3354315E+00
         11   -1    0    0    0    0  0.00000000000E+00  0.00000000000E+00  0.39999999674E+01  0.40000000000E+01  0.51100000000E-03 0.  1.
    9000002   -1    0    0    0    0 -0.00000000000E+00 -0.00000000000E+00  0.00000000000E+00  0.93800000000E+00  0.93800000000E+00 0.  1.
         11    1    1    2    0    0 -0.90115619077E-01  0.81159317556E-02  0.80519281471E+00  0.81026071306E+00  0.51100000000E-03 0.  1.
    9000002    1    1    2    0    0  0.37024537874E+00  0.49503936555E-01  0.94262369936E-01  0.10140323834E+01  0.93800000000E+00 0.  1.
         22    1    1    2    0    0 -0.28012975967E+00 -0.57619868310E-01  0.31005447827E+01  0.31137069035E+01  0.00000000000E+00 0.  1.
</event>
<event>
 5    1  0.6776507E+001  0.1599676E+01  0.7818608E-02  0.3353716E+00
         11   -1    0    0    0    0  0.00000000000E+00  0.00000000000E+00  0.39999999674E+01  0.40000000000E+01  0.51100000000E-03 0.  1.
    9000002   -1    0    0    0    0 -0.00000000000E+00 -0.00000000000E+00  0.00000000000E+00  0.93800000000E+00  0.93800000000E+00 0.  1.
         11    1    1    2    0    0 -0.35066370208E-01 -0.49486842549E-01  0.23842626298E+00  0.24602020629E+00  0.51100000000E-03 0.  1.
    9000002    1    1    2    0    0  0.49653618448E+00  0.71139149529E+00  0.56835253322E+00  0.13983900186E+01  0.93800000000E+00 0.  1.
         22    1    1    2    0    0 -0.46146981427E+00 -0.66190465275E+00  0.31932211712E+01  0.32935897751E+01  0.00000000000E+00 0.  1.
</event>
<event>
 5    1  0.6776507E+001  0.1596418E+01  0.7818608E-02  0.3357260E+00
         11   -1    0    0    0    0  0.00000000000E+00  0.00000000000E+00  0.39999999674E+01  0.40000000000E+01  0.51100000000E-03 0.  1.
    9000002   -1    0    0    0    0 -0.00000000000E+00 -0.00000000000E+00  0.00000000000E+00  0.93800000000E+00  0.93800000000E+00 0.  1.
         11    1    1    2    0    0  0.12554374420E-01 -0.16574331069E-01  0.45615546951E+00  0.45662938391E+00  0.51100000000E-03 0.  1.
    9000002    1    1    2    0    0 -0.35695462192E+00 -0.14182761498E+00  0.10200167656E+00  0.10187148848E+01  0.93800000000E+00 0.  1.
         22    1    1    2    0    0  0.34440024750E+00  0.15840194604E+00  0.34418428213E+01  0.34626557313E+01  0.00000000000E+00 0.  1.
</event>
<event>
 5    1  0.6776507E+001  0.1599608E+01  0.7818608E-02  0.3353789E+00
         11   -1    0    0    0    0  0.00000000000E+00  0.00000000000E+00  0.39999999674E+01  0.40000000000E+01  0.51100000000E-03 0.  1.
    9000002   -1    0    0    0    0 -0.00000000000E+00 -0.00000000000E+00  0.00000000000E+00  0.93800000000E+00  0.93800000000E+00 0.  1.
         11    1    1    2    0    0  0.76708575991E-01  0.63629184260E-01  0.88931589041E+00  0.89488317270E+00  0.51100000000E-03 0.  1.
    9000002    1    1    2    0    0 -0.36840719315E+00 -0.28300212637E+00  0.14695942739E+00  0.10570029029E+01  0.93800000000E+00 0.  1.
         22    1    1    2    0    0  0.29169861716E+00  0.21937294211E+00  0.29637246496E+01  0.29861139244E+01  0.00000000000E+00 0.  1.
</event>
<event>
 5    1  0.6776507E+001  0.1478713E+01  0.7818608E-02  0.3496529E+00
         11   -1    0    0    0    0  0.00000000000E+00  0.00000000000E+00  0.39999999674E+01  0.40000000000E+01  0.51100000000E-03 0. -1.
    9000002   -1    0    0    0    0 -0.00000000000E+00 -0.00000000000E+00  0.00000000000E+00  0.93800000000E+00  0.93800000000E+00 0. -1.
         11    1    1    2    0    0  0.13864601182E+00  0.33985864144E+00  0.11825643005E+01  0.12382185586E+01  0.51100000000E-03 0. -1.
    9000002    1    1    2    0    0  0.56824933900E-01  0.42675048944E-01  0.97044043944E-01  0.94568059057E+00  0.93800000000E+00 0. -1.
         22    1    1    2    0    0 -0.19547094572E+00 -0.38253369038E+00  0.27203916229E+01  0.27541008509E+01  0.00000000000E+00 0. -1.
</event>
<event>
 5    1  0.6776507E+001  0.1599677E+01  0.7818608E-02  0.3353714E+00
         11   -1    0    0    0    0  0.00000000000E+00  0.00000000000E+00  0.39999999674E+01  0.40000000000E+01  0.51100000000E-03 0.  1.
    9000002   -1    0    0    0    0 -0.00000000000E+00 -0.00000000000E+00  0.00000000000E+00  0.93800000000E+00  0.93800000000E+00 0.  1.
         11    1    1    2    0    0  0.13599845159E-01 -0.28666278469E+00  0.12109523034E+01  0.12444943753E+01  0.51100000000E-03 0.  1.
    9000002    1    1    2    0    0 -0.39588226413E-01  0.82568601960E+00  0.50806456588E+00  0.13495548280E+01  0.93800000000E+00 0.  1.
         22    1    1    2    0    0  0.25988381254E-01 -0.53902323491E+00  0.22809830981E+01  0.23439507968E+01  0.00000000000E+00 0.  1.
</event>
<event>
 5    1  0.6776507E+001  0.1560428E+01  0.7818608E-02  0.3397467E+00
         11   -1    0    0    0    0  0.00000000000E+00  0.00000000000E+00  0.39999999674E+01  0.40000000000E+01  0.51100000000E-03 0. -1.
    9000002   -1    0    0    0    0 -0.00000000000E+00 -0.00000000000E+00  0.00000000000E+00  0.93800000000E+00  0.93800000000E+00 0. -1.
         11    1    1    2    0    0 -0.64840674541E-01  0.18633781236E-01  0.39778959913E+00  0.40347039194E+00  0.51100000000E-03 0. -1.
    9000002    1    1    2    0    0 -0.76014585724E+00 -0.68066111995E-01  0.47375169495E+00  0.12987453131E+01  0.93800000000E+00 0. -1.
         22    1    1    2    0    0  0.82498653178E+00  0.49432330759E-01  0.31284586733E+01  0.32357842949E+01  0.00000000000E+00 0. -1.
</event>
<event>
 5    1  0.6776507E+001  0.1599674E+01  0.7818608E-02  0.3353717E+00
         11   -1    0    0    0    0  0.00000000000E+00  0.00000000000E+00  0.39999999674E+01  0.40000000000E+01  0.51100000000E-03 0.  1.
    9000002   -1    0    0    0    0 -0.00000000000E+00 -0.00000000000E+00  0.00000000000E+00  0.93800000000E+00  0.93800000000E+00 0. -1.
         11    1    1    2    0    0 -0.59897573742E-01  0.95389520831E-01  0.97103157393E+00  0.97754256107E+00  0.51100000000E-03 0.  1.
    9000002    1    1    2    0    0  0.24490459603E+00 -0.38033145698E+00  0.13903257940E+00  0.10506209290E+01  0.93800000000E+00 0. -1.
         22    1    1    2    0    0 -0.18500702229E+00  0.28494193615E+00  0.28899358140E+01  0.29098365099E+01  0.00000000000E+00 0.  1.
</event>
<event>
 5    1  0.6776507E+001  0.1576554E+01  0.7818608E-02  0.3379210E+00
         11   -1    0    0    0    0  0.00000000000E+00  0.00000000000E+00  0.39999999674E+01  0.40000000000E+01  0.51100000000E-03 0. -1.
    9000002   -1    0    0    0    0 -0.00000000000E+00 -0.00000000000E+00  0.00000000000E+00  0.93800000000E+00  0.93800000000E+00 0. -1.
         11    1    1    2    0    0  0.26328719847E-01  0.14434061529E+00  0.97530801867E+00  0.98628262030E+00  0.51100000000E-03 0. -1.
    9000002    1    1    2    0    0 -0.40667522760E+00 -0.19448264665E-01  0.13151114831E+00  0.10309714632E+01  0.93800000000E+00 0. -1.
         22    1    1    2    0    0  0.38034650775E+00 -0.12489235062E+00  0.28931808004E+01  0.29207459165E+01  0.00000000000E+00 0. -1.
</event>
<event>
 5    1  0.6776507E+001  0.1584760E+01  0.7818608E-02  0.3370072E+00
         11   -1    0    0    0    0  0.00000000000E+00  0.00000000000E+00  0.39999999674E+01  0.40000000000E+01  0.51100000000E-03 0. -1.
    9000002   -1    0    0    0    0 -0.00000000000E+00 -0.00000000000E+00  0.00000000000E+00  0.93800000000E+00  0.93800000000E+00 0. -1.
         11    1    1    2    0    0 -0.49380965218E-01 -0.50350287734E-01  0.13298584657E+01  0.13317272360E+01  0.51100000000E-03 0. -1.
    9000002    1    1    2    0    0  0.77598992579E-01 -0.25708529829E+00  0.59560274894E-01  0.97749981105E+00  0.93800000000E+00 0. -1.
         22    1    1    2    0    0 -0.28218027361E-01  0.30743558603E+00  0.26105812268E+01  0.26287729530E+01  0.00000000000E+00 0. -1.
</event>
<event>
 5    1  0.6776507E+001  0.1599588E+01  0.7818608E-02  0.3353810E+00
         11   -1    0    0    0    0  0.00000000000E+00  0.00000000000E+00  0.39999999674E+01  0.40000000000E+01  0.51100000000E-03 0.  1.
    9000002   -1    0    0    0    0 -0.00000000000E+00 -0.00000000000E+00  0.00000000000E+00  0.93800000000E+00  0.93800000000E+00 0.  1.
         11    1    1    2    0    0 -0.57248960855E-01  0.51437730327E-01  0.77236151800E+00  0.77618674250E+00  0.51100000000E-03 0.  1.
    9000002    1    1    2    0    0  0.31564519111E+00 -0.22273452665E+00  0.10056694685E+00  0.10194117259E+01  0.93800000000E+00 0.  1.
         22    1    1    2    0    0 -0.25839623026E+00  0.17129679632E+00  0.31270715025E+01  0.31424015316E+01  0.00000000000E+00 0.  1.
</event>
<event>
 5    1  0.6776507E+001  0.1599675E+01  0.7818608E-02  0.3353716E+00
         11   -1    0    0    0    0  0.00000000000E+00  0.00000000000E+00  0.39999999674E+01  0.40000000000E+01  0.51100000000E-03 0.  1.
    9000002   -1    0    0    0    0 -0.00000000000E+00 -0.00000000000E+00  0.00000000000E+00  0.93800000000E+00  0.93800000000E+00 0.  1.
         11    1    1    2    0    0  0.70167061634E-01  0.22621024779E+00  0.12010927151E+01  0.12242215748E+01  0.51100000000E-03 0.  1.
    9000002    1    1    2    0    0 -0.20883952710E+00 -0.68682877729E+00  0.37012036415E+00  0.12378129105E+01  0.93800000000E+00 0.  1.
         22    1    1    2    0    0  0.13867246546E+00  0.46061852950E+00  0.24287868881E+01  0.24759655147E+01  0.00000000000E+00 0.  1.
</event>
<event>
 5    1  0.6776507E+001  0.1597610E+01  0.7818608E-02  0.3355961E+00
         11   -1    0    0    0    0  0.00000000000E+00  0.00000000000E+00  0.39999999674E+01  0.40000000000E+01  0.51100000000E-03 0.  1.
    9000002   -1    0    0    0    0 -0.00000000000E+00 -0.00000000000E+00  0.00000000000E+00  0.93800000000E+00  0.93800000000E+00 0.  1.
         11    1    1    2    0    0  0.47006842248E-01 -0.59389841054E-01  0.85528796156E+00  0.85863528623E+00  0.51100000000E-03 0.  1.
    9000002    1    1    2    0    0 -0.41213903406E+00  0.29772548631E+00  0.17908828249E+00  0.10818575052E+01  0.93800000000E+00 0.  1.
         22    1    1    2    0    0  0.36513219181E+00 -0.23833564525E+00  0.29656237233E+01  0.29975072086E+01  0.00000000000E+00 0.  1.
</event>
<event>
 5    1  0.8645190E+001  0.1595736E+01  0.7818608E-02  0.3358005E+00
         11   -1    0    0    0    0  0.00000000000E+00  0.00000000000E+00  0.39999999674E+01  0.40000000000E+01  0.51100000000E-03 0.  1.
    9000002   -1    0    0    0    0 -0.00000000000E+00 -0.00000000000E+00  0.00000000000E+00  0.93800000000E+00  0.93800000000E+00 0.  1.
         11    1    1    2    0    0 -0.95117253791E-02 -0.22924339446E-01  0.65125010824E+00  0.65172307222E+00  0.51100000000E-03 0.  1.
    9000002    1    1    2    0    0 -0.28048178981E+00  0.10623507184E+00  0.63101351045E-01  0.98680378263E+00  0.93800000000E+00 0.  1.
         22    1    1    2    0    0  0.28999351519E+00 -0.83310732390E-01  0.32856485081E+01  0.32994731452E+01  0.00000000000E+00 0.  1.
</event>
<event>
 5    1  0.6776507E+001  0.1599665E+01  0.7818608E-02  0.3353727E+00
         11   -1    0    0    0    0  0.00000000000E+00  0.00000000000E+00  0.39999999674E+01  0.40000000000E+01  0.51100000000E-03 0.  1.
    9000002   -1    0    0    0    0 -0.00000000000E+00 -0.00000000000E+00  0.00000000000E+00  0.93800000000E+00  0.93800000000E+00 0.  1.
         11    1    1    2    0    0  0.28088596905E-02  0.52566044078E-01  0.50524212277E+00  0.50797730503E+00  0.51100000000E-03 0.  1.
    9000002    1    1    2    0    0 -0.22354581929E-03 -0.40514043863E+00  0.11079859277E+00  0.10277446926E+01  0.93800000000E+00 0.  1.
         22    1    1    2    0    0 -0.25853138712E-02  0.35257439455E+00  0.33839592518E+01  0.34022780024E+01  0.00000000000E+00 0.  1.
</event>
<event>
 5    1  0.6776507E+001  0.1435950E+01  0.7818608E-02  0.3553239E+00
         11   -1    0    0    0    0  0.00000000000E+00  0.00000000000E+00  0.39999999674E+01  0.40000000000E+01  0.51100000000E-03 0.  1.
    9000002   -1    0    0    0    0 -0.00000000000E+00 -0.00000000000E+00  0.00000000000E+00  0.93800000000E+00  0.93800000000E+00 0. -1.
         11    1    1    2    0    0 -0.54226554327E+00  0.25639919705E+00  0.13463758124E+01  0.14739472708E+01  0.51100000000E-03 0.  1.
    9000002    1    1    2    0    0  0.25105696925E+00 -0.31880026569E+00  0.26348386417E+00  0.10554292766E+01  0.93800000000E+00 0. -1.
         22    1    1    2    0    0  0.29120857402E+00  0.62401068645E-01  0.23901402908E+01  0.24086234526E+01  0.00000000000E+00 0.  1.
</event>
<event>
 5    1  0.6776507E+001  0.1599677E+01  0.7818608E-02  0.3353714E+00
         11   -1    0    0    0    0  0.00000000000E+00  0.00000000000E+00  0.39999999674E+01  0.40000000000E+01  0.51100000000E-03 0.  1.
    9000002   -1    0    0    0    0 -0.00000000000E+00 -0.00000000000E+00  0.00000000000E+00  0.93800000000E+00  0.93800000000E+00 0. -1.
         11    1    1    2    0    0 -0.74119307082E-01 -0.29680380126E-01  0.86657585485E+00  0.87024626973E+00  0.51100000000E-03 0.  1.
    9000002    1    1    2    0    0  0.33617100222E+00  0.13452623221E+00  0.88029172503E-01  0.10093073789E+01  0.93800000000E+00 0. -1.
         22    1    1    2    0    0 -0.26205169513E+00 -0.10484585208E+00  0.30453949400E+01  0.30584463514E+01  0.00000000000E+00 0.  1.
</event>
<event>
 5    1  0.6776507E+001  0.1596538E+01  0.7818608E-02  0.3357129E+00
         11   -1    0    0    0    0  0.00000000000E+00  0.00000000000E+00  0.39999999674E+01  0.40000000000E+01  0.51100000000E-03 0. -1.
    9000002   -1    0    0    0    0 -0.00000000000E+00 -0.00000000000E+00  0.00000000000E+00  0.93800000000E+00  0.93800000000E+00 0. -1.
         11    1    1    2    0    0  0.26665542931E-01  0.30631280874E-01  0.41525889105E+00  0.41724037948E+00  0.51100000000E-03 0. -1.
    9000002    1    1    2    0    0 -0.32004256249E+00  0.96491779663E-01  0.77302730570E-01  0.99877806218E+00  0.93800000000E+00 0. -1.
         22    1    1    2    0    0  0.29337701956E+00 -0.12712306054E+00  0.35074383457E+01  0.35219815583E+01  0.00000000000E+00 0. -1.
</event>
<event>
 5    1  0.6776507E+001  0.1599626E+01  0.7818608E-02  0.3353770E+00
         11   -1    0    0    0    0  0.00000000000E+00  0.00000000000E+00  0.39999999674E+01  0.40000000000E+01  0.51100000000E-03 0.  1.
    9000002   -1    0    0    0    0 -0.00000000000E+00 -0.00000000000E+00  0.00000000000E+00  0.93800000000E+00  0.93800000000E+00 0.  1.
         11    1    1    2    0    0 -0.34162457955E-01 -0.16261284602E+00  0.13846206424E+01  0.13945553398E+01  0.51100000000E-03 0.  1.
    9000002    1    1    2    0    0  0.72998615887E-01  0.44732501312E+00  0.13963512821E+00  0.10510806031E+01  0.93800000000E+00 0.  1.
         22    1    1    2    0    0 -0.38836157932E-01 -0.28471216710E+00  0.24757441967E+01  0.24923640571E+01  0.00000000000E+00 0.  1.
</event>
<event>
 5    1  0.8181083E+001  0.1596562E+01  0.7818608E-02  0.3357103E+00
         11   -1    0    0    0    0  0.00000000000E+00  0.00000000000E+00  0.39999999674E+01  0.40000000000E+01  0.51100000000E-03 0. -1.
    9000002   -1    0    0    0    0 -0.00000000000E+00 -0.00000000000E+00  0.00000000000E+00  0.93800000000E+00  0.93800000000E+00 0.  1.
         11    1    1    2    0    0  0.53907312213E-02  0.74945893696E-02  0.71962574452E+00  0.71968514098E+00  0.51100000000E-03 0. -1.
    9000002    1    1    2    0    0  0.12043570855E+00 -0.28242858543E+00  0.65381679044E-01  0.98913569833E+00  0.93800000000E+00 0.  1.
         22    1    1    2    0    0 -0.12582643977E+00  0.27493399606E+00  0.32149925438E+01  0.32291791607E+01  0.00000000000E+00 0. -1.
</event>
<event>
 5    1  0.6776507E+001  0.1520471E+01  0.7818608E-02  0.3444479E+00
         11   -1    0    0    0    0  0.00000000000E+00  0.00000000000E+00  0.39999999674E+01  0.40000000000E+01  0.51100000000E-03 0. -1.
    9000002   -1    0    0    0    0 -0.00000000000E+00 -0.00000000000E+00  0.00000000000E+00  0.93800000000E+00  0.93800000000E+00 0. -1.
         11    1    1    2    0    0 -0.27644993645E+00 -0.12862461224E+00  0.11773380372E+01  0.12161800744E+01  0.51100000000E-03 0. -1.
    9000002    1    1    2    0    0 -0.31077699488E-01  0.21510040220E-01  0.60694615809E-01  0.94072118166E+00  0.93800000000E+00 0. -1.
         22    1    1    2    0    0  0.30752763594E+00  0.10711457202E+00  0.27619673143E+01  0.27810987440E+01  0.00000000000E+00 0. -1.
</event>
<event>
 5    1  0.6776507E+001  0.1599619E+01  0.7818608E-02  0.3353777E+00
         11   -1    0    0    0    0  0.00000000000E+00  0.00000000000E+00  0.39999999674E+01  0.40000000000E+01  0.51100000000E-03 0.  1.
    9000002   -1    0    0    0    0 -0.00000000000E+00 -0.00000000000E+00  0.00000000000E+00  0.93800000000E+00  0.93800000000E+00 0.  1.
         11    1    1    2    0    0 -0.35586883513E-02  0.38610099491E-01  0.29113300413E+00  0.29370408792E+00  0.51100000000E-03 0.  1.
    9000002    1    1    2    0    0  0.83252334644E-01 -0.45801125402E+00  0.14757769376E+00  0.10575104897E+01  0.93800000000E+00 0.  1.
         22    1    1    2    0    0 -0.79693646293E-01  0.41940115453E+00  0.35612892695E+01  0.35867854224E+01  0.00000000000E+00 0.  1.
</event>
<event>
 5    1  0.6776507E+001  0.1599677E+01  0.7818608E-02  0.3353714E+00
         11   -1    0    0    0    0  0.00000000000E+00  0.00000000000E+00  0.39999999674E+01  0.40000000000E+01  0.51100000000E-03 0. -1.
    9000002   -1    0    0    0    0 -0.00000000000E+00 -0.00000000000E+00  0.00000000000E+00  0.93800000000E+00  0.93800000000E+00 0. -1.
         11    1    1    2    0    0 -0.12841141848E+00  0.20280711606E+00  0.10635706674E+01  0.10903224498E+01  0.51100000000E-03 0.  1.
    9000002    1    1    2    0    0  0.42662382231E+00 -0.67351917682E+00  0.46779087399E+00  0.13169313836E+01  0.93800000000E+00 0. -1.
         22    1    1    2    0    0 -0.29821240383E+00  0.47071206076E+00  0.24686384259E+01  0.25307461666E+01  0.00000000000E+00 0. -1.
</event>
<event>
 5    1  0.6776507E+001  0.1599677E+01  0.7818608E-02  0.3353714E+00
         11   -1    0    0    0    0  0.00000000000E+00  0.00000000000E+00  0.39999999674E+01  0.40000000000E+01  0.51100000000E-03 0. -1.
    9000002   -1    0    0    0    0 -0.00000000000E+00 -0.00000000000E+00  0.00000000000E+00  0.93800000000E+00  0.93800000000E+00 0.  1.
         11    1    1    2    0    0 -0.61614438903E-03 -0.11119531606E+00  0.94858958333E+00  0.95508493689E+00  0.51100000000E-03 0. -1.
    9000002    1    1    2    0    0  0.28327327878E-02  0.45028411236E+00  0.13772027915E+00  0.10495592797E+01  0.93800000000E+00 0.  1.
         22    1    1    2    0    0 -0.22165883988E-02 -0.33908879630E+00  0.29136901049E+01  0.29333557835E+01  0.00000000000E+00 0. -1.
</event>
<event>
 5    1  0.6776507E+001  0.1599676E+01  0.7818608E-02  0.3353715E+00
         11   -1    0    0    0    0  0.00000000000E+00  0.00000000000E+00  0.39999999674E+01  0.40000000000E+01  0.51100000000E-03 0.  1.
    9000002   -1    0    0    0    0 -0.00000000000E+00 -0.00000000000E+00  0.00000000000E+00  0.93800000000E+00  0.93800000000E+00 0. -1.
         11    1    1    2    0    0  0.24604487117E-02 -0.13195446634E+00  0.11475019919E+01  0.11550667157E+01  0.51100000000E-03 0.  1.
    9000002    1    1    2    0    0 -0.85460681087E-02  0.44160240190E+00  0.13233919957E+00  0.10452001628E+01  0.93800000000E+00 0. -1.
         22    1    1    2    0    0  0.60856193970E-02 -0.30964793557E+00  0.27201587759E+01  0.27377331215E+01  0.00000000000E+00 0.  1.
</event>
<event>
 5    1  0.6776507E+001  0.1599673E+01  0.7818608E-02  0.3353718E+00
         11   -1    0    0    0    0  0.00000000000E+00  0.00000000000E+00  0.39999999674E+01  0.40000000000E+01  0.51100000000E-03 0. -1.
    9000002   -1    0    0    0    0 -0.00000000000E+00 -0.00000000000E+00  0.00000000000E+00  0.93800000000E+00  0.93800000000E+00 0.  1.
         11    1    1    2    0    0 -0.25615907251E-02 -0.83574368702E-02  0.65434041820E-01  0.66017296582E-01  0.51100000000E-03 0.  1.
    9000002    1    1    2    0    0  0.16131500683E+00  0.50274826004E+00  0.19177411812E+00  0.10933433389E+01  0.93800000000E+00 0.  1.
         22    1    1    2    0    0 -0.15875341610E+00 -0.49439082317E+00  0.37427918074E+01  0.37786393645E+01  0.00000000000E+00 0. -1.
</event>
<event>
 5    1  0.6776507E+001  0.1599647E+01  0.7818608E-02  0.3353747E+00
         11   -1    0    0    0    0  0.00000000000E+00  0.00000000000E+00  0.39999999674E+01  0.40000000000E+01  0.51100000000E-03 0.  1.
    9000002   -1    0    0    0    0 -0.00000000000E+00 -0.00000000000E+00  0.00000000000E+00  0.93800000000E+00  0.93800000000E+00 0. -1.
         11    1    1    2    0    0  0.45229344210E-01 -0.92619782580E-02  0.52200139772E+00  0.52403930975E+00  0.51100000000E-03 0.  1.
    9000002    1    1    2    0    0 -0.34730817192E+00  0.10191715706E+00  0.87986134394E-01  0.10092549891E+01  0.93800000000E+00 0. -1.
         22    1    1    2    0    0  0.30207882771E+00 -0.92655178806E-01  0.33900124352E+01  0.34047057012E+01  0.00000000000E+00 0.  1.
</event>
<event>
 5    1  0.6776507E+001  0.1598324E+01  0.7818608E-02  0.3355184E+00
         11   -1    0    0    0    0  0.00000000000E+00  0.00000000000E+00  0.39999999674E+01  0.40000000000E+01  0.51100000000E-03 0. -1.
    9000002   -1    0    0    0    0 -0.00000000000E+00 -0.00000000000E+00  0.00000000000E+00  0.93800000000E+00  0.93800000000E+00 0.  1.
         11    1    1    2    0    0  0.17728549016E-02  0.46131896951E-02  0.40395326885E-01  0.40699730820E-01  0.51100000000E-03 0. -1.
    9000002    1    1    2    0    0  0.29611775577E+00  0.28124436124E+00  0.11375491680E+00  0.10293533393E+01  0.93800000000E+00 0.  1.
         22    1    1    2    0    0 -0.29789061068E+00 -0.28585755094E+00  0.38458497237E+01  0.38679469299E+01  0.00000000000E+00 0. -1.
</event>
<event>
 5    1  0.6776507E+001  0.1599611E+01  0.7818608E-02  0.3353786E+00
         11   -1    0    0    0    0  0.00000000000E+00  0.00000000000E+00  0.39999999674E+01  0.40000000000E+01  0.51100000000E-03 0. -1.
    9000002   -1    0    0    0    0 -0.00000000000E+00 -0.00000000000E+00  0.00000000000E+00  0.93800000000E+00  0.93800000000E+00 0. -1.
         11    1    1    2    0    0  0.38659387599E-01 -0.40778079055E-01  0.52412012208E+00  0.52712385971E+00  0.51100000000E-03 0. -1.
    9000002    1    1    2    0    0 -0.23805451813E+00  0.30339709576E+00  0.10018782706E+00  0.10191179284E+01  0.93800000000E+00 0. -1.
         22    1    1    2    0    0  0.19939513053E+00 -0.26261901671E+00  0.33756920182E+01  0.33917582119E+01  0.00000000000E+00 0. -1.
</event>
<event>
 5    1  0.6776507E+001  0.1533271E+01  0.7818608E-02  0.3429134E+00
         11   -1    0    0    0    0  0.00000000000E+00  0.00000000000E+00  0.39999999674E+01  0.40000000000E+01  0.51100000000E-03 0.  1.
    9000002   -1    0    0    0    0 -0.00000000000E+00 -0.00000000000E+00  0.00000000000E+00  0.93800000000E+00  0.93800000000E+00 0.  1.
         11    1    1    2    0    0 -0.18630815607E-01 -0.19502411769E+00  0.12991287692E+01  0.13138178465E+01  0.51100000000E-03 0.  1.
    9000002    1    1    2    0    0  0.69768573992E+00  0.24923013824E-01  0.42670608639E+00  0.12447122689E+01  0.93800000000E+00 0.  1.
         22    1    1    2    0    0 -0.67905492431E+00  0.17010110387E+00  0.22741651118E+01  0.23794698845E+01  0.00000000000E+00 0.  1.
</event>
<event>
 5    1  0.6776507E+001  0.1599668E+01  0.7818608E-02  0.3353724E+00
         11   -1    0    0    0    0  0.00000000000E+00  0.00000000000E+00  0.39999999674E+01  0.40000000000E+01  0.51100000000E-03 0.  1.
    9000002   -1    0    0    0    0 -0.00000000000E+00 -0.00000000000E+00  0.00000000000E+00  0.93800000000E+00  0.93800000000E+00 0. -1.
         11    1    1    2    0    0 -0.20803187849E+00  0.20526353370E-01  0.12962180150E+01  0.13129661067E+01  0.51100000000E-03 0.  1.
    9000002    1    1    2    0    0  0.59577869820E+00 -0.67605355730E-01  0.25082653077E+00  0.11411751355E+01  0.93800000000E+00 0. -1.
         22    1    1    2    0    0 -0.38774681971E+00  0.47079002359E-01  0.24529554216E+01  0.24838587578E+01  0.00000000000E+00 0.  1.
</event>
<event>
 5    1  0.6776507E+001  0.1598560E+01  0.7818608E-02  0.3354928E+00
         11   -1    0    0    0    0  0.00000000000E+00  0.00000000000E+00  0.39999999674E+01  0.40000000000E+01  0.51100000000E-03 0. -1.
    9000002   -1    0    0    0    0 -0.00000000000E+00 -0.00000000000E+00  0.00000000000E+00  0.93800000000E+00  0.93800000000E+00 0.  1.
         11    1    1    2    0    0 -0.51864253165E-01  0.12542185633E-01  0.71114819916E+00  0.71314741076E+00  0.51100000000E-03 0. -1.
    9000002    1    1    2    0    0  0.40019160953E+00 -0.19039310767E+00  0.13422072602E+00  0.10460698175E+01  0.93800000000E+00 0.  1.
         22    1    1    2    0    0 -0.34832735636E+00  0.17785092203E+00  0.31546310422E+01  0.31787827717E+01  0.00000000000E+00 0. -1.
</event>
<event>
 5    1  0.6776507E+001  0.1578864E+01  0.7818608E-02  0.3376628E+00
         11   -1    0    0    0    0  0.00000000000E+00  0.00000000000E+00  0.39999999674E+01  0.40000000000E+01  0.51100000000E-03 0.  1.
    9000002   -1    0    0    0    0 -0.00000000000E+00 -0.00000000000E+00  0.00000000000E+00  0.93800000000E+00  0.93800000000E+00 0. -1.
         11    1    1    2    0    0 -0.42319732447E-01  0.10123114183E+00  0.82117086424E+00  0.82846880039E+00  0.51100000000E-03 0.  1.
    9000002    1    1    2    0    0  0.12397000388E+00  0.18614843015E+00  0.49066423276E-01  0.96554197930E+00  0.93800000000E+00 0. -1.
         22    1    1    2    0    0 -0.81650271430E-01 -0.28737957198E+00  0.31297626798E+01  0.31439892203E+01  0.00000000000E+00 0.  1.
</event>
<event>
 5    1  0.6776507E+001  0.1599612E+01  0.7818608E-02  0.3353785E+00
         11   -1    0    0    0    0  0.00000000000E+00  0.00000000000E+00  0.39999999674E+01  0.40000000000E+01  0.51100000000E-03 0.  1.
    9000002   -1    0    0    0    0 -0.00000000000E+00 -0.00000000000E+00  0.00000000000E+00  0.93800000000E+00  0.93800000000E+00 0.  1.
         11    1    1    2    0    0 -0.28002000524E+00 -0.14141781767E+00  0.14398419996E+01  0.14736198449E+01  0.51100000000E-03 0.  1.
    9000002    1    1    2    0    0  0.71030432251E+00  0.33661170633E+00  0.45308041770E+00  0.13049772168E+01  0.93800000000E+00 0.  1.
         22    1    1    2    0    0 -0.43028431727E+00 -0.19519388866E+00  0.21070775501E+01  0.21594029383E+01  0.00000000000E+00 0. -1.
</event>
<event>
 5    1  0.6776507E+001  0.1599675E+01  0.7818608E-02  0.3353716E+00
         11   -1    0    0    0    0  0.00000000000E+00  0.00000000000E+00  0.39999999674E+01  0.40000000000E+01  0.51100000000E-03 0. -1.
    9000002   -1    0    0    0    0 -0.00000000000E+00 -0.00000000000E+00  0.00000000000E+00  0.93800000000E+00  0.93800000000E+00 0. -1.
         11    1    1    2    0    0 -0.50615364279E-02  0.32144267465E-01  0.35063161117E+00  0.35213869562E+00  0.51100000000E-03 0.  1.
    9000002    1    1    2    0    0  0.64935428861E-01 -0.35256424729E+00  0.86256440243E-01  0.10078701959E+01  0.93800000000E+00 0. -1.
         22    1    1    2    0    0 -0.59873892433E-01  0.32041997983E+00  0.35631119160E+01  0.35779911084E+01  0.00000000000E+00 0. -1.
</event>
<event>
 5    1  0.6776507E+001  0.1589323E+01  0.7818608E-02  0.3365034E+00
         11   -1    0    0    0    0  0.00000000000E+00  0.00000000000E+00  0.39999999674E+01  0.40000000000E+01  0.51100000000E-03 0. -1.
    9000002   -1    0    0    0    0 -0.00000000000E+00 -0.00000000000E+00  0.00000000000E+00  0.93800000000E+00  0.93800000000E+00 0.  1.
         11    1    1    2    0    0 -0.15010234187E-01 -0.44653673224E-01  0.10314984299E+01  0.10325737406E+01  0.51100000000E-03 0. -1.
    9000002    1    1    2    0    0 -0.23105322220E+00 -0.12304093969E+00  0.53559063072E-01  0.97531391745E+00  0.93800000000E+00 0.  1.
         22    1    1    2    0    0  0.24606345639E+00  0.16769461292E+00  0.29149424744E+01  0.29301123420E+01  0.00000000000E+00 0. -1.
</event>
<event>
 5    1  0.6776507E+001  0.1570312E+01  0.7818608E-02  0.3386230E+00
         11   -1    0    0    0    0  0.00000000000E+00  0.00000000000E+00  0.39999999674E+01  0.40000000000E+01  0.51100000000E-03 0.  1.
    9000002   -1    0    0    0    0 -0.00000000000E+00 -0.00000000000E+00  0.00000000000E+00  0.93800000000E+00  0.93800000000E+00 0.  1.
         11    1    1    2    0    0  0.13071270575E+00 -0.12534392951E+00  0.13855013540E+01  0.13972870768E+01  0.51100000000E-03 0.  1.
    9000002    1    1    2    0    0  0.16715686055E+00  0.20405941356E+00  0.69203722587E-01  0.97683919634E+00  0.93800000000E+00 0.  1.
         22    1    1    2    0    0 -0.29786956630E+00 -0.78715484050E-01  0.25452948908E+01  0.25638737268E+01  0.00000000000E+00 0.  1.
</event>
<event>
 5    1  0.6776507E+001  0.1599636E+01  0.7818608E-02  0.3353759E+00
         11   -1    0    0    0    0  0.00000000000E+00  0.00000000000E+00  0.39999999674E+01  0.40000000000E+01  0.51100000000E-03 0. -1.
    9000002   -1    0    0    0    0 -0.00000000000E+00 -0.00000000000E+00  0.00000000000E+00  0.93800000000E+00  0.93800000000E+00 0. -1.
         11    1    1    2    0    0 -0.35225929925E-01  0.17505639734E-01  0.32691964285E+00  0.32927803991E+00  0.51100000000E-03 0. -1.
    9000002    1    1    2    0    0  0.39894988513E+00 -0.25417208046E+00  0.15254713693E+00  0.10615456120E+01  0.93800000000E+00 0. -1.
         22    1    1    2    0    0 -0.36372395520E+00  0.23666644072E+00  0.35205331876E+01  0.35471763481E+01  0.00000000000E+00 0. -1.
</event>
<event>
 5    1  0.6776507E+001  0.1599434E+01  0.7818608E-02  0.3353978E+00
         11   -1    0    0    0    0  0.00000000000E+00  0.00000000000E+00  0.39999999674E+01  0.40000000000E+01  0.51100000000E-03 0. -1.
    9000002   -1    0    0    0    0 -0.00000000000E+00 -0.00000000000E+00  0.00000000000E+00  0.93800000000E+00  0.93800000000E+00 0.  1.
         11    1    1    2    0    0  0.55968585521E-01 -0.12775983498E+00  0.98123452633E+00  0.99109864029E+00  0.51100000000E-03 0. -1.
    9000002    1    1    2    0    0 -0.22890884333E+00  0.55047902397E+00  0.24801928236E+00  0.11387642332E+01  0.93800000000E+00 0.  1.
         22    1    1    2    0    0  0.17294025780E+00 -0.42271918899E+00  0.27707461587E+01  0.28081371265E+01  0.00000000000E+00 0. -1.
</event>
<event>
 5    1  0.6776507E+001  0.1599622E+01  0.7818608E-02  0.3353774E+00
         11   -1    0    0    0    0  0.00000000000E+00  0.00000000000E+00  0.39999999674E+01  0.40000000000E+01  0.51100000000E-03 0.  1.
    9000002   -1    0    0    0    0 -0.00000000000E+00 -0.00000000000E+00  0.00000000000E+00  0.93800000000E+00  0.93800000000E+00 0.  1.
         11    1    1    2    0    0 -0.13590054097E-01 -0.46822120172E-01  0.53331324326E+00  0.53553737224E+00  0.51100000000E-03 0.  1.
    9000002    1    1    2    0    0  0.13617042238E+00  0.36773932071E+00  0.10366628889E+00  0.10219419217E+01  0.93800000000E+00 0.  1.
         22    1    1    2    0    0 -0.12258036828E+00 -0.32091720054E+00  0.33630204352E+01  0.33805207060E+01  0.00000000000E+00 0.  1.
</event>
<event>
 5    1  0.6776507E+001  0.1599676E+01  0.7818608E-02  0.3353715E+00
         11   -1    0    0    0    0  0.00000000000E+00  0.00000000000E+00  0.39999999674E+01  0.40000000000E+01  0.51100000000E-03 0.  1.
    9000002   -1    0    0    0    0 -0.00000000000E+00 -0.00000000000E+00  0.00000000000E+00  0.93800000000E+00  0.93800000000E+00 0.  1.
         11    1    1    2    0    0 -0.15895373057E+00 -0.16063444149E-01  0.13142467741E+01  0.13239218885E+01  0.51100000000E-03 0.  1.
    9000002    1    1    2    0    0  0.46314430318E+00  0.45593415976E-01  0.14744048966E+00  0.10574327889E+01  0.93800000000E+00 0.  1.
         22    1    1    2    0    0 -0.30419057260E+00 -0.29529971827E-01  0.25383127036E+01  0.25566453225E+01  0.00000000000E+00 0.  1.
</event>
<event>
 5    1  0.6776507E+001  0.1599672E+01  0.7818608E-02  0.3353719E+00
         11   -1    0    0    0    0  0.00000000000E+00  0.00000000000E+00  0.39999999674E+01  0.40000000000E+01  0.51100000000E-03 0.  1.
    9000002   -1    0    0    0    0 -0.00000000000E+00 -0.00000000000E+00  0.00000000000E+00  0.93800000000E+00  0.93800000000E+00 0. -1.
         11    1    1    2    0    0 -0.23987633692E-01  0.50266995541E-01  0.48985499356E+00  0.49301151431E+00  0.51100000000E-03 0. -1.
    9000002    1    1    2    0    0  0.19503123540E+00 -0.40797533763E+00  0.13892935134E+00  0.10505362552E+01  0.93800000000E+00 0. -1.
         22    1    1    2    0    0 -0.17104360171E+00  0.35770834209E+00  0.33712156225E+01  0.33944522305E+01  0.00000000000E+00 0.  1.
</event>
<event>
 5    1  0.6776507E+001  0.1599673E+01  0.7818608E-02  0.3353719E+00
         11   -1    0    0    0    0  0.00000000000E+00  0.00000000000E+00  0.39999999674E+01  0.40000000000E+01  0.51100000000E-03 0. -1.
    9000002   -1    0    0    0    0 -0.00000000000E+00 -0.00000000000E+00  0.00000000000E+00  0.93800000000E+00  0.93800000000E+00 0. -1.
         11    1    1    2    0    0  0.90254515609E-01  0.64726008583E-01  0.98492603396E+00  0.99116844546E+00  0.51100000000E-03 0. -1.
    9000002    1    1    2    0    0 -0.35047163885E+00 -0.26157283909E+00  0.12965948497E+00  0.10430274694E+01  0.93800000000E+00 0. -1.
         22    1    1    2    0    0  0.26021712325E+00  0.19684683051E+00  0.28854144484E+01  0.29038040852E+01  0.00000000000E+00 0. -1.
</event>
<event>
 5    1  0.6776507E+001  0.1569106E+01  0.7818608E-02  0.3387593E+00
         11   -1    0    0    0    0  0.00000000000E+00  0.00000000000E+00  0.39999999674E+01  0.40000000000E+01  0.51100000000E-03 0.  1.
    9000002   -1    0    0    0    0 -0.00000000000E+00 -0.00000000000E+00  0.00000000000E+00  0.93800000000E+00  0.93800000000E+00 0.  1.
         11    1    1    2    0    0  0.10891291198E+00  0.93535482635E-01  0.89424922433E+00  0.90570019611E+00  0.51100000000E-03 0.  1.
    9000002    1    1    2    0    0  0.58961798504E-01  0.14667985053E+00  0.39470874650E-01  0.95204696427E+00  0.93800000000E+00 0.  1.
         22    1    1    2    0    0 -0.16787471048E+00 -0.24021533317E+00  0.30662798684E+01  0.30802528396E+01  0.00000000000E+00 0.  1.
</event>
<event>
 5    1  0.6776507E+001  0.1599533E+01  0.7818608E-02  0.3353870E+00
         11   -1    0    0    0    0  0.00000000000E+00  0.00000000000E+00  0.39999999674E+01  0.40000000000E+01  0.51100000000E-03 0.  1.
    9000002   -1    0    0    0    0 -0.00000000000E+00 -0.00000000000E+00  0.00000000000E+00  0.93800000000E+00  0.93800000000E+00 0. -1.
         11    1    1    2    0    0 -0.69470557388E-02  0.73729830565E-01  0.77549206147E+00  0.77902024879E+00  0.51100000000E-03 0.  1.
    9000002    1    1    2    0    0  0.70478053498E-01 -0.41459669616E+00  0.11973999357E+00  0.10349102582E+01  0.93800000000E+00 0. -1.
         22    1    1    2    0    0 -0.63530997759E-01  0.34086686559E+00  0.31047679123E+01  0.31240694930E+01  0.00000000000E+00 0.  1.
</event>
<event>
 5    1  0.6776507E+001  0.1599673E+01  0.7818608E-02  0.3353719E+00
         11   -1    0    0    0    0  0.00000000000E+00  0.00000000000E+00  0.39999999674E+01  0.40000000000E+01  0.51100000000E-03 0.  1.
    9000002   -1    0    0    0    0 -0.00000000000E+00 -0.00000000000E+00  0.00000000000E+00  0.93800000000E+00  0.93800000000E+00 0. -1.
         11    1    1    2    0    0  0.86870532869E-01 -0.87901816155E-01  0.11590255144E+01  0.11655958231E+01  0.51100000000E-03 0.  1.
    9000002    1    1    2    0    0 -0.28422655809E+00  0.29221332872E+00  0.11220207910E+00  0.10288861319E+01  0.93800000000E+00 0. -1.
         22    1    1    2    0    0  0.19735602522E+00 -0.20431151257E+00  0.27287723739E+01  0.27435180450E+01  0.00000000000E+00 0.  1.
</event>
<event>
 5    1  0.6776507E+001  0.1516021E+01  0.7818608E-02  0.3449879E+00
         11   -1    0    0    0    0  0.00000000000E+00  0.00000000000E+00  0.39999999674E+01  0.40000000000E+01  0.51100000000E-03 0. -1.
    9000002   -1    0    0    0    0 -0.00000000000E+00 -0.00000000000E+00  0.00000000000E+00  0.93800000000E+00  0.93800000000E+00 0. -1.
         11    1    1    2    0    0  0.18117538774E+00  0.23481513927E+00  0.12951471612E+01  0.13286719313E+01  0.51100000000E-03 0. -1.
    9000002    1    1    2    0    0  0.20869856784E+00 -0.69575656517E-01  0.98130339665E-01  0.96843658944E+00  0.93800000000E+00 0. -1.
         22    1    1    2    0    0 -0.38987395557E+00 -0.16523948275E+00  0.26067224665E+01  0.26408914793E+01  0.00000000000E+00 0. -1.
</event>
<event>
 5    1  0.6776507E+001  0.1591435E+01  0.7818608E-02  0.3362713E+00
         11   -1    0    0    0    0  0.00000000000E+00  0.00000000000E+00  0.39999999674E+01  0.40000000000E+01  0.51100000000E-03 0. -1.
    9000002   -1    0    0    0    0 -0.00000000000E+00 -0.00000000000E+00  0.00000000000E+00  0.93800000000E+00  0.93800000000E+00 0. -1.
         11    1    1    2    0    0 -0.49447047171E-02  0.10677314517E-01  0.12197559664E+01  0.12198128274E+01  0.51100000000E-03 0. -1.
    9000002    1    1    2    0    0  0.20769414721E+00  0.22939945704E+00  0.70452469381E-01  0.99023659805E+00  0.93800000000E+00 0. -1.
         22    1    1    2    0    0 -0.20274944250E+00 -0.24007677156E+00  0.27097915316E+01  0.27279505746E+01  0.00000000000E+00 0. -1.
</event>
<event>
 5    1  0.6776507E+001  0.1599462E+01  0.7818608E-02  0.3353947E+00
         11   -1    0    0    0    0  0.00000000000E+00  0.00000000000E+00  0.39999999674E+01  0.40000000000E+01  0.51100000000E-03 0. -1.
    9000002   -1    0    0    0    0 -0.00000000000E+00 -0.00000000000E+00  0.00000000000E+00  0.93800000000E+00  0.93800000000E+00 0.  1.
         11    1    1    2    0    0  0.31560055708E-02 -0.28959160687E-03  0.22843415936E-01  0.23067878253E-01  0.51100000000E-03 0. -1.
    9000002    1    1    2    0    0 -0.20101666963E+00  0.34951091618E+00  0.10987790021E+00  0.10268800976E+01  0.93800000000E+00 0.  1.
         22    1    1    2    0    0  0.19786066406E+00 -0.34922132457E+00  0.38672786512E+01  0.38880520241E+01  0.00000000000E+00 0. -1.
</event>
<event>
 5    1  0.6776507E+001  0.1599538E+01  0.7818608E-02  0.3353865E+00
         11   -1    0    0    0    0  0.00000000000E+00  0.00000000000E+00  0.39999999674E+01  0.40000000000E+01  0.51100000000E-03 0. -1.
    9000002   -1    0    0    0    0 -0.00000000000E+00 -0.00000000000E+00  0.00000000000E+00  0.93800000000E+00  0.93800000000E+00 0. -1.
         11    1    1    2    0    0  0.13140968270E+00  0.11207405459E+00  0.80446866418E+00  0.82279960573E+00  0.51100000000E-03 0. -1.
    9000002    1    1    2    0    0 -0.60310114897E+00 -0.44994465964E+00  0.41091438304E+00  0.12707776449E+01  0.93800000000E+00 0. -1.
         22    1    1    2    0    0  0.47169146627E+00  0.33787060505E+00  0.27846169201E+01  0.28444227494E+01  0.00000000000E+00 0. -1.
</event>
<event>
 5    1  0.6776507E+001  0.1579698E+01  0.7818608E-02  0.3375698E+00
         11   -1    0    0    0    0  0.00000000000E+00  0.00000000000E+00  0.39999999674E+01  0.40000000000E+01  0.51100000000E-03 0.  1.
    9000002   -1    0    0    0    0 -0.00000000000E+00 -0.00000000000E+00  0.00000000000E+00  0.93800000000E+00  0.93800000000E+00 0.  1.
         11    1    1    2    0    0 -0.85553838646E-01  0.87557217109E-01  0.13382230672E+01  0.13438106133E+01  0.51100000000E-03 0.  1.
    9000002    1    1    2    0    0 -0.22087032438E+00 -0.22501227438E+00  0.82354723027E-01  0.99299573223E+00  0.93800000000E+00 0.  1.
         22    1    1    2    0    0  0.30642416302E+00  0.13745505727E+00  0.25794221771E+01  0.26011936545E+01  0.00000000000E+00 0.  1.
</event>
<event>
 5    1  0.6776507E+001  0.1599446E+01  0.7818608E-02  0.3353965E+00
         11   -1    0    0    0    0  0.00000000000E+00  0.00000000000E+00  0.39999999674E+01  0.40000000000E+01  0.51100000000E-03 0.  1.
    9000002   -1    0    0    0    0 -0.00000000000E+00 -0.00000000000E+00  0.00000000000E+00  0.93800000000E+00  0.93800000000E+00 0. -1.
         11    1    1    2    0    0 -0.57692490897E-01 -0.13492816386E+00  0.12296343126E+01  0.12383597364E+01  0.51100000000E-03 0.  1.
    9000002    1    1    2    0    0  0.23169574272E+00  0.40680168119E+00  0.14946848454E+00  0.10589406749E+01  0.93800000000E+00 0. -1.
         22    1    1    2    0    0 -0.17400325182E+00 -0.27187351732E+00  0.26208971703E+01  0.26406995888E+01  0.00000000000E+00 0.  1.
</event>
<event>
 5    1  0.6776507E+001  0.1599676E+01  0.7818608E-02  0.3353715E+00
         11   -1    0    0    0    0  0.00000000000E+00  0.00000000000E+00  0.39999999674E+01  0.40000000000E+01  0.51100000000E-03 0.  1.
    9000002   -1    0    0    0    0 -0.00000000000E+00 -0.00000000000E+00  0.00000000000E+00  0.93800000000E+00  0.93800000000E+00 0.  1.
         11    1    1    2    0    0 -0.53061078237E-01 -0.12178587086E+00  0.12371637447E+01  0.12442755598E+01  0.51100000000E-03 0.  1.
    9000002    1    1    2    0    0  0.16712912983E+00  0.38490801640E+00  0.11908252269E+00  0.10344616834E+01  0.93800000000E+00 0.  1.
         22    1    1    2    0    0 -0.11406805159E+00 -0.26312214554E+00  0.26437537000E+01  0.26592627568E+01  0.00000000000E+00 0.  1.
</event>
<event>
 5    1  0.7158945E+001  0.1567677E+01  0.7818608E-02  0.3389211E+00
         11   -1    0    0    0    0  0.00000000000E+00  0.00000000000E+00  0.39999999674E+01  0.40000000000E+01  0.51100000000E-03 0. -1.
    9000002   -1    0    0    0    0 -0.00000000000E+00 -0.00000000000E+00  0.00000000000E+00  0.93800000000E+00  0.93800000000E+00 0. -1.
         11    1    1    2    0    0 -0.63300230399E-01 -0.24218100417E-01  0.12064474834E+00  0.13837937700E+00  0.51100000000E-03 0. -1.
    9000002    1    1    2    0    0 -0.28066485744E+00 -0.28327249959E-01  0.78247265890E-01  0.98261988068E+00  0.93800000000E+00 0. -1.
         22    1    1    2    0    0  0.34396508784E+00  0.52545350376E-01  0.38011079531E+01  0.38170007423E+01  0.00000000000E+00 0. -1.
</event>
<event>
 5    1  0.6776507E+001  0.1599673E+01  0.7818608E-02  0.3353719E+00
         11   -1    0    0    0    0  0.00000000000E+00  0.00000000000E+00  0.39999999674E+01  0.40000000000E+01  0.51100000000E-03 0.  1.
    9000002   -1    0    0    0    0 -0.00000000000E+00 -0.00000000000E+00  0.00000000000E+00  0.93800000000E+00  0.93800000000E+00 0.  1.
         11    1    1    2    0    0 -0.20907748897E-01 -0.22312807719E-02  0.17948336156E+00  0.18071151257E+00  0.51100000000E-03 0. -1.
    9000002    1    1    2    0    0  0.45187822307E+00  0.68162678134E-01  0.14199232350E+00  0.10530175208E+01  0.93800000000E+00 0.  1.
         22    1    1    2    0    0 -0.43097047418E+00 -0.65931397362E-01  0.36785242823E+01  0.37042709666E+01  0.00000000000E+00 0.  1.
</event>
<event>
 5    1  0.6776507E+001  0.1599114E+01  0.7818608E-02  0.3354326E+00
         11   -1    0    0    0    0  0.00000000000E+00  0.00000000000E+00  0.39999999674E+01  0.40000000000E+01  0.51100000000E-03 0. -1.
    9000002   -1    0    0    0    0 -0.00000000000E+00 -0.00000000000E+00  0.00000000000E+00  0.93800000000E+00  0.93800000000E+00 0. -1.
         11    1    1    2    0    0 -0.30179564913E-01  0.10745251627E+00  0.14828120058E+01  0.14870065753E+01  0.51100000000E-03 0. -1.
    9000002    1    1    2    0    0  0.13760448443E+00 -0.32861861075E+00  0.85619358837E-01  0.10070252529E+01  0.93800000000E+00 0. -1.
         22    1    1    2    0    0 -0.10742491952E+00  0.22116609447E+00  0.24315686027E+01  0.24439681717E+01  0.00000000000E+00 0.  1.
</event>
<event>
 5    1  0.1358710E+002  0.1598433E+01  0.7818608E-02  0.3355066E+00
         11   -1    0    0    0    0  0.00000000000E+00  0.00000000000E+00  0.39999999674E+01  0.40000000000E+01  0.51100000000E-03 0.  1.
    9000002   -1    0    0    0    0 -0.00000000000E+00 -0.00000000000E+00  0.00000000000E+00  0.93800000000E+00  0.93800000000E+00 0. -1.
         11    1    1    2    0    0 -0.47100736820E-01 -0.41152718763E-01  0.13099054801E+01  0.13113979768E+01  0.51100000000E-03 0.  1.
    9000002    1    1    2    0    0  0.19195613076E+00  0.23320661453E+00  0.61849508006E-01  0.98737117785E+00  0.93800000000E+00 0. -1.
         22    1    1    2    0    0 -0.14485539394E+00 -0.19205389577E+00  0.26282449793E+01  0.26392308454E+01  0.00000000000E+00 0.  1.
</event>
<event>
 5    1  0.6776507E+001  0.1575281E+01  0.7818608E-02  0.3380638E+00
         11   -1    0    0    0    0  0.00000000000E+00  0.00000000000E+00  0.39999999674E+01  0.40000000000E+01  0.51100000000E-03 0. -1.
    9000002   -1    0    0    0    0 -0.00000000000E+00 -0.00000000000E+00  0.00000000000E+00  0.93800000000E+00  0.93800000000E+00 0. -1.
         11    1    1    2    0    0 -0.11032269632E+00 -0.13815063156E+00  0.69898045325E+00  0.72099280820E+00  0.51100000000E-03 0. -1.
    9000002    1    1    2    0    0 -0.19364514877E+00  0.64878027829E+00  0.35271061876E+00  0.12094060831E+01  0.93800000000E+00 0. -1.
         22    1    1    2    0    0  0.30396784509E+00 -0.51062964673E+00  0.29483088954E+01  0.30076011088E+01  0.00000000000E+00 0. -1.
</event>
<event>
 5    1  0.8077908E+001  0.1599666E+01  0.7818608E-02  0.3353726E+00
         11   -1    0    0    0    0  0.00000000000E+00  0.00000000000E+00  0.39999999674E+01  0.40000000000E+01  0.51100000000E-03 0. -1.
    9000002   -1    0    0    0    0 -0.00000000000E+00 -0.00000000000E+00  0.00000000000E+00  0.93800000000E+00  0.93800000000E+00 0.  1.
         11    1    1    2    0    0 -0.12508840732E+00  0.63992837451E-02  0.13991846253E+01  0.14047796757E+01  0.51100000000E-03 0. -1.
    9000002    1    1    2    0    0  0.35215248726E+00 -0.28245033553E-01  0.83724888154E-01  0.10058146018E+01  0.93800000000E+00 0.  1.
         22    1    1    2    0    0 -0.22706407995E+00  0.21845749808E-01  0.25170904540E+01  0.25274057226E+01  0.00000000000E+00 0. -1.
</event>
<event>
 5    1  0.6776507E+001  0.1599663E+01  0.7818608E-02  0.3353729E+00
         11   -1    0    0    0    0  0.00000000000E+00  0.00000000000E+00  0.39999999674E+01  0.40000000000E+01  0.51100000000E-03 0.  1.
    9000002   -1    0    0    0    0 -0.00000000000E+00 -0.00000000000E+00  0.00000000000E+00  0.93800000000E+00  0.93800000000E+00 0. -1.
         11    1    1    2    0    0 -0.36092383376E-01 -0.76891243914E-01  0.37230820694E+00  0.38187509163E+00  0.51100000000E-03 0.  1.
    9000002    1    1    2    0    0  0.31866314559E+00  0.72331762690E+00  0.45873194784E+00  0.13095852739E+01  0.93800000000E+00 0. -1.
         22    1    1    2    0    0 -0.28257076221E+00 -0.64642638298E+00  0.31689598126E+01  0.32465396344E+01  0.00000000000E+00 0.  1.
</event>
<event>
 5    1  0.6776507E+001  0.1595268E+01  0.7818608E-02  0.3358516E+00
         11   -1    0    0    0    0  0.00000000000E+00  0.00000000000E+00  0.39999999674E+01  0.40000000000E+01  0.51100000000E-03 0.  1.
    9000002   -1    0    0    0    0 -0.00000000000E+00 -0.00000000000E+00  0.00000000000E+00  0.93800000000E+00  0.93800000000E+00 0.  1.
         11    1    1    2    0    0 -0.65834977813E-01  0.15571675784E+00  0.80287100660E+00  0.82047795054E+00  0.51100000000E-03 0.  1.
    9000002    1    1    2    0    0  0.19102585597E+00 -0.45381934730E+00  0.16971120408E+00  0.10728880512E+01  0.93800000000E+00 0.  1.
         22    1    1    2    0    0 -0.12519087816E+00  0.29810258946E+00  0.30274177567E+01  0.30446339982E+01  0.00000000000E+00 0.  1.
</event>
<event>
 5    1  0.6776507E+001  0.1599668E+01  0.7818608E-02  0.3353724E+00
         11   -1    0    0    0    0  0.00000000000E+00  0.00000000000E+00  0.39999999674E+01  0.40000000000E+01  0.51100000000E-03 0. -1.
    9000002   -1    0    0    0    0 -0.00000000000E+00 -0.00000000000E+00  0.00000000000E+00  0.93800000000E+00  0.93800000000E+00 0.  1.
         11    1    1    2    0    0 -0.12178549478E+00  0.17310228796E-02  0.11198411776E+01  0.11264453948E+01  0.51100000000E-03 0. -1.
    9000002    1    1    2    0    0  0.41292125039E+00  0.64178307143E-03  0.11521103712E+00  0.10313204904E+01  0.93800000000E+00 0.  1.
         22    1    1    2    0    0 -0.29113575561E+00 -0.23728059510E-02  0.27649477526E+01  0.27802341148E+01  0.00000000000E+00 0. -1.
</event>
<event>
 5    1  0.6776507E+001  0.1582871E+01  0.7818608E-02  0.3372167E+00
         11   -1    0    0    0    0  0.00000000000E+00  0.00000000000E+00  0.39999999674E+01  0.40000000000E+01  0.51100000000E-03 0.  1.
    9000002   -1    0    0    0    0 -0.00000000000E+00 -0.00000000000E+00  0.00000000000E+00  0.93800000000E+00  0.93800000000E+00 0. -1.
         11    1    1    2    0    0 -0.11065524945E+00 -0.55824558105E-02  0.26274984509E+00  0.28515520381E+00  0.51100000000E-03 0.  1.
    9000002    1    1    2    0    0  0.43325398384E+00  0.95116727302E-01  0.14809502878E+00  0.10481089370E+01  0.93800000000E+00 0. -1.
         22    1    1    2    0    0 -0.32259873439E+00 -0.89534271491E-01  0.35891550935E+01  0.36047358592E+01  0.00000000000E+00 0.  1.
</event>
<event>
 5    1  0.6776507E+001  0.1599137E+01  0.7818608E-02  0.3354301E+00
         11   -1    0    0    0    0  0.00000000000E+00  0.00000000000E+00  0.39999999674E+01  0.40000000000E+01  0.51100000000E-03 0.  1.
    9000002   -1    0    0    0    0 -0.00000000000E+00 -0.00000000000E+00  0.00000000000E+00  0.93800000000E+00  0.93800000000E+00 0. -1.
         11    1    1    2    0    0 -0.24525181991E+00  0.97328721487E-01  0.14668159217E+01  0.14903591998E+01  0.51100000000E-03 0.  1.
    9000002    1    1    2    0    0  0.56389334343E+00 -0.21519003113E+00  0.25489286060E+00  0.11441576913E+01  0.93800000000E+00 0. -1.
         22    1    1    2    0    0 -0.31864152352E+00  0.11786130964E+00  0.22782911850E+01  0.23034831088E+01  0.00000000000E+00 0.  1.
</event>
<event>
 5    1  0.6776507E+001  0.1598979E+01  0.7818608E-02  0.3354472E+00
         11   -1    0    0    0    0  0.00000000000E+00  0.00000000000E+00  0.39999999674E+01  0.40000000000E+01  0.51100000000E-03 0.  1.
    9000002   -1    0    0    0    0 -0.00000000000E+00 -0.00000000000E+00  0.00000000000E+00  0.93800000000E+00  0.93800000000E+00 0. -1.
         11    1    1    2    0    0 -0.16755579145E-01 -0.61185062846E-02  0.76607764904E-01  0.78658733248E-01  0.51100000000E-03 0.  1.
    9000002    1    1    2    0    0  0.46227953516E+00  0.63600757299E-01  0.14887281791E+00  0.10581845495E+01  0.93800000000E+00 0. -1.
         22    1    1    2    0    0 -0.44552395601E+00 -0.57482251014E-01  0.37745193845E+01  0.38011567172E+01  0.00000000000E+00 0.  1.
</event>
<event>
 5    1  0.6776507E+001  0.1599674E+01  0.7818608E-02  0.3353718E+00
         11   -1    0    0    0    0  0.00000000000E+00  0.00000000000E+00  0.39999999674E+01  0.40000000000E+01  0.51100000000E-03 0.  1.
    9000002   -1    0    0    0    0 -0.00000000000E+00 -0.00000000000E+00  0.00000000000E+00  0.93800000000E+00  0.93800000000E+00 0. -1.
         11    1    1    2    0    0  0.12268544862E+00 -0.56177027894E-03  0.11315328989E+01  0.11381647497E+01  0.51100000000E-03 0.  1.
    9000002    1    1    2    0    0 -0.41495415380E+00 -0.12011208047E-02  0.11637537678E+00  0.10322672235E+01  0.93800000000E+00 0. -1.
         22    1    1    2    0    0  0.29226870517E+00  0.17628910837E-02  0.27520916916E+01  0.27675680268E+01  0.00000000000E+00 0.  1.
</event>
<event>
 5    1  0.6776507E+001  0.1599675E+01  0.7818608E-02  0.3353716E+00
         11   -1    0    0    0    0  0.00000000000E+00  0.00000000000E+00  0.39999999674E+01  0.40000000000E+01  0.51100000000E-03 0.  1.
    9000002   -1    0    0    0    0 -0.00000000000E+00 -0.00000000000E+00  0.00000000000E+00  0.93800000000E+00  0.93800000000E+00 0.  1.
         11    1    1    2    0    0 -0.45883350499E-01  0.16741178727E-01  0.55328323535E+00  0.55543509842E+00  0.51100000000E-03 0.  1.
    9000002    1    1    2    0    0  0.33152092827E+00 -0.12207357431E+00  0.83717050892E-01  0.10058134161E+01  0.93800000000E+00 0.  1.
         22    1    1    2    0    0 -0.28563757777E+00  0.10533239558E+00  0.33629996811E+01  0.33767514855E+01  0.00000000000E+00 0.  1.
</event>
<event>
 5    1  0.6776507E+001  0.1599140E+01  0.7818608E-02  0.3354297E+00
         11   -1    0    0    0    0  0.00000000000E+00  0.00000000000E+00  0.39999999674E+01  0.40000000000E+01  0.51100000000E-03 0. -1.
    9000002   -1    0    0    0    0 -0.00000000000E+00 -0.00000000000E+00  0.00000000000E+00  0.93800000000E+00  0.93800000000E+00 0. -1.
         11    1    1    2    0    0  0.41613857455E-01 -0.44524753392E-01  0.36606611374E+00  0.37110487406E+00  0.51100000000E-03 0. -1.
    9000002    1    1    2    0    0 -0.35057649657E+00  0.31765246676E+00  0.15301330851E+00  0.10616327247E+01  0.93800000000E+00 0.  1.
         22    1    1    2    0    0  0.30896263912E+00 -0.27312771337E+00  0.34809205451E+01  0.35052624012E+01  0.00000000000E+00 0. -1.
</event>
<event>
 5    1  0.6776507E+001  0.1533385E+01  0.7818608E-02  0.3428998E+00
         11   -1    0    0    0    0  0.00000000000E+00  0.00000000000E+00  0.39999999674E+01  0.40000000000E+01  0.51100000000E-03 0.  1.
    9000002   -1    0    0    0    0 -0.00000000000E+00 -0.00000000000E+00  0.00000000000E+00  0.93800000000E+00  0.93800000000E+00 0. -1.
         11    1    1    2    0    0 -0.17761730098E+00 -0.20113895020E+00  0.10138146103E+01  0.10487254684E+01  0.51100000000E-03 0.  1.
    9000002    1    1    2    0    0  0.11792770594E+00 -0.10643474008E+00  0.67421349383E-01  0.95374259425E+00  0.93800000000E+00 0. -1.
         22    1    1    2    0    0  0.59689595037E-01  0.30757369028E+00  0.29187640077E+01  0.29355319374E+01  0.00000000000E+00 0.  1.
</event>
<event>
 5    1  0.6776507E+001  0.1599676E+01  0.7818608E-02  0.3353715E+00
         11   -1    0    0    0    0  0.00000000000E+00  0.00000000000E+00  0.39999999674E+01  0.40000000000E+01  0.51100000000E-03 0.  1.
    9000002   -1    0    0    0    0 -0.00000000000E+00 -0.00000000000E+00  0.00000000000E+00  0.93800000000E+00  0.93800000000E+00 0. -1.
         11    1    1    2    0    0  0.13932045757E+00  0.69079592710E-02  0.11252996743E+01  0.11339124869E+01  0.51100000000E-03 0.  1.
    9000002    1    1    2    0    0 -0.47870030490E+00 -0.22581254490E-01  0.15668537729E+00  0.10649216884E+01  0.93800000000E+00 0. -1.
         22    1    1    2    0    0  0.33937984733E+00  0.15673295219E-01  0.27180149158E+01  0.27391658247E+01  0.00000000000E+00 0.  1.
</event>
<event>
 5    1  0.6776507E+001  0.1599320E+01  0.7818608E-02  0.3354102E+00
         11   -1    0    0    0    0  0.00000000000E+00  0.00000000000E+00  0.39999999674E+01  0.40000000000E+01  0.51100000000E-03 0.  1.
    9000002   -1    0    0    0    0 -0.00000000000E+00 -0.00000000000E+00  0.00000000000E+00  0.93800000000E+00  0.93800000000E+00 0.  1.
         11    1    1    2    0    0 -0.75974628166E-02 -0.61050927938E-02  0.55199322285E-01  0.56055507321E-01  0.51100000000E-03 0.  1.
    9000002    1    1    2    0    0  0.52161270027E+00  0.47086592479E-01  0.18887307250E+00  0.10907859523E+01  0.93800000000E+00 0.  1.
         22    1    1    2    0    0 -0.51401523745E+00 -0.40981499685E-01  0.37559275726E+01  0.37911585404E+01  0.00000000000E+00 0.  1.
</event>
<event>
 5    1  0.6776507E+001  0.1599675E+01  0.7818608E-02  0.3353716E+00
         11   -1    0    0    0    0  0.00000000000E+00  0.00000000000E+00  0.39999999674E+01  0.40000000000E+01  0.51100000000E-03 0. -1.
    9000002   -1    0    0    0    0 -0.00000000000E+00 -0.00000000000E+00  0.00000000000E+00  0.93800000000E+00  0.93800000000E+00 0. -1.
         11    1    1    2    0    0 -0.11211749489E+00 -0.36770789051E-01  0.10094565479E+01  0.10163292807E+01  0.51100000000E-03 0. -1.
    9000002    1    1    2    0    0  0.42816880147E+00  0.13569052173E+00  0.13700328515E+00  0.10489777597E+01  0.93800000000E+00 0. -1.
         22    1    1    2    0    0 -0.31605130658E+00 -0.98919732677E-01  0.28535401343E+01  0.28726929596E+01  0.00000000000E+00 0. -1.
</event>
<event>
 5    1  0.6776507E+001  0.1593758E+01  0.7818608E-02  0.3360166E+00
         11   -1    0    0    0    0  0.00000000000E+00  0.00000000000E+00  0.39999999674E+01  0.40000000000E+01  0.51100000000E-03 0. -1.
    9000002   -1    0    0    0    0 -0.00000000000E+00 -0.00000000000E+00  0.00000000000E+00  0.93800000000E+00  0.93800000000E+00 0. -1.
         11    1    1    2    0    0  0.25654439161E-01  0.25206414952E+00  0.12381687351E+01  0.12638261603E+01  0.51100000000E-03 0. -1.
    9000002    1    1    2    0    0  0.14020605069E+00 -0.60926592972E+00  0.28029647165E+00  0.11615820340E+01  0.93800000000E+00 0. -1.
         22    1    1    2    0    0 -0.16586048985E+00  0.35720178020E+00  0.24815347606E+01  0.25125918056E+01  0.00000000000E+00 0. -1.
</event>
<event>
 5    1  0.6776507E+001  0.1599605E+01  0.7818608E-02  0.3353793E+00
         11   -1    0    0    0    0  0.00000000000E+00  0.00000000000E+00  0.39999999674E+01  0.40000000000E+01  0.51100000000E-03 0. -1.
    9000002   -1    0    0    0    0 -0.00000000000E+00 -0.00000000000E+00  0.00000000000E+00  0.93800000000E+00  0.93800000000E+00 0.  1.
         11    1    1    2    0    0  0.30656697581E-01 -0.14755034211E+00  0.11530717416E+01  0.11628781703E+01  0.51100000000E-03 0. -1.
    9000002    1    1    2    0    0 -0.71122709938E-01  0.48584699692E+00  0.16486932394E+00  0.10715090472E+01  0.93800000000E+00 0.  1.
         22    1    1    2    0    0  0.40466012357E-01 -0.33829665480E+00  0.26820589018E+01  0.27036127825E+01  0.00000000000E+00 0. -1.
</event>
<event>
 5    1  0.6776507E+001  0.1594287E+01  0.7818608E-02  0.3359588E+00
         11   -1    0    0    0    0  0.00000000000E+00  0.00000000000E+00  0.39999999674E+01  0.40000000000E+01  0.51100000000E-03 0. -1.
    9000002   -1    0    0    0    0 -0.00000000000E+00 -0.00000000000E+00  0.00000000000E+00  0.93800000000E+00  0.93800000000E+00 0.  1.
         11    1    1    2    0    0 -0.86683632741E-01  0.91194053578E-01  0.65842530291E+00  0.67033912927E+00  0.51100000000E-03 0. -1.
    9000002    1    1    2    0    0  0.11328262775E+00 -0.52262175882E+00  0.20198680599E+00  0.10984576124E+01  0.93800000000E+00 0.  1.
         22    1    1    2    0    0 -0.26598995009E-01  0.43142770524E+00  0.31395878585E+01  0.31692032583E+01  0.00000000000E+00 0. -1.
</event>
<event>
 5    1  0.6776507E+001  0.1599626E+01  0.7818608E-02  0.3353769E+00
         11   -1    0    0    0    0  0.00000000000E+00  0.00000000000E+00  0.39999999674E+01  0.40000000000E+01  0.51100000000E-03 0. -1.
    9000002   -1    0    0    0    0 -0.00000000000E+00 -0.00000000000E+00  0.00000000000E+00  0.93800000000E+00  0.93800000000E+00 0.  1.
         11    1    1    2    0    0 -0.49099511929E-01  0.41318040844E-01  0.65666460415E+00  0.65979285086E+00  0.51100000000E-03 0. -1.
    9000002    1    1    2    0    0  0.30639809062E+00 -0.27891785112E+00  0.11605845820E+00  0.10319828115E+01  0.93800000000E+00 0.  1.
         22    1    1    2    0    0 -0.25729857869E+00  0.23759981027E+00  0.32272769050E+01  0.32462243376E+01  0.00000000000E+00 0. -1.
</event>
<event>
 5    1  0.6776507E+001  0.1599672E+01  0.7818608E-02  0.3353719E+00
         11   -1    0    0    0    0  0.00000000000E+00  0.00000000000E+00  0.39999999674E+01  0.40000000000E+01  0.51100000000E-03 0. -1.
    9000002   -1    0    0    0    0 -0.00000000000E+00 -0.00000000000E+00  0.00000000000E+00  0.93800000000E+00  0.93800000000E+00 0. -1.
         11    1    1    2    0    0  0.68285361678E-04  0.38627498618E-01  0.39625760520E+00  0.39813620674E+00  0.51100000000E-03 0. -1.
    9000002    1    1    2    0    0  0.14037140088E-01 -0.37864109106E+00  0.96588016896E-01  0.10162378472E+01  0.93800000000E+00 0. -1.
         22    1    1    2    0    0 -0.14105425450E-01  0.34001359244E+00  0.35071543453E+01  0.35236259460E+01  0.00000000000E+00 0. -1.
</event>
<event>
 5    1  0.6776507E+001  0.1599127E+01  0.7818608E-02  0.3354312E+00
         11   -1    0    0    0    0  0.00000000000E+00  0.00000000000E+00  0.39999999674E+01  0.40000000000E+01  0.51100000000E-03 0. -1.
    9000002   -1    0    0    0    0 -0.00000000000E+00 -0.00000000000E+00  0.00000000000E+00  0.93800000000E+00  0.93800000000E+00 0.  1.
         11    1    1    2    0    0 -0.59823057366E-01 -0.10499766437E+00  0.11794776761E+01  0.11856522076E+01  0.51100000000E-03 0. -1.
    9000002    1    1    2    0    0  0.11955890352E+00  0.38210843404E+00  0.10858978565E+00  0.10256397654E+01  0.93800000000E+00 0.  1.
         22    1    1    2    0    0 -0.59735846150E-01 -0.27711076967E+00  0.27119325056E+01  0.27267080270E+01  0.00000000000E+00 0. -1.
</event>
<event>
 5    1  0.6776507E+001  0.1519498E+01  0.7818608E-02  0.3445657E+00
         11   -1    0    0    0    0  0.00000000000E+00  0.00000000000E+00  0.39999999674E+01  0.40000000000E+01  0.51100000000E-03 0. -1.
    9000002   -1    0    0    0    0 -0.00000000000E+00 -0.00000000000E+00  0.00000000000E+00  0.93800000000E+00  0.93800000000E+00 0. -1.
         11    1    1    2    0    0 -0.29450069802E+00  0.86037762415E-01  0.12831069913E+01  0.13192789583E+01  0.51100000000E-03 0. -1.
    9000002    1    1    2    0    0 -0.45886425608E-02  0.10842337408E+00  0.68858911132E-01  0.94676408536E+00  0.93800000000E+00 0. -1.
         22    1    1    2    0    0  0.29908934058E+00 -0.19446113649E+00  0.26480340650E+01  0.26719569563E+01  0.00000000000E+00 0. -1.
</event>
<event>
 5    1  0.6776507E+001  0.1597296E+01  0.7818608E-02  0.3356303E+00
         11   -1    0    0    0    0  0.00000000000E+00  0.00000000000E+00  0.39999999674E+01  0.40000000000E+01  0.51100000000E-03 0. -1.
    9000002   -1    0    0    0    0 -0.00000000000E+00 -0.00000000000E+00  0.00000000000E+00  0.93800000000E+00  0.93800000000E+00 0.  1.
         11    1    1    2    0    0 -0.82715444886E-01 -0.49925502106E-01  0.68551855699E+00  0.69229354589E+00  0.51100000000E-03 0. -1.
    9000002    1    1    2    0    0  0.27393065077E+00  0.44573933012E+00  0.19032303972E+00  0.10907742256E+01  0.93800000000E+00 0.  1.
         22    1    1    2    0    0 -0.19121520588E+00 -0.39581382802E+00  0.31241583706E+01  0.31549322285E+01  0.00000000000E+00 0. -1.
</event>
<event>
 5    1  0.6776507E+001  0.1590975E+01  0.7818608E-02  0.3363217E+00
         11   -1    0    0    0    0  0.00000000000E+00  0.00000000000E+00  0.39999999674E+01  0.40000000000E+01  0.51100000000E-03 0.  1.
    9000002   -1    0    0    0    0 -0.00000000000E+00 -0.00000000000E+00  0.00000000000E+00  0.93800000000E+00  0.93800000000E+00 0.  1.
         11    1    1    2    0    0  0.12920232544E+00 -0.10002748901E-01  0.10754340114E+01  0.10832136770E+01  0.51100000000E-03 0.  1.
    9000002    1    1    2    0    0 -0.66603288108E+00  0.29330887337E+00  0.39163791626E+00  0.12501416525E+01  0.93800000000E+00 0.  1.
         22    1    1    2    0    0  0.53683055564E+00 -0.28330612447E+00  0.25329280397E+01  0.26046446705E+01  0.00000000000E+00 0.  1.
</event>
<event>
 5    1  0.6776507E+001  0.1599641E+01  0.7818608E-02  0.3353754E+00
         11   -1    0    0    0    0  0.00000000000E+00  0.00000000000E+00  0.39999999674E+01  0.40000000000E+01  0.51100000000E-03 0. -1.
    9000002   -1    0    0    0    0 -0.00000000000E+00 -0.00000000000E+00  0.00000000000E+00  0.93800000000E+00  0.93800000000E+00 0.  1.
         11    1    1    2    0    0 -0.61351693936E-01 -0.12608514878E+00  0.13018991735E+01  0.13094285830E+01  0.51100000000E-03 0. -1.
    9000002    1    1    2    0    0  0.19273179640E+00  0.39256049735E+00  0.12968608716E+00  0.10430300909E+01  0.93800000000E+00 0.  1.
         22    1    1    2    0    0 -0.13138010246E+00 -0.26647534857E+00  0.25684147068E+01  0.25855413260E+01  0.00000000000E+00 0. -1.
</event>
<event>
 5    1  0.6776507E+001  0.1598296E+01  0.7818608E-02  0.3355215E+00
         11   -1    0    0    0    0  0.00000000000E+00  0.00000000000E+00  0.39999999674E+01  0.40000000000E+01  0.51100000000E-03 0.  1.
    9000002   -1    0    0    0    0 -0.00000000000E+00 -0.00000000000E+00  0.00000000000E+00  0.93800000000E+00  0.93800000000E+00 0.  1.
         11    1    1    2    0    0 -0.18757263389E+00 -0.77282198333E-01  0.13887584992E+01  0.14034979378E+01  0.51100000000E-03 0.  1.
    9000002    1    1    2    0    0  0.44098611609E+00  0.12513141349E+00  0.14409518669E+00  0.10539136815E+01  0.93800000000E+00 0.  1.
         22    1    1    2    0    0 -0.25341348219E+00 -0.47849215154E-01  0.24671462814E+01  0.24805883807E+01  0.00000000000E+00 0.  1.
</event>
<event>
 5    1  0.6776507E+001  0.1599652E+01  0.7818608E-02  0.3353742E+00
         11   -1    0    0    0    0  0.00000000000E+00  0.00000000000E+00  0.39999999674E+01  0.40000000000E+01  0.51100000000E-03 0. -1.
    9000002   -1    0    0    0    0 -0.00000000000E+00 -0.00000000000E+00  0.00000000000E+00  0.93800000000E+00  0.93800000000E+00 0.  1.
         11    1    1    2    0    0  0.20348001292E-01  0.13518790362E-01  0.30108862460E+00  0.30207849945E+00  0.51100000000E-03 0. -1.
    9000002    1    1    2    0    0 -0.30263658957E+00 -0.19261524616E+00  0.86392491633E-01  0.10079668650E+01  0.93800000000E+00 0.  1.
         22    1    1    2    0    0  0.28228858828E+00  0.17909645580E+00  0.36125188511E+01  0.36279546355E+01  0.00000000000E+00 0. -1.
</event>
<event>
 5    1  0.6776507E+001  0.1595061E+01  0.7818608E-02  0.3358742E+00
         11   -1    0    0    0    0  0.00000000000E+00  0.00000000000E+00  0.39999999674E+01  0.40000000000E+01  0.51100000000E-03 0. -1.
    9000002   -1    0    0    0    0 -0.00000000000E+00 -0.00000000000E+00  0.00000000000E+00  0.93800000000E+00  0.93800000000E+00 0.  1.
         11    1    1    2    0    0 -0.45391122518E-02 -0.36718620156E-01  0.13444837141E+00  0.13944707348E+00  0.51100000000E-03 0. -1.
    9000002    1    1    2    0    0 -0.35779780635E+00  0.33294275862E+00  0.16734426891E+00  0.10708493148E+01  0.93800000000E+00 0.  1.
         22    1    1    2    0    0  0.36233691860E+00 -0.29622413846E+00  0.36982073270E+01  0.37277036117E+01  0.00000000000E+00 0. -1.
</event>
<event>
 5    1  0.6776507E+001  0.1599649E+01  0.7818608E-02  0.3353745E+00
         11   -1    0    0    0    0  0.00000000000E+00  0.00000000000E+00  0.39999999674E+01  0.40000000000E+01  0.51100000000E-03 0. -1.
    9000002   -1    0    0    0    0 -0.00000000000E+00 -0.00000000000E+00  0.00000000000E+00  0.93800000000E+00  0.93800000000E+00 0.  1.
         11    1    1    2    0    0  0.61888610490E-02 -0.15349246216E-01  0.11866267839E+00  0.11981232710E+00  0.51100000000E-03 0. -1.
    9000002    1    1    2    0    0 -0.12935455736E+00  0.49171463414E+00  0.17724818015E+00  0.10815622036E+01  0.93800000000E+00 0.  1.
         22    1    1    2    0    0  0.12316569631E+00 -0.47636538793E+00  0.37040891088E+01  0.37366254693E+01  0.00000000000E+00 0. -1.
</event>
<event>
 5    1  0.6776507E+001  0.1599638E+01  0.7818608E-02  0.3353756E+00
         11   -1    0    0    0    0  0.00000000000E+00  0.00000000000E+00  0.39999999674E+01  0.40000000000E+01  0.51100000000E-03 0.  1.
    9000002   -1    0    0    0    0 -0.00000000000E+00 -0.00000000000E+00  0.00000000000E+00  0.93800000000E+00  0.93800000000E+00 0.  1.
         11    1    1    2    0    0  0.12300717277E+00 -0.79596319675E-02  0.12123172259E+01  0.12185677813E+01  0.51100000000E-03 0.  1.
    9000002    1    1    2    0    0 -0.37529199587E+00  0.33724409834E-01  0.95525735632E-01  0.10153573677E+01  0.93800000000E+00 0.  1.
         22    1    1    2    0    0  0.25228482310E+00 -0.25764777867E-01  0.26921570058E+01  0.27040748510E+01  0.00000000000E+00 0. -1.
</event>
<event>
 5    1  0.6776507E+001  0.1596844E+01  0.7818608E-02  0.3356795E+00
         11   -1    0    0    0    0  0.00000000000E+00  0.00000000000E+00  0.39999999674E+01  0.40000000000E+01  0.51100000000E-03 0. -1.
    9000002   -1    0    0    0    0 -0.00000000000E+00 -0.00000000000E+00  0.00000000000E+00  0.93800000000E+00  0.93800000000E+00 0.  1.
         11    1    1    2    0    0 -0.13672414258E+00 -0.10323100428E+00  0.84419035188E+00  0.86139871299E+00  0.51100000000E-03 0. -1.
    9000002    1    1    2    0    0  0.41842192293E+00  0.32413009556E+00  0.19537518477E+00  0.10946016112E+01  0.93800000000E+00 0.  1.
         22    1    1    2    0    0 -0.28169778035E+00 -0.22089909128E+00  0.29604344307E+01  0.29819996758E+01  0.00000000000E+00 0. -1.
</event>
<event>
 5    1  0.6776507E+001  0.1599675E+01  0.7818608E-02  0.3353717E+00
         11   -1    0    0    0    0  0.00000000000E+00  0.00000000000E+00  0.39999999674E+01  0.40000000000E+01  0.51100000000E-03 0. -1.
    9000002   -1    0    0    0    0 -0.00000000000E+00 -0.00000000000E+00  0.00000000000E+00  0.93800000000E+00  0.93800000000E+00 0.  1.
         11    1    1    2    0    0  0.28705944394E+00  0.27422963078E+00  0.12920379953E+01  0.13516536010E+01  0.51100000000E-03 0. -1.
    9000002    1    1    2    0    0 -0.71152632495E+00 -0.68331851714E+00  0.77701426105E+00  0.15674147724E+01  0.93800000000E+00 0.  1.
         22    1    1    2    0    0  0.42446688101E+00  0.40908888635E+00  0.19309477110E+01  0.20189316265E+01  0.00000000000E+00 0. -1.
</event>
<event>
 5    1  0.7387614E+001  0.1597571E+01  0.7818608E-02  0.3356004E+00
         11   -1    0    0    0    0  0.00000000000E+00  0.00000000000E+00  0.39999999674E+01  0.40000000000E+01  0.51100000000E-03 0.  1.
    9000002   -1    0    0    0    0 -0.00000000000E+00 -0.00000000000E+00  0.00000000000E+00  0.93800000000E+00  0.93800000000E+00 0. -1.
         11    1    1    2    0    0  0.99596739612E-01  0.34549563868E-01  0.12821601899E+01  0.12864867651E+01  0.51100000000E-03 0.  1.
    9000002    1    1    2    0    0 -0.33244987733E+00  0.50353292081E-01  0.77378004053E-01  0.99944471106E+00  0.93800000000E+00 0. -1.
         22    1    1    2    0    0  0.23285313772E+00 -0.84902855948E-01  0.26404617734E+01  0.26520685239E+01  0.00000000000E+00 0.  1.
</event>
<event>
 5    1  0.6776507E+001  0.1599601E+01  0.7818608E-02  0.3353797E+00
         11   -1    0    0    0    0  0.00000000000E+00  0.00000000000E+00  0.39999999674E+01  0.40000000000E+01  0.51100000000E-03 0. -1.
    9000002   -1    0    0    0    0 -0.00000000000E+00 -0.00000000000E+00  0.00000000000E+00  0.93800000000E+00  0.93800000000E+00 0.  1.
         11    1    1    2    0    0  0.14546703972E-01 -0.33991667730E-01  0.25032674452E+00  0.25304304025E+00  0.51100000000E-03 0. -1.
    9000002    1    1    2    0    0 -0.19172803404E+00  0.44758502029E+00  0.16202042789E+00  0.10691990500E+01  0.93800000000E+00 0.  1.
         22    1    1    2    0    0  0.17718133007E+00 -0.41359335256E+00  0.35876527949E+01  0.36157579098E+01  0.00000000000E+00 0. -1.
</event>
<event>
 5    1  0.6776507E+001  0.1599445E+01  0.7818608E-02  0.3353966E+00
         11   -1    0    0    0    0  0.00000000000E+00  0.00000000000E+00  0.39999999674E+01  0.40000000000E+01  0.51100000000E-03 0. -1.
    9000002   -1    0    0    0    0 -0.00000000000E+00 -0.00000000000E+00  0.00000000000E+00  0.93800000000E+00  0.93800000000E+00 0. -1.
         11    1    1    2    0    0 -0.25601723531E-01  0.32518201772E-01  0.60025151790E+00  0.60167684645E+00  0.51100000000E-03 0. -1.
    9000002    1    1    2    0    0  0.19265926536E+00 -0.29470612043E+00  0.83329099210E-01  0.10053641274E+01  0.93800000000E+00 0. -1.
         22    1    1    2    0    0 -0.16705754182E+00  0.26218791866E+00  0.33164193502E+01  0.33309590261E+01  0.00000000000E+00 0. -1.
</event>
<event>
 5    1  0.6776507E+001  0.1557840E+01  0.7818608E-02  0.3400433E+00
         11   -1    0    0    0    0  0.00000000000E+00  0.00000000000E+00  0.39999999674E+01  0.40000000000E+01  0.51100000000E-03 0.  1.
    9000002   -1    0    0    0    0 -0.00000000000E+00 -0.00000000000E+00  0.00000000000E+00  0.93800000000E+00  0.93800000000E+00 0. -1.
         11    1    1    2    0    0  0.13964416370E+00 -0.11628846336E+00  0.14044063202E+01  0.14161147103E+01  0.51100000000E-03 0.  1.
    9000002    1    1    2    0    0  0.41026160250E-01 -0.17389462030E+00  0.52912328182E-01  0.95632954533E+00  0.93800000000E+00 0. -1.
         22    1    1    2    0    0 -0.18067032395E+00  0.29018308366E+00  0.25426813189E+01  0.25655557444E+01  0.00000000000E+00 0.  1.
</event>
<event>
 5    1  0.6776507E+001  0.1599527E+01  0.7818608E-02  0.3353877E+00
         11   -1    0    0    0    0  0.00000000000E+00  0.00000000000E+00  0.39999999674E+01  0.40000000000E+01  0.51100000000E-03 0. -1.
    9000002   -1    0    0    0    0 -0.00000000000E+00 -0.00000000000E+00  0.00000000000E+00  0.93800000000E+00  0.93800000000E+00 0.  1.
         11    1    1    2    0    0 -0.15314599674E-01  0.12910571270E-01  0.30278646949E+00  0.30344872226E+00  0.51100000000E-03 0. -1.
    9000002    1    1    2    0    0  0.29989865696E+00 -0.17337150869E+00  0.80547767257E-01  0.10031594227E+01  0.93800000000E+00 0.  1.
         22    1    1    2    0    0 -0.28458405729E+00  0.16046093742E+00  0.36166657306E+01  0.36313918551E+01  0.00000000000E+00 0. -1.
</event>
<event>
 5    1  0.6776507E+001  0.1598726E+01  0.7818608E-02  0.3354747E+00
         11   -1    0    0    0    0  0.00000000000E+00  0.00000000000E+00  0.39999999674E+01  0.40000000000E+01  0.51100000000E-03 0. -1.
    9000002   -1    0    0    0    0 -0.00000000000E+00 -0.00000000000E+00  0.00000000000E+00  0.93800000000E+00  0.93800000000E+00 0. -1.
         11    1    1    2    0    0  0.24993306199E-01 -0.74097052499E-01  0.48612562183E+00  0.49237528356E+00  0.51100000000E-03 0. -1.
    9000002    1    1    2    0    0 -0.31758049427E+00  0.42874309065E+00  0.19690995428E+00  0.10969482842E+01  0.93800000000E+00 0. -1.
         22    1    1    2    0    0  0.29258718807E+00 -0.35464603815E+00  0.33169643912E+01  0.33486764322E+01  0.00000000000E+00 0. -1.
</event>
<event>
 5    1  0.6776507E+001  0.1599587E+01  0.7818608E-02  0.3353812E+00
         11   -1    0    0    0    0  0.00000000000E+00  0.00000000000E+00  0.39999999674E+01  0.40000000000E+01  0.51100000000E-03 0.  1.
    9000002   -1    0    0    0    0 -0.00000000000E+00 -0.00000000000E+00  0.00000000000E+00  0.93800000000E+00  0.93800000000E+00 0.  1.
         11    1    1    2    0    0 -0.11123990228E+00 -0.75613221698E-01  0.11439527681E+01  0.11518332657E+01  0.51100000000E-03 0.  1.
    9000002    1    1    2    0    0  0.34920595651E+00  0.23482226248E+00  0.11985337642E+00  0.10350338772E+01  0.93800000000E+00 0.  1.
         22    1    1    2    0    0 -0.23796605422E+00 -0.15920904078E+00  0.27361938228E+01  0.27511328571E+01  0.00000000000E+00 0.  1.
</event>
<event>
 5    1  0.6776507E+001  0.1598878E+01  0.7818608E-02  0.3354582E+00
         11   -1    0    0    0    0  0.00000000000E+00  0.00000000000E+00  0.39999999674E+01  0.40000000000E+01  0.51100000000E-03 0. -1.
    9000002   -1    0    0    0    0 -0.00000000000E+00 -0.00000000000E+00  0.00000000000E+00  0.93800000000E+00  0.93800000000E+00 0.  1.
         11    1    1    2    0    0 -0.58178001620E-01  0.27685606067E-01  0.36339603322E+00  0.36906383017E+00  0.51100000000E-03 0. -1.
    9000002    1    1    2    0    0  0.48716121051E+00 -0.12121225536E+00  0.17330028710E+00  0.10779125407E+01  0.93800000000E+00 0.  1.
         22    1    1    2    0    0 -0.42898320889E+00  0.93526649291E-01  0.34633036470E+01  0.34910236291E+01  0.00000000000E+00 0. -1.
</event>
<event>
 5    1  0.6776507E+001  0.1598778E+01  0.7818608E-02  0.3354691E+00
         11   -1    0    0    0    0  0.00000000000E+00  0.00000000000E+00  0.39999999674E+01  0.40000000000E+01  0.51100000000E-03 0. -1.
    9000002   -1    0    0    0    0 -0.00000000000E+00 -0.00000000000E+00  0.00000000000E+00  0.93800000000E+00  0.93800000000E+00 0.  1.
         11    1    1    2    0    0 -0.44130945409E-01 -0.97429039540E-01  0.11931547822E+01  0.11979392946E+01  0.51100000000E-03 0. -1.
    9000002    1    1    2    0    0  0.43295164064E-01  0.35918993476E+00  0.88610085701E-01  0.10092510232E+01  0.93800000000E+00 0.  1.
         22    1    1    2    0    0  0.83578134465E-03 -0.26176089522E+00  0.27182350995E+01  0.27308096823E+01  0.00000000000E+00 0.  1.
</event>
<event>
 5    1  0.6939551E+001  0.1599286E+01  0.7818608E-02  0.3354139E+00
         11   -1    0    0    0    0  0.00000000000E+00  0.00000000000E+00  0.39999999674E+01  0.40000000000E+01  0.51100000000E-03 0.  1.
    9000002   -1    0    0    0    0 -0.00000000000E+00 -0.00000000000E+00  0.00000000000E+00  0.93800000000E+00  0.93800000000E+00 0.  1.
         11    1    1    2    0    0  0.66018033361E-02 -0.19511381564E+00  0.14762376748E+01  0.14890906348E+01  0.51100000000E-03 0.  1.
    9000002    1    1    2    0    0  0.25965659922E-01  0.54348592672E+00  0.20462284682E+00  0.11035242079E+01  0.93800000000E+00 0.  1.
         22    1    1    2    0    0 -0.32567463258E-01 -0.34837211108E+00  0.23191394457E+01  0.23453851573E+01  0.00000000000E+00 0.  1.
</event>
<event>
 5    1  0.6776507E+001  0.1599661E+01  0.7818608E-02  0.3353732E+00
         11   -1    0    0    0    0  0.00000000000E+00  0.00000000000E+00  0.39999999674E+01  0.40000000000E+01  0.51100000000E-03 0. -1.
    9000002   -1    0    0    0    0 -0.00000000000E+00 -0.00000000000E+00  0.00000000000E+00  0.93800000000E+00  0.93800000000E+00 0.  1.
         11    1    1    2    0    0  0.18846292234E-01 -0.92668876832E-01  0.10552477298E+01  0.10594766329E+01  0.51100000000E-03 0. -1.
    9000002    1    1    2    0    0 -0.63761446921E-01  0.35824824399E+00  0.88932718775E-01  0.10100298782E+01  0.93800000000E+00 0.  1.
         22    1    1    2    0    0  0.44915154687E-01 -0.26557936716E+00  0.28558195188E+01  0.28684934888E+01  0.00000000000E+00 0. -1.
</event>
<event>
 5    1  0.6776507E+001  0.1599672E+01  0.7818608E-02  0.3353719E+00
         11   -1    0    0    0    0  0.00000000000E+00  0.00000000000E+00  0.39999999674E+01  0.40000000000E+01  0.51100000000E-03 0. -1.
    9000002   -1    0    0    0    0 -0.00000000000E+00 -0.00000000000E+00  0.00000000000E+00  0.93800000000E+00  0.93800000000E+00 0. -1.
         11    1    1    2    0    0  0.27526245889E-01  0.66485377986E-01  0.65871031357E+00  0.66262926137E+00  0.51100000000E-03 0. -1.
    9000002    1    1    2    0    0 -0.15105015880E+00 -0.39107738703E+00  0.11885716170E+00  0.10342768962E+01  0.93800000000E+00 0. -1.
         22    1    1    2    0    0  0.12352391292E+00  0.32459200904E+00  0.32224324921E+01  0.32410938424E+01  0.00000000000E+00 0. -1.
</event>
<event>
 5    1  0.6776507E+001  0.1599419E+01  0.7818608E-02  0.3353995E+00
         11   -1    0    0    0    0  0.00000000000E+00  0.00000000000E+00  0.39999999674E+01  0.40000000000E+01  0.51100000000E-03 0.  1.
    9000002   -1    0    0    0    0 -0.00000000000E+00 -0.00000000000E+00  0.00000000000E+00  0.93800000000E+00  0.93800000000E+00 0. -1.
         11    1    1    2    0    0 -0.85943872847E-01  0.14680352209E+00  0.14783118261E+01  0.14880671154E+01  0.51100000000E-03 0.  1.
    9000002    1    1    2    0    0  0.23469226472E+00 -0.33714849603E+00  0.11420191263E+00  0.10303570470E+01  0.93800000000E+00 0. -1.
         22    1    1    2    0    0 -0.14874839187E+00  0.19034497394E+00  0.24074862286E+01  0.24195758376E+01  0.00000000000E+00 0.  1.
</event>
<event>
 5    1  0.6776507E+001  0.1508542E+01  0.7818608E-02  0.3459031E+00
         11   -1    0    0    0    0  0.00000000000E+00  0.00000000000E+00  0.39999999674E+01  0.40000000000E+01  0.51100000000E-03 0.  1.
    9000002   -1    0    0    0    0 -0.00000000000E+00 -0.00000000000E+00  0.00000000000E+00  0.93800000000E+00  0.93800000000E+00 0.  1.
         11    1    1    2    0    0  0.25379861184E+00  0.21925324973E+00  0.14532226149E+01  0.14914227947E+01  0.51100000000E-03 0.  1.
    9000002    1    1    2    0    0 -0.52812955055E+00  0.33544675544E+00  0.37482169165E+00  0.11881837604E+01  0.93800000000E+00 0.  1.
         22    1    1    2    0    0  0.27433093871E+00 -0.55470000517E+00  0.21719556608E+01  0.22583934449E+01  0.00000000000E+00 0.  1.
</event>
<event>
 5    1  0.6776507E+001  0.1599605E+01  0.7818608E-02  0.3353792E+00
         11   -1    0    0    0    0  0.00000000000E+00  0.00000000000E+00  0.39999999674E+01  0.40000000000E+01  0.51100000000E-03 0. -1.
    9000002   -1    0    0    0    0 -0.00000000000E+00 -0.00000000000E+00  0.00000000000E+00  0.93800000000E+00  0.93800000000E+00 0.  1.
         11    1    1    2    0    0 -0.51030306902E-01  0.17458480909E+00  0.13959214695E+01  0.14077219036E+01  0.51100000000E-03 0. -1.
    9000002    1    1    2    0    0  0.15860657237E+00 -0.46010359416E+00  0.16184579708E+00  0.10690600658E+01  0.93800000000E+00 0.  1.
         22    1    1    2    0    0 -0.10757626547E+00  0.28551878507E+00  0.24422327008E+01  0.24612180306E+01  0.00000000000E+00 0. -1.
</event>
<event>
 5    1  0.7873302E+001  0.1599495E+01  0.7818608E-02  0.3353912E+00
         11   -1    0    0    0    0  0.00000000000E+00  0.00000000000E+00  0.39999999674E+01  0.40000000000E+01  0.51100000000E-03 0. -1.
    9000002   -1    0    0    0    0 -0.00000000000E+00 -0.00000000000E+00  0.00000000000E+00  0.93800000000E+00  0.93800000000E+00 0. -1.
         11    1    1    2    0    0  0.90635751547E-01  0.13708096917E-01  0.11549705428E+01  0.11586025924E+01  0.51100000000E-03 0. -1.
    9000002    1    1    2    0    0 -0.34624079854E+00 -0.14317700847E-01  0.80635727034E-01  0.10032117461E+01  0.93800000000E+00 0. -1.
         22    1    1    2    0    0  0.25560504699E+00  0.60960393008E-03  0.27643936976E+01  0.27761856614E+01  0.00000000000E+00 0. -1.
</event>
<event>
 5    1  0.6776507E+001  0.1590398E+01  0.7818608E-02  0.3363851E+00
         11   -1    0    0    0    0  0.00000000000E+00  0.00000000000E+00  0.39999999674E+01  0.40000000000E+01  0.51100000000E-03 0.  1.
    9000002   -1    0    0    0    0 -0.00000000000E+00 -0.00000000000E+00  0.00000000000E+00  0.93800000000E+00  0.93800000000E+00 0. -1.
         11    1    1    2    0    0  0.10247847141E+00  0.13348206873E+00  0.13293098362E+01  0.13399194758E+01  0.51100000000E-03 0.  1.
    9000002    1    1    2    0    0  0.20583928919E-01 -0.36460233215E+00  0.97152944570E-01  0.10112572637E+01  0.93800000000E+00 0. -1.
         22    1    1    2    0    0 -0.12306240033E+00  0.23112026342E+00  0.25735371866E+01  0.25868232605E+01  0.00000000000E+00 0.  1.
</event>
<event>
 5    1  0.6776507E+001  0.1599675E+01  0.7818608E-02  0.3353716E+00
         11   -1    0    0    0    0  0.00000000000E+00  0.00000000000E+00  0.39999999674E+01  0.40000000000E+01  0.51100000000E-03 0. -1.
    9000002   -1    0    0    0    0 -0.00000000000E+00 -0.00000000000E+00  0.00000000000E+00  0.93800000000E+00  0.93800000000E+00 0. -1.
         11    1    1    2    0    0  0.81708148353E-02  0.45120346191E-01  0.38697248337E+00  0.38968008913E+00  0.51100000000E-03 0. -1.
    9000002    1    1    2    0    0 -0.80015106365E-01 -0.45836802190E+00  0.14738659435E+00  0.10573885137E+01  0.93800000000E+00 0. -1.
         22    1    1    2    0    0  0.71844291530E-01  0.41324767571E+00  0.34656408896E+01  0.34909313972E+01  0.00000000000E+00 0. -1.
</event>
<event>
 5    1  0.6776507E+001  0.1599296E+01  0.7818608E-02  0.3354128E+00
         11   -1    0    0    0    0  0.00000000000E+00  0.00000000000E+00  0.39999999674E+01  0.40000000000E+01  0.51100000000E-03 0. -1.
    9000002   -1    0    0    0    0 -0.00000000000E+00 -0.00000000000E+00  0.00000000000E+00  0.93800000000E+00  0.93800000000E+00 0. -1.
         11    1    1    2    0    0  0.64731633712E-01  0.61869904527E-01  0.65664083821E+00  0.66271828178E+00  0.51100000000E-03 0. -1.
    9000002    1    1    2    0    0 -0.45633170837E+00 -0.29581095381E+00  0.20439003907E+00  0.11033413055E+01  0.93800000000E+00 0. -1.
         22    1    1    2    0    0  0.39160007466E+00  0.23394104928E+00  0.31389690901E+01  0.31719404127E+01  0.00000000000E+00 0. -1.
</event>
<event>
 5    1  0.6776507E+001  0.1599663E+01  0.7818608E-02  0.3353729E+00
         11   -1    0    0    0    0  0.00000000000E+00  0.00000000000E+00  0.39999999674E+01  0.40000000000E+01  0.51100000000E-03 0. -1.
    9000002   -1    0    0    0    0 -0.00000000000E+00 -0.00000000000E+00  0.00000000000E+00  0.93800000000E+00  0.93800000000E+00 0. -1.
         11    1    1    2    0    0 -0.93456006827E-01  0.10131076370E+00  0.13057186328E+01  0.13129734595E+01  0.51100000000E-03 0. -1.
    9000002    1    1    2    0    0  0.29047745368E+00 -0.29907544394E+00  0.11752048845E+00  0.10331884327E+01  0.93800000000E+00 0. -1.
         22    1    1    2    0    0 -0.19702144686E+00  0.19776468024E+00  0.25767608461E+01  0.25918381078E+01  0.00000000000E+00 0.  1.
</event>
<event>
 5    1  0.6776507E+001  0.1599655E+01  0.7818608E-02  0.3353738E+00
         11   -1    0    0    0    0  0.00000000000E+00  0.00000000000E+00  0.39999999674E+01  0.40000000000E+01  0.51100000000E-03 0.  1.
    9000002   -1    0    0    0    0 -0.00000000000E+00 -0.00000000000E+00  0.00000000000E+00  0.93800000000E+00  0.93800000000E+00 0. -1.
         11    1    1    2    0    0 -0.11720136776E+00  0.45673510140E-01  0.13268948169E+01  0.13328437066E+01  0.51100000000E-03 0.  1.
    9000002    1    1    2    0    0  0.33190793385E+00 -0.14239638984E+00  0.87588452053E-01  0.10089377311E+01  0.93800000000E+00 0. -1.
         22    1    1    2    0    0 -0.21470656609E+00  0.96722879695E-01  0.25855166984E+01  0.25962185622E+01  0.00000000000E+00 0.  1.
</event>
<event>
 5    1  0.6776507E+001  0.1599668E+01  0.7818608E-02  0.3353723E+00
         11   -1    0    0    0    0  0.00000000000E+00  0.00000000000E+00  0.39999999674E+01  0.40000000000E+01  0.51100000000E-03 0. -1.
    9000002   -1    0    0    0    0 -0.00000000000E+00 -0.00000000000E+00  0.00000000000E+00  0.93800000000E+00  0.93800000000E+00 0.  1.
         11    1    1    2    0    0  0.31512870502E-01  0.12977021367E+00  0.13277347324E+01  0.13344336440E+01  0.51100000000E-03 0. -1.
    9000002    1    1    2    0    0 -0.82625170298E-01 -0.38093702578E+00  0.10236154047E+00  0.10209122496E+01  0.93800000000E+00 0.  1.
         22    1    1    2    0    0  0.51112299797E-01  0.25116681211E+00  0.25699036944E+01  0.25826541064E+01  0.00000000000E+00 0. -1.
</event>
<event>
 5    1  0.6776507E+001  0.1450673E+01  0.7818608E-02  0.3533303E+00
         11   -1    0    0    0    0  0.00000000000E+00  0.00000000000E+00  0.39999999674E+01  0.40000000000E+01  0.51100000000E-03 0. -1.
    9000002   -1    0    0    0    0 -0.00000000000E+00 -0.00000000000E+00  0.00000000000E+00  0.93800000000E+00  0.93800000000E+00 0. -1.
         11    1    1    2    0    0 -0.13424496303E+00  0.39688398635E+00  0.78488644749E+00  0.88971096728E+00  0.51100000000E-03 0. -1.
    9000002    1    1    2    0    0  0.42881478967E+00 -0.63504649521E-01  0.26762777039E+00  0.10674191247E+01  0.93800000000E+00 0. -1.
         22    1    1    2    0    0 -0.29456982664E+00 -0.33337933682E+00  0.29474857495E+01  0.29808699080E+01  0.00000000000E+00 0. -1.
</event>
<event>
 5    1  0.6776507E+001  0.1598909E+01  0.7818608E-02  0.3354549E+00
         11   -1    0    0    0    0  0.00000000000E+00  0.00000000000E+00  0.39999999674E+01  0.40000000000E+01  0.51100000000E-03 0. -1.
    9000002   -1    0    0    0    0 -0.00000000000E+00 -0.00000000000E+00  0.00000000000E+00  0.93800000000E+00  0.93800000000E+00 0. -1.
         11    1    1    2    0    0  0.56121579475E-01  0.10738912158E+00  0.11611194095E+01  0.11674247725E+01  0.51100000000E-03 0. -1.
    9000002    1    1    2    0    0 -0.18667086836E+00 -0.45632334884E+00  0.16689495306E+00  0.10727417849E+01  0.93800000000E+00 0. -1.
         22    1    1    2    0    0  0.13054928889E+00  0.34893422726E+00  0.26719856048E+01  0.26978334426E+01  0.00000000000E+00 0. -1.
</event>
<event>
 5    1  0.6776507E+001  0.1599568E+01  0.7818608E-02  0.3353832E+00
         11   -1    0    0    0    0  0.00000000000E+00  0.00000000000E+00  0.39999999674E+01  0.40000000000E+01  0.51100000000E-03 0. -1.
    9000002   -1    0    0    0    0 -0.00000000000E+00 -0.00000000000E+00  0.00000000000E+00  0.93800000000E+00  0.93800000000E+00 0. -1.
         11    1    1    2    0    0 -0.64815274710E-01 -0.12930583338E-01  0.57829874655E+00  0.58206350273E+00  0.51100000000E-03 0. -1.
    9000002    1    1    2    0    0  0.48230401744E+00  0.11405664470E+00  0.16811936771E+00  0.10741202006E+01  0.93800000000E+00 0.  1.
         22    1    1    2    0    0 -0.41748874273E+00 -0.10112606137E+00  0.32535818531E+01  0.32818162967E+01  0.00000000000E+00 0. -1.
</event>
<event>
 5    1  0.6776507E+001  0.1599673E+01  0.7818608E-02  0.3353718E+00
         11   -1    0    0    0    0  0.00000000000E+00  0.00000000000E+00  0.39999999674E+01  0.40000000000E+01  0.51100000000E-03 0. -1.
    9000002   -1    0    0    0    0 -0.00000000000E+00 -0.00000000000E+00  0.00000000000E+00  0.93800000000E+00  0.93800000000E+00 0.  1.
         11    1    1    2    0    0  0.99193959877E-01  0.87785444338E-01  0.89906757070E+00  0.90877306503E+00  0.51100000000E-03 0. -1.
    9000002    1    1    2    0    0 -0.41953881590E+00 -0.36132077588E+00  0.21189776191E+00  0.11096441694E+01  0.93800000000E+00 0.  1.
         22    1    1    2    0    0  0.32034485603E+00  0.27353533155E+00  0.28890346347E+01  0.29195827656E+01  0.00000000000E+00 0. -1.
</event>
<event>
 5    1  0.6776507E+001  0.1599675E+01  0.7818608E-02  0.3353716E+00
         11   -1    0    0    0    0  0.00000000000E+00  0.00000000000E+00  0.39999999674E+01  0.40000000000E+01  0.51100000000E-03 0.  1.
    9000002   -1    0    0    0    0 -0.00000000000E+00 -0.00000000000E+00  0.00000000000E+00  0.93800000000E+00  0.93800000000E+00 0.  1.
         11    1    1    2    0    0  0.32237754308E-01  0.86285673293E-02  0.23671548880E+00  0.23905691526E+00  0.51100000000E-03 0.  1.
    9000002    1    1    2    0    0 -0.52362573186E+00 -0.13181834278E+00  0.20100341658E+00  0.11008207647E+01  0.93800000000E+00 0.  1.
         22    1    1    2    0    0  0.49138797755E+00  0.12318977545E+00  0.35622810620E+01  0.35981223200E+01  0.00000000000E+00 0.  1.
</event>
<event>
 5    1  0.6776507E+001  0.1594830E+01  0.7818608E-02  0.3358994E+00
         11   -1    0    0    0    0  0.00000000000E+00  0.00000000000E+00  0.39999999674E+01  0.40000000000E+01  0.51100000000E-03 0.  1.
    9000002   -1    0    0    0    0 -0.00000000000E+00 -0.00000000000E+00  0.00000000000E+00  0.93800000000E+00  0.93800000000E+00 0. -1.
         11    1    1    2    0    0  0.99114534002E-01 -0.16191933858E-01  0.12381185162E+01  0.12421850067E+01  0.51100000000E-03 0.  1.
    9000002    1    1    2    0    0 -0.49412504966E+00 -0.10400436424E+00  0.17908991805E+00  0.10802285273E+01  0.93800000000E+00 0. -1.
         22    1    1    2    0    0  0.39501051566E+00  0.12019629810E+00  0.25827915331E+01  0.26155864660E+01  0.00000000000E+00 0. -1.
</event>
<event>
 5    1  0.6776507E+001  0.1566000E+01  0.7818608E-02  0.3391113E+00
         11   -1    0    0    0    0  0.00000000000E+00  0.00000000000E+00  0.39999999674E+01  0.40000000000E+01  0.51100000000E-03 0. -1.
    9000002   -1    0    0    0    0 -0.00000000000E+00 -0.00000000000E+00  0.00000000000E+00  0.93800000000E+00  0.93800000000E+00 0. -1.
         11    1    1    2    0    0  0.88429126332E-01 -0.11189911605E+00  0.14487245740E+01  0.14557280911E+01  0.51100000000E-03 0. -1.
    9000002    1    1    2    0    0  0.31047824861E+00  0.12982675601E+00  0.10323058507E+00  0.10018743849E+01  0.93800000000E+00 0. -1.
         22    1    1    2    0    0 -0.39890737494E+00 -0.17927639965E-01  0.24480448082E+01  0.24803975240E+01  0.00000000000E+00 0. -1.
</event>
<event>
 5    1  0.6776507E+001  0.1599350E+01  0.7818608E-02  0.3354069E+00
         11   -1    0    0    0    0  0.00000000000E+00  0.00000000000E+00  0.39999999674E+01  0.40000000000E+01  0.51100000000E-03 0. -1.
    9000002   -1    0    0    0    0 -0.00000000000E+00 -0.00000000000E+00  0.00000000000E+00  0.93800000000E+00  0.93800000000E+00 0.  1.
         11    1    1    2    0    0 -0.50041632327E-03  0.97543887819E-03  0.33224114335E-01  0.33246124464E-01  0.51100000000E-03 0. -1.
    9000002    1    1    2    0    0  0.30717783705E+00  0.27928499809E+00  0.11676586001E+00  0.10323936264E+01  0.93800000000E+00 0.  1.
         22    1    1    2    0    0 -0.30667742072E+00 -0.28026043697E+00  0.38500099930E+01  0.38723602492E+01  0.00000000000E+00 0. -1.
</event>
<event>
 5    1  0.6776507E+001  0.1593862E+01  0.7818608E-02  0.3360052E+00
         11   -1    0    0    0    0  0.00000000000E+00  0.00000000000E+00  0.39999999674E+01  0.40000000000E+01  0.51100000000E-03 0. -1.
    9000002   -1    0    0    0    0 -0.00000000000E+00 -0.00000000000E+00  0.00000000000E+00  0.93800000000E+00  0.93800000000E+00 0.  1.
         11    1    1    2    0    0  0.80272416122E-01  0.13701269926E+00  0.70912204374E+00  0.72668457709E+00  0.51100000000E-03 0. -1.
    9000002    1    1    2    0    0 -0.46458137084E+00 -0.34545011911E+00  0.23849741375E+00  0.11277839559E+01  0.93800000000E+00 0.  1.
         22    1    1    2    0    0  0.38430895472E+00  0.20843741986E+00  0.30523805099E+01  0.30835314670E+01  0.00000000000E+00 0. -1.
</event>
<event>
 5    1  0.6776507E+001  0.1589396E+01  0.7818608E-02  0.3364953E+00
         11   -1    0    0    0    0  0.00000000000E+00  0.00000000000E+00  0.39999999674E+01  0.40000000000E+01  0.51100000000E-03 0. -1.
    9000002   -1    0    0    0    0 -0.00000000000E+00 -0.00000000000E+00  0.00000000000E+00  0.93800000000E+00  0.93800000000E+00 0.  1.
         11    1    1    2    0    0  0.36116618521E-01 -0.32136222080E-01  0.72121991956E+00  0.72283855762E+00  0.51100000000E-03 0. -1.
    9000002    1    1    2    0    0  0.30008128698E+00  0.30074350621E+00  0.13091191117E+00  0.10380160711E+01  0.93800000000E+00 0.  1.
         22    1    1    2    0    0 -0.33619790550E+00 -0.26860728413E+00  0.31478681366E+01  0.31771453713E+01  0.00000000000E+00 0. -1.
</event>
<event>
 5    1  0.6776507E+001  0.1584190E+01  0.7818608E-02  0.3370703E+00
         11   -1    0    0    0    0  0.00000000000E+00  0.00000000000E+00  0.39999999674E+01  0.40000000000E+01  0.51100000000E-03 0. -1.
    9000002   -1    0    0    0    0 -0.00000000000E+00 -0.00000000000E+00  0.00000000000E+00  0.93800000000E+00  0.93800000000E+00 0.  1.
         11    1    1    2    0    0 -0.12170724942E+00 -0.46617250965E-01  0.95318282501E+00  0.96205175623E+00  0.51100000000E-03 0. -1.
    9000002    1    1    2    0    0  0.87228872416E-01  0.51681115275E+00  0.20323706414E+00  0.10935501580E+01  0.93800000000E+00 0.  1.
         22    1    1    2    0    0  0.34478377005E-01 -0.47019390178E+00  0.28435800782E+01  0.28823980858E+01  0.00000000000E+00 0. -1.
</event>
<event>
 5    1  0.6776507E+001  0.1599359E+01  0.7818608E-02  0.3354060E+00
         11   -1    0    0    0    0  0.00000000000E+00  0.00000000000E+00  0.39999999674E+01  0.40000000000E+01  0.51100000000E-03 0. -1.
    9000002   -1    0    0    0    0 -0.00000000000E+00 -0.00000000000E+00  0.00000000000E+00  0.93800000000E+00  0.93800000000E+00 0. -1.
         11    1    1    2    0    0  0.22718264199E+00  0.49210300950E-01  0.75225801918E+00  0.78735379283E+00  0.51100000000E-03 0. -1.
    9000002    1    1    2    0    0 -0.10084062577E+01 -0.15228740497E+00  0.84722204050E+00  0.16241009267E+01  0.93800000000E+00 0. -1.
         22    1    1    2    0    0  0.78122361568E+00  0.10307710402E+00  0.24005199077E+01  0.25265452805E+01  0.00000000000E+00 0. -1.
</event>
<event>
 5    1  0.6776507E+001  0.1599677E+01  0.7818608E-02  0.3353714E+00
         11   -1    0    0    0    0  0.00000000000E+00  0.00000000000E+00  0.39999999674E+01  0.40000000000E+01  0.51100000000E-03 0. -1.
    9000002   -1    0    0    0    0 -0.00000000000E+00 -0.00000000000E+00  0.00000000000E+00  0.93800000000E+00  0.93800000000E+00 0.  1.
         11    1    1    2    0    0  0.15619716795E+00  0.32203031992E-01  0.10889334477E+01  0.11005502738E+01  0.51100000000E-03 0. -1.
    9000002    1    1    2    0    0 -0.54457378285E+00 -0.11138228420E+00  0.21364243325E+00  0.11110597227E+01  0.93800000000E+00 0.  1.
         22    1    1    2    0    0  0.38837661490E+00  0.79179252205E-01  0.26974240865E+01  0.27263900035E+01  0.00000000000E+00 0.  1.
</event>
<event>
 5    1  0.6776507E+001  0.1599364E+01  0.7818608E-02  0.3354054E+00
         11   -1    0    0    0    0  0.00000000000E+00  0.00000000000E+00  0.39999999674E+01  0.40000000000E+01  0.51100000000E-03 0.  1.
    9000002   -1    0    0    0    0 -0.00000000000E+00 -0.00000000000E+00  0.00000000000E+00  0.93800000000E+00  0.93800000000E+00 0. -1.
         11    1    1    2    0    0 -0.12455445158E-01  0.27274507559E-01  0.27145754370E+00  0.27310894535E+00  0.51100000000E-03 0.  1.
    9000002    1    1    2    0    0  0.33072911947E-01 -0.44428438843E+00  0.13498672098E+00  0.10471618071E+01  0.93800000000E+00 0. -1.
         22    1    1    2    0    0 -0.20617466789E-01  0.41700988087E+00  0.35935557027E+01  0.36177292476E+01  0.00000000000E+00 0.  1.
</event>
<event>
 5    1  0.6776507E+001  0.1527217E+01  0.7818608E-02  0.3436357E+00
         11   -1    0    0    0    0  0.00000000000E+00  0.00000000000E+00  0.39999999674E+01  0.40000000000E+01  0.51100000000E-03 0.  1.
    9000002   -1    0    0    0    0 -0.00000000000E+00 -0.00000000000E+00  0.00000000000E+00  0.93800000000E+00  0.93800000000E+00 0.  1.
         11    1    1    2    0    0 -0.30842856268E+00 -0.45999052923E-01  0.14358747706E+01  0.14693470350E+01  0.51100000000E-03 0.  1.
    9000002    1    1    2    0    0 -0.61084169289E-02  0.21588259071E+00  0.87666720684E-01  0.96652576771E+00  0.93800000000E+00 0.  1.
         22    1    1    2    0    0  0.31453697961E+00 -0.16988353779E+00  0.24764584760E+01  0.25021271973E+01  0.00000000000E+00 0.  1.
</event>
<event>
 5    1  0.6776507E+001  0.1550807E+01  0.7818608E-02  0.3408549E+00
         11   -1    0    0    0    0  0.00000000000E+00  0.00000000000E+00  0.39999999674E+01  0.40000000000E+01  0.51100000000E-03 0. -1.
    9000002   -1    0    0    0    0 -0.00000000000E+00 -0.00000000000E+00  0.00000000000E+00  0.93800000000E+00  0.93800000000E+00 0.  1.
         11    1    1    2    0    0  0.11608699752E+00 -0.41630340103E-01  0.17233414463E+00  0.21191648057E+00  0.51100000000E-03 0. -1.
    9000002    1    1    2    0    0 -0.54564597008E-01  0.40038737615E+00  0.15217439948E+00  0.10326124123E+01  0.93800000000E+00 0.  1.
         22    1    1    2    0    0 -0.61522400513E-01 -0.35875703605E+00  0.36754914232E+01  0.36934711071E+01  0.00000000000E+00 0. -1.
</event>
<event>
 5    1  0.8266148E+001  0.1591963E+01  0.7818608E-02  0.3362133E+00
         11   -1    0    0    0    0  0.00000000000E+00  0.00000000000E+00  0.39999999674E+01  0.40000000000E+01  0.51100000000E-03 0.  1.
    9000002   -1    0    0    0    0 -0.00000000000E+00 -0.00000000000E+00  0.00000000000E+00  0.93800000000E+00  0.93800000000E+00 0. -1.
         11    1    1    2    0    0 -0.60509797951E-01 -0.14374648353E+00  0.14893930718E+01  0.14975368011E+01  0.51100000000E-03 0.  1.
    9000002    1    1    2    0    0 -0.10448405638E+00  0.32043028303E+00  0.82247431527E-01  0.10001005571E+01  0.93800000000E+00 0. -1.
         22    1    1    2    0    0  0.16499385434E+00 -0.17668379950E+00  0.24283594640E+01  0.24403626418E+01  0.00000000000E+00 0.  1.
</event>
<event>
 5    1  0.6776507E+001  0.1458523E+01  0.7818608E-02  0.3522853E+00
         11   -1    0    0    0    0  0.00000000000E+00  0.00000000000E+00  0.39999999674E+01  0.40000000000E+01  0.51100000000E-03 0.  1.
    9000002   -1    0    0    0    0 -0.00000000000E+00 -0.00000000000E+00  0.00000000000E+00  0.93800000000E+00  0.93800000000E+00 0.  1.
         11    1    1    2    0    0  0.41708456851E+00 -0.60795257352E-01  0.10961068251E+01  0.11743534535E+01  0.51100000000E-03 0.  1.
    9000002    1    1    2    0    0  0.71050138637E-01  0.49536944088E-01  0.13450437716E+00  0.95154477483E+00  0.93800000000E+00 0.  1.
         22    1    1    2    0    0 -0.48813470715E+00  0.11258313263E-01  0.27693887651E+01  0.28121017717E+01  0.00000000000E+00 0.  1.
</event>
<event>
 5    1  0.6776507E+001  0.1599658E+01  0.7818608E-02  0.3353734E+00
         11   -1    0    0    0    0  0.00000000000E+00  0.00000000000E+00  0.39999999674E+01  0.40000000000E+01  0.51100000000E-03 0. -1.
    9000002   -1    0    0    0    0 -0.00000000000E+00 -0.00000000000E+00  0.00000000000E+00  0.93800000000E+00  0.93800000000E+00 0. -1.
         11    1    1    2    0    0  0.32604977752E+00  0.25201124675E+00  0.14398626147E+01  0.14976724396E+01  0.51100000000E-03 0. -1.
    9000002    1    1    2    0    0 -0.75084791244E+00 -0.58605578220E+00  0.71159471385E+00  0.15144124287E+01  0.93800000000E+00 0. -1.
         22    1    1    2    0    0  0.42479813491E+00  0.33404453545E+00  0.18485426388E+01  0.19259151317E+01  0.00000000000E+00 0. -1.
</event>
<event>
 5    1  0.6776507E+001  0.1599663E+01  0.7818608E-02  0.3353729E+00
         11   -1    0    0    0    0  0.00000000000E+00  0.00000000000E+00  0.39999999674E+01  0.40000000000E+01  0.51100000000E-03 0.  1.
    9000002   -1    0    0    0    0 -0.00000000000E+00 -0.00000000000E+00  0.00000000000E+00  0.93800000000E+00  0.93800000000E+00 0.  1.
         11    1    1    2    0    0  0.28312125929E-02  0.51088385878E-02  0.49585972627E-01  0.49931410944E-01  0.51100000000E-03 0.  1.
    9000002    1    1    2    0    0 -0.24022484145E+00 -0.45767600483E+00  0.18343957918E+00  0.10865861121E+01  0.93800000000E+00 0.  1.
         22    1    1    2    0    0  0.23739362886E+00  0.45256716624E+00  0.37669744156E+01  0.38014824769E+01  0.00000000000E+00 0.  1.
</event>
<event>
 5    1  0.6776507E+001  0.1599661E+01  0.7818608E-02  0.3353731E+00
         11   -1    0    0    0    0  0.00000000000E+00  0.00000000000E+00  0.39999999674E+01  0.40000000000E+01  0.51100000000E-03 0. -1.
    9000002   -1    0    0    0    0 -0.00000000000E+00 -0.00000000000E+00  0.00000000000E+00  0.93800000000E+00  0.93800000000E+00 0.  1.
         11    1    1    2    0    0  0.31372221052E-01 -0.70448315342E-01  0.56149598054E+00  0.56676730558E+00  0.51100000000E-03 0. -1.
    9000002    1    1    2    0    0 -0.19513137205E+00  0.49200513419E+00  0.19277027625E+00  0.10941433562E+01  0.93800000000E+00 0.  1.
         22    1    1    2    0    0  0.16375915100E+00 -0.42155681884E+00  0.32457337106E+01  0.32770893383E+01  0.00000000000E+00 0. -1.
</event>
<event>
 5    1  0.6776507E+001  0.1513335E+01  0.7818608E-02  0.3453155E+00
         11   -1    0    0    0    0  0.00000000000E+00  0.00000000000E+00  0.39999999674E+01  0.40000000000E+01  0.51100000000E-03 0. -1.
    9000002   -1    0    0    0    0 -0.00000000000E+00 -0.00000000000E+00  0.00000000000E+00  0.93800000000E+00  0.93800000000E+00 0. -1.
         11    1    1    2    0    0 -0.15935564953E+00  0.42820407562E+00  0.76004462599E+00  0.88680383853E+00  0.51100000000E-03 0. -1.
    9000002    1    1    2    0    0  0.17846129570E+00  0.68683399725E-01  0.20915525957E+00  0.97987538293E+00  0.93800000000E+00 0. -1.
         22    1    1    2    0    0 -0.19105646169E-01 -0.49688747534E+00  0.30308000818E+01  0.30713207785E+01  0.00000000000E+00 0. -1.
</event>
<event>
 5    1  0.6776507E+001  0.1599634E+01  0.7818608E-02  0.3353761E+00
         11   -1    0    0    0    0  0.00000000000E+00  0.00000000000E+00  0.39999999674E+01  0.40000000000E+01  0.51100000000E-03 0.  1.
    9000002   -1    0    0    0    0 -0.00000000000E+00 -0.00000000000E+00  0.00000000000E+00  0.93800000000E+00  0.93800000000E+00 0.  1.
         11    1    1    2    0    0  0.98006406320E-01 -0.41527445887E-01  0.10731871356E+01  0.10784529075E+01  0.51100000000E-03 0.  1.
    9000002    1    1    2    0    0 -0.37608890968E+00  0.13526745103E+00  0.10777953362E+00  0.10252807319E+01  0.93800000000E+00 0.  1.
         22    1    1    2    0    0  0.27808250336E+00 -0.93740005146E-01  0.28190332981E+01  0.28342663606E+01  0.00000000000E+00 0.  1.
</event>
<event>
 5    1  0.6776507E+001  0.1599677E+01  0.7818608E-02  0.3353714E+00
         11   -1    0    0    0    0  0.00000000000E+00  0.00000000000E+00  0.39999999674E+01  0.40000000000E+01  0.51100000000E-03 0. -1.
    9000002   -1    0    0    0    0 -0.00000000000E+00 -0.00000000000E+00  0.00000000000E+00  0.93800000000E+00  0.93800000000E+00 0.  1.
         11    1    1    2    0    0  0.79326006465E-01 -0.99838013428E-02  0.88668784742E+00  0.89028528657E+00  0.51100000000E-03 0. -1.
    9000002    1    1    2    0    0 -0.35034575049E+00  0.46026737077E-01  0.83751703466E-01  0.10058424097E+01  0.93800000000E+00 0.  1.
         22    1    1    2    0    0  0.27101974403E+00 -0.36042935734E-01  0.30295604165E+01  0.30418723037E+01  0.00000000000E+00 0. -1.
</event>
<event>
 5    1  0.6776507E+001  0.1564113E+01  0.7818608E-02  0.3393259E+00
         11   -1    0    0    0    0  0.00000000000E+00  0.00000000000E+00  0.39999999674E+01  0.40000000000E+01  0.51100000000E-03 0. -1.
    9000002   -1    0    0    0    0 -0.00000000000E+00 -0.00000000000E+00  0.00000000000E+00  0.93800000000E+00  0.93800000000E+00 0. -1.
         11    1    1    2    0    0  0.14325665463E+00  0.14896225070E+00  0.87003722131E+00  0.89424674941E+00  0.51100000000E-03 0. -1.
    9000002    1    1    2    0    0  0.14452027138E+00 -0.34301198711E+00  0.12276533516E+00  0.10165916878E+01  0.93800000000E+00 0. -1.
         22    1    1    2    0    0 -0.28777692602E+00  0.19404973641E+00  0.30071974109E+01  0.30271615628E+01  0.00000000000E+00 0. -1.
</event>
<event>
 5    1  0.6776507E+001  0.1466719E+01  0.7818608E-02  0.3512072E+00
         11   -1    0    0    0    0  0.00000000000E+00  0.00000000000E+00  0.39999999674E+01  0.40000000000E+01  0.51100000000E-03 0. -1.
    9000002   -1    0    0    0    0 -0.00000000000E+00 -0.00000000000E+00  0.00000000000E+00  0.93800000000E+00  0.93800000000E+00 0.  1.
         11    1    1    2    0    0  0.36559242948E+00 -0.14968256156E+00  0.79041738316E+00  0.88364166632E+00  0.51100000000E-03 0. -1.
    9000002    1    1    2    0    0 -0.20945790213E+00 -0.52901456259E+00  0.41279357947E+00  0.11721653294E+01  0.93800000000E+00 0.  1.
         22    1    1    2    0    0 -0.15613452735E+00  0.67869712415E+00  0.27967890047E+01  0.28821930043E+01  0.00000000000E+00 0. -1.
</event>
<event>
 5    1  0.6776507E+001  0.1599480E+01  0.7818608E-02  0.3353928E+00
         11   -1    0    0    0    0  0.00000000000E+00  0.00000000000E+00  0.39999999674E+01  0.40000000000E+01  0.51100000000E-03 0.  1.
    9000002   -1    0    0    0    0 -0.00000000000E+00 -0.00000000000E+00  0.00000000000E+00  0.93800000000E+00  0.93800000000E+00 0.  1.
         11    1    1    2    0    0  0.13025114358E+00  0.13871116596E+00  0.14144667090E+01  0.14272079315E+01  0.51100000000E-03 0.  1.
    9000002    1    1    2    0    0 -0.31941110583E+00 -0.34933254208E+00  0.15289086734E+00  0.10617326861E+01  0.93800000000E+00 0.  1.
         22    1    1    2    0    0  0.18915996225E+00  0.21062137612E+00  0.24326423911E+01  0.24490593823E+01  0.00000000000E+00 0.  1.
</event>
<event>
 5    1  0.1274190E+002  0.1553763E+01  0.7818608E-02  0.3405129E+00
         11   -1    0    0    0    0  0.00000000000E+00  0.00000000000E+00  0.39999999674E+01  0.40000000000E+01  0.51100000000E-03 0.  1.
    9000002   -1    0    0    0    0 -0.00000000000E+00 -0.00000000000E+00  0.00000000000E+00  0.93800000000E+00  0.93800000000E+00 0.  1.
         11    1    1    2    0    0 -0.21161623756E+00  0.45174226949E-01  0.13600201803E+01  0.13771264629E+01  0.51100000000E-03 0.  1.
    9000002    1    1    2    0    0 -0.85100856045E-01 -0.21908191341E-02  0.38990705798E-01  0.94266177950E+00  0.93800000000E+00 0.  1.
         22    1    1    2    0    0  0.29671709360E+00 -0.42983407815E-01  0.26009890812E+01  0.26182117576E+01  0.00000000000E+00 0.  1.
</event>
<event>
 5    1  0.6776507E+001  0.1599460E+01  0.7818608E-02  0.3353950E+00
         11   -1    0    0    0    0  0.00000000000E+00  0.00000000000E+00  0.39999999674E+01  0.40000000000E+01  0.51100000000E-03 0.  1.
    9000002   -1    0    0    0    0 -0.00000000000E+00 -0.00000000000E+00  0.00000000000E+00  0.93800000000E+00  0.93800000000E+00 0.  1.
         11    1    1    2    0    0  0.30139676741E-01 -0.28109905211E-01  0.22412005652E+00  0.22787853725E+00  0.51100000000E-03 0.  1.
    9000002    1    1    2    0    0 -0.54954994618E+00  0.33483299301E+00  0.29199844854E+00  0.11744042620E+01  0.93800000000E+00 0.  1.
         22    1    1    2    0    0  0.51941026944E+00 -0.30672308780E+00  0.34838814623E+01  0.35357172008E+01  0.00000000000E+00 0.  1.
</event>
<event>
 5    1  0.6776507E+001  0.1599677E+01  0.7818608E-02  0.3353714E+00
         11   -1    0    0    0    0  0.00000000000E+00  0.00000000000E+00  0.39999999674E+01  0.40000000000E+01  0.51100000000E-03 0.  1.
    9000002   -1    0    0    0    0 -0.00000000000E+00 -0.00000000000E+00  0.00000000000E+00  0.93800000000E+00  0.93800000000E+00 0. -1.
         11    1    1    2    0    0 -0.42523189566E-01  0.10291234210E+00  0.80243238207E+00  0.81012169501E+00  0.51100000000E-03 0.  1.
    9000002    1    1    2    0    0  0.20313524849E+00 -0.48739712603E+00  0.19180079898E+00  0.10933670171E+01  0.93800000000E+00 0. -1.
         22    1    1    2    0    0 -0.16061205892E+00  0.38448478393E+00  0.30057667863E+01  0.30345112879E+01  0.00000000000E+00 0.  1.
</event>
<event>
 5    1  0.6776507E+001  0.1598066E+01  0.7818608E-02  0.3355465E+00
         11   -1    0    0    0    0  0.00000000000E+00  0.00000000000E+00  0.39999999674E+01  0.40000000000E+01  0.51100000000E-03 0.  1.
    9000002   -1    0    0    0    0 -0.00000000000E+00 -0.00000000000E+00  0.00000000000E+00  0.93800000000E+00  0.93800000000E+00 0. -1.
         11    1    1    2    0    0  0.77862095159E-01  0.74714544404E-02  0.40854820165E+00  0.41596901650E+00  0.51100000000E-03 0.  1.
    9000002    1    1    2    0    0 -0.62018385480E+00  0.19312936276E+00  0.29939723439E+00  0.11795802934E+01  0.93800000000E+00 0. -1.
         22    1    1    2    0    0  0.54232175964E+00 -0.20060081720E+00  0.32920545313E+01  0.33424506901E+01  0.00000000000E+00 0.  1.
</event>
<event>
 5    1  0.6776507E+001  0.1599582E+01  0.7818608E-02  0.3353817E+00
         11   -1    0    0    0    0  0.00000000000E+00  0.00000000000E+00  0.39999999674E+01  0.40000000000E+01  0.51100000000E-03 0. -1.
    9000002   -1    0    0    0    0 -0.00000000000E+00 -0.00000000000E+00  0.00000000000E+00  0.93800000000E+00  0.93800000000E+00 0.  1.
         11    1    1    2    0    0 -0.12368065312E+00 -0.52654264743E-01  0.87326146948E+00  0.88354696012E+00  0.51100000000E-03 0. -1.
    9000002    1    1    2    0    0  0.49588596705E+00  0.24221783651E+00  0.21053342454E+00  0.11084857669E+01  0.93800000000E+00 0.  1.
         22    1    1    2    0    0 -0.37220531394E+00 -0.18956357177E+00  0.29162050733E+01  0.29459672729E+01  0.00000000000E+00 0. -1.
</event>
<event>
 5    1  0.6776507E+001  0.1599660E+01  0.7818608E-02  0.3353733E+00
         11   -1    0    0    0    0  0.00000000000E+00  0.00000000000E+00  0.39999999674E+01  0.40000000000E+01  0.51100000000E-03 0.  1.
    9000002   -1    0    0    0    0 -0.00000000000E+00 -0.00000000000E+00  0.00000000000E+00  0.93800000000E+00  0.93800000000E+00 0.  1.
         11    1    1    2    0    0  0.37437476888E-01 -0.70254728152E-01  0.60642168369E+00  0.61162473059E+00  0.51100000000E-03 0.  1.
    9000002    1    1    2    0    0 -0.25675040277E+00  0.45094686394E+00  0.18494934397E+00  0.10878070156E+01  0.93800000000E+00 0.  1.
         22    1    1    2    0    0  0.21931292589E+00 -0.38069213579E+00  0.32086289397E+01  0.32385682538E+01  0.00000000000E+00 0.  1.
</event>
<event>
 5    1  0.6776507E+001  0.1594395E+01  0.7818608E-02  0.3359469E+00
         11   -1    0    0    0    0  0.00000000000E+00  0.00000000000E+00  0.39999999674E+01  0.40000000000E+01  0.51100000000E-03 0. -1.
    9000002   -1    0    0    0    0 -0.00000000000E+00 -0.00000000000E+00  0.00000000000E+00  0.93800000000E+00  0.93800000000E+00 0. -1.
         11    1    1    2    0    0  0.14615725654E+00  0.45732847084E-01  0.97088948878E+00  0.98289373662E+00  0.51100000000E-03 0. -1.
    9000002    1    1    2    0    0 -0.29566291346E+00 -0.27632821313E+00  0.11495795977E+00  0.10280239162E+01  0.93800000000E+00 0. -1.
         22    1    1    2    0    0  0.14950565691E+00  0.23059536604E+00  0.29141525188E+01  0.29270823472E+01  0.00000000000E+00 0. -1.
</event>
<event>
 5    1  0.6776507E+001  0.1599677E+01  0.7818608E-02  0.3353714E+00
         11   -1    0    0    0    0  0.00000000000E+00  0.00000000000E+00  0.39999999674E+01  0.40000000000E+01  0.51100000000E-03 0. -1.
    9000002   -1    0    0    0    0 -0.00000000000E+00 -0.00000000000E+00  0.00000000000E+00  0.93800000000E+00  0.93800000000E+00 0.  1.
         11    1    1    2    0    0  0.84229967538E-01  0.10965063398E+00  0.12598222133E+01  0.12673871623E+01  0.51100000000E-03 0. -1.
    9000002    1    1    2    0    0 -0.25780118784E+00 -0.33821648287E+00  0.12239929940E+00  0.10371487021E+01  0.93800000000E+00 0.  1.
         22    1    1    2    0    0  0.17357122030E+00  0.22856584889E+00  0.26177784547E+01  0.26334641356E+01  0.00000000000E+00 0. -1.
</event>
<event>
 5    1  0.6776507E+001  0.1594002E+01  0.7818608E-02  0.3359899E+00
         11   -1    0    0    0    0  0.00000000000E+00  0.00000000000E+00  0.39999999674E+01  0.40000000000E+01  0.51100000000E-03 0.  1.
    9000002   -1    0    0    0    0 -0.00000000000E+00 -0.00000000000E+00  0.00000000000E+00  0.93800000000E+00  0.93800000000E+00 0.  1.
         11    1    1    2    0    0  0.79984233885E-01  0.18288888742E+00  0.11712366119E+01  0.11881251133E+01  0.51100000000E-03 0.  1.
    9000002    1    1    2    0    0 -0.32956171793E+00 -0.33386116769E+00  0.15489826689E+00  0.10601470079E+01  0.93800000000E+00 0.  1.
         22    1    1    2    0    0  0.24957748405E+00  0.15097228028E+00  0.26738650886E+01  0.26897278788E+01  0.00000000000E+00 0.  1.
</event>
<event>
 5    1  0.6776507E+001  0.1462168E+01  0.7818608E-02  0.3518042E+00
         11   -1    0    0    0    0  0.00000000000E+00  0.00000000000E+00  0.39999999674E+01  0.40000000000E+01  0.51100000000E-03 0. -1.
    9000002   -1    0    0    0    0 -0.00000000000E+00 -0.00000000000E+00  0.00000000000E+00  0.93800000000E+00  0.93800000000E+00 0.  1.
         11    1    1    2    0    0 -0.29386097127E+00  0.40186630660E+00  0.10417052203E+01  0.11545565494E+01  0.51100000000E-03 0. -1.
    9000002    1    1    2    0    0  0.19772784818E+00 -0.10582451577E+00  0.17180143028E+00  0.97961975354E+00  0.93800000000E+00 0.  1.
         22    1    1    2    0    0  0.96133123086E-01 -0.29604179083E+00  0.27864933168E+01  0.28038236970E+01  0.00000000000E+00 0. -1.
</event>
<event>
 5    1  0.6776507E+001  0.1599664E+01  0.7818608E-02  0.3353728E+00
         11   -1    0    0    0    0  0.00000000000E+00  0.00000000000E+00  0.39999999674E+01  0.40000000000E+01  0.51100000000E-03 0. -1.
    9000002   -1    0    0    0    0 -0.00000000000E+00 -0.00000000000E+00  0.00000000000E+00  0.93800000000E+00  0.93800000000E+00 0. -1.
         11    1    1    2    0    0  0.72952432287E-01  0.20720163439E-01  0.54415467344E+00  0.54941419011E+00  0.51100000000E-03 0. -1.
    9000002    1    1    2    0    0 -0.52426505807E+00 -0.15841749680E+00  0.20709668497E+00  0.11057499678E+01  0.93800000000E+00 0. -1.
         22    1    1    2    0    0  0.45131262578E+00  0.13769733337E+00  0.32487486090E+01  0.32828358421E+01  0.00000000000E+00 0. -1.
</event>
<event>
 5    1  0.6776507E+001  0.1569192E+01  0.7818608E-02  0.3387496E+00
         11   -1    0    0    0    0  0.00000000000E+00  0.00000000000E+00  0.39999999674E+01  0.40000000000E+01  0.51100000000E-03 0.  1.
    9000002   -1    0    0    0    0 -0.00000000000E+00 -0.00000000000E+00  0.00000000000E+00  0.93800000000E+00  0.93800000000E+00 0.  1.
         11    1    1    2    0    0 -0.83552538251E-01  0.87294282964E-01  0.41294643405E+00  0.43026310207E+00  0.51100000000E-03 0.  1.
    9000002    1    1    2    0    0  0.20519535802E+00  0.25495025451E+00  0.96268854583E-01  0.99810643700E+00  0.93800000000E+00 0.  1.
         22    1    1    2    0    0 -0.12164281977E+00 -0.34224453747E+00  0.34907846787E+01  0.35096304609E+01  0.00000000000E+00 0.  1.
</event>
<event>
 5    1  0.6776507E+001  0.1599665E+01  0.7818608E-02  0.3353727E+00
         11   -1    0    0    0    0  0.00000000000E+00  0.00000000000E+00  0.39999999674E+01  0.40000000000E+01  0.51100000000E-03 0. -1.
    9000002   -1    0    0    0    0 -0.00000000000E+00 -0.00000000000E+00  0.00000000000E+00  0.93800000000E+00  0.93800000000E+00 0.  1.
         11    1    1    2    0    0 -0.11940765766E+00 -0.19084855274E-02  0.12545791550E+01  0.12602503515E+01  0.51100000000E-03 0. -1.
    9000002    1    1    2    0    0  0.38173962102E+00 -0.92644557292E-04  0.98080052275E-01  0.10174423047E+01  0.93800000000E+00 0.  1.
         22    1    1    2    0    0 -0.26233196336E+00  0.20011300847E-02  0.26473407600E+01  0.26603073438E+01  0.00000000000E+00 0. -1.
</event>
<event>
 5    1  0.6776507E+001  0.1599186E+01  0.7818608E-02  0.3354247E+00
         11   -1    0    0    0    0  0.00000000000E+00  0.00000000000E+00  0.39999999674E+01  0.40000000000E+01  0.51100000000E-03 0.  1.
    9000002   -1    0    0    0    0 -0.00000000000E+00 -0.00000000000E+00  0.00000000000E+00  0.93800000000E+00  0.93800000000E+00 0.  1.
         11    1    1    2    0    0 -0.17894390366E-01 -0.38591626896E-01  0.58189069890E+00  0.58344371576E+00  0.51100000000E-03 0.  1.
    9000002    1    1    2    0    0  0.24671575016E+00  0.23970350443E+00  0.79680894120E-01  0.10022571907E+01  0.93800000000E+00 0.  1.
         22    1    1    2    0    0 -0.22882135980E+00 -0.20111187753E+00  0.33384283743E+01  0.33522990935E+01  0.00000000000E+00 0.  1.
</event>
<event>
 5    1  0.6776507E+001  0.1563278E+01  0.7818608E-02  0.3394210E+00
         11   -1    0    0    0    0  0.00000000000E+00  0.00000000000E+00  0.39999999674E+01  0.40000000000E+01  0.51100000000E-03 0. -1.
    9000002   -1    0    0    0    0 -0.00000000000E+00 -0.00000000000E+00  0.00000000000E+00  0.93800000000E+00  0.93800000000E+00 0. -1.
         11    1    1    2    0    0  0.53408771989E-01  0.47566254380E-01  0.11375584620E+00  0.13437149678E+00  0.51100000000E-03 0. -1.
    9000002    1    1    2    0    0  0.38955453887E+00 -0.29427029957E-01  0.13355319119E+00  0.10248410334E+01  0.93800000000E+00 0. -1.
         22    1    1    2    0    0 -0.44296331086E+00 -0.18139224423E-01  0.37526909300E+01  0.37787874698E+01  0.00000000000E+00 0. -1.
</event>
<event>
 5    1  0.6776507E+001  0.1573782E+01  0.7818608E-02  0.3382321E+00
         11   -1    0    0    0    0  0.00000000000E+00  0.00000000000E+00  0.39999999674E+01  0.40000000000E+01  0.51100000000E-03 0. -1.
    9000002   -1    0    0    0    0 -0.00000000000E+00 -0.00000000000E+00  0.00000000000E+00  0.93800000000E+00  0.93800000000E+00 0.  1.
         11    1    1    2    0    0 -0.27214394609E-01  0.10995659841E+00  0.62358552737E+00  0.63379038165E+00  0.51100000000E-03 0. -1.
    9000002    1    1    2    0    0  0.16202621771E+00  0.19917929221E+00  0.63934682734E-01  0.97460583280E+00  0.93800000000E+00 0.  1.
         22    1    1    2    0    0 -0.13481182310E+00 -0.30913589062E+00  0.33124797573E+01  0.33296037855E+01  0.00000000000E+00 0. -1.
</event>
<event>
 5    1  0.6776507E+001  0.1592460E+01  0.7818608E-02  0.3361588E+00
         11   -1    0    0    0    0  0.00000000000E+00  0.00000000000E+00  0.39999999674E+01  0.40000000000E+01  0.51100000000E-03 0.  1.
    9000002   -1    0    0    0    0 -0.00000000000E+00 -0.00000000000E+00  0.00000000000E+00  0.93800000000E+00  0.93800000000E+00 0. -1.
         11    1    1    2    0    0 -0.37418220734E+00  0.16811834626E-01  0.10145358956E+01  0.10814704373E+01  0.51100000000E-03 0.  1.
    9000002    1    1    2    0    0  0.10390488777E+01 -0.32739435109E+00  0.10316499554E+01  0.17694505536E+01  0.93800000000E+00 0. -1.
         22    1    1    2    0    0 -0.66486667035E+00  0.31058251646E+00  0.19538141163E+01  0.20870790091E+01  0.00000000000E+00 0.  1.
</event>
<event>
 5    1  0.6776507E+001  0.1599432E+01  0.7818608E-02  0.3353980E+00
         11   -1    0    0    0    0  0.00000000000E+00  0.00000000000E+00  0.39999999674E+01  0.40000000000E+01  0.51100000000E-03 0. -1.
    9000002   -1    0    0    0    0 -0.00000000000E+00 -0.00000000000E+00  0.00000000000E+00  0.93800000000E+00  0.93800000000E+00 0. -1.
         11    1    1    2    0    0 -0.61311491345E-01  0.66689762503E-01  0.83367444741E+00  0.83858211809E+00  0.51100000000E-03 0. -1.
    9000002    1    1    2    0    0  0.28257466699E+00 -0.24020092879E+00  0.92644987469E-01  0.10129027704E+01  0.93800000000E+00 0. -1.
         22    1    1    2    0    0 -0.22126317564E+00  0.17351116629E+00  0.30736805325E+01  0.30865151115E+01  0.00000000000E+00 0. -1.
</event>
<event>
 5    1  0.6776507E+001  0.1561077E+01  0.7818608E-02  0.3396724E+00
         11   -1    0    0    0    0  0.00000000000E+00  0.00000000000E+00  0.39999999674E+01  0.40000000000E+01  0.51100000000E-03 0. -1.
    9000002   -1    0    0    0    0 -0.00000000000E+00 -0.00000000000E+00  0.00000000000E+00  0.93800000000E+00  0.93800000000E+00 0.  1.
         11    1    1    2    0    0 -0.16513536820E-01 -0.18232524031E+00  0.10393773309E+01  0.10553770356E+01  0.51100000000E-03 0. -1.
    9000002    1    1    2    0    0  0.32897998362E+00 -0.53716935337E-01  0.10580868428E+00  0.10010758295E+01  0.93800000000E+00 0.  1.
         22    1    1    2    0    0 -0.31246644680E+00  0.23604217565E+00  0.28548139522E+01  0.28815471349E+01  0.00000000000E+00 0. -1.
</event>
<event>
 5    1  0.6776507E+001  0.1599666E+01  0.7818608E-02  0.3353726E+00
         11   -1    0    0    0    0  0.00000000000E+00  0.00000000000E+00  0.39999999674E+01  0.40000000000E+01  0.51100000000E-03 0.  1.
    9000002   -1    0    0    0    0 -0.00000000000E+00 -0.00000000000E+00  0.00000000000E+00  0.93800000000E+00  0.93800000000E+00 0. -1.
         11    1    1    2    0    0  0.26724444583E-01 -0.81673863182E-01  0.74679915686E+00  0.75172738255E+00  0.51100000000E-03 0.  1.
    9000002    1    1    2    0    0 -0.12529754138E+00  0.43187139377E+00  0.13734221564E+00  0.10492469961E+01  0.93800000000E+00 0. -1.
         22    1    1    2    0    0  0.98573096797E-01 -0.35019753059E+00  0.31158585949E+01  0.31370256213E+01  0.00000000000E+00 0.  1.
</event>
<event>
 5    1  0.6776507E+001  0.1599671E+01  0.7818608E-02  0.3353721E+00
         11   -1    0    0    0    0  0.00000000000E+00  0.00000000000E+00  0.39999999674E+01  0.40000000000E+01  0.51100000000E-03 0. -1.
    9000002   -1    0    0    0    0 -0.00000000000E+00 -0.00000000000E+00  0.00000000000E+00  0.93800000000E+00  0.93800000000E+00 0. -1.
         11    1    1    2    0    0 -0.64298265175E-02 -0.95704161422E-01  0.81475737017E+00  0.82038433832E+00  0.51100000000E-03 0. -1.
    9000002    1    1    2    0    0  0.32651735048E-01  0.46406069681E+00  0.14733038877E+00  0.10573403944E+01  0.93800000000E+00 0. -1.
         22    1    1    2    0    0 -0.26221908530E-01 -0.36835653538E+00  0.30379122084E+01  0.30602752673E+01  0.00000000000E+00 0. -1.
</event>
<event>
 5    1  0.6776507E+001  0.1598610E+01  0.7818608E-02  0.3354873E+00
         11   -1    0    0    0    0  0.00000000000E+00  0.00000000000E+00  0.39999999674E+01  0.40000000000E+01  0.51100000000E-03 0.  1.
    9000002   -1    0    0    0    0 -0.00000000000E+00 -0.00000000000E+00  0.00000000000E+00  0.93800000000E+00  0.93800000000E+00 0. -1.
         11    1    1    2    0    0 -0.12132311027E+00  0.34892871340E-01  0.82142551486E+00  0.83106976069E+00  0.51100000000E-03 0.  1.
    9000002    1    1    2    0    0  0.55481009801E+00 -0.11528635044E-01  0.21391229973E+00  0.11106527928E+01  0.93800000000E+00 0. -1.
         22    1    1    2    0    0 -0.43348698775E+00 -0.23364236297E-01  0.29646621528E+01  0.29962774465E+01  0.00000000000E+00 0.  1.
</event>
<event>
 5    1  0.6776507E+001  0.1599677E+01  0.7818608E-02  0.3353714E+00
         11   -1    0    0    0    0  0.00000000000E+00  0.00000000000E+00  0.39999999674E+01  0.40000000000E+01  0.51100000000E-03 0. -1.
    9000002   -1    0    0    0    0 -0.00000000000E+00 -0.00000000000E+00  0.00000000000E+00  0.93800000000E+00  0.93800000000E+00 0. -1.
         11    1    1    2    0    0 -0.10037330744E+00 -0.13192122731E+00  0.62720395570E+00  0.64873960433E+00  0.51100000000E-03 0.  1.
    9000002    1    1    2    0    0  0.54290777469E+00  0.71186288404E+00  0.61223191468E+00  0.14339349828E+01  0.93800000000E+00 0. -1.
         22    1    1    2    0    0 -0.44253446725E+00 -0.57994165673E+00  0.27605640970E+01  0.28553254129E+01  0.00000000000E+00 0. -1.
</event>
<event>
 5    1  0.6776507E+001  0.1599566E+01  0.7818608E-02  0.3353834E+00
         11   -1    0    0    0    0  0.00000000000E+00  0.00000000000E+00  0.39999999674E+01  0.40000000000E+01  0.51100000000E-03 0.  1.
    9000002   -1    0    0    0    0 -0.00000000000E+00 -0.00000000000E+00  0.00000000000E+00  0.93800000000E+00  0.93800000000E+00 0. -1.
         11    1    1    2    0    0  0.78887355670E-01  0.39170816275E-01  0.73601338441E+00  0.74126481832E+00  0.51100000000E-03 0.  1.
    9000002    1    1    2    0    0 -0.44477431151E+00 -0.16404280443E+00  0.15329371722E+00  0.10621097842E+01  0.93800000000E+00 0. -1.
         22    1    1    2    0    0  0.36588695584E+00  0.12487198815E+00  0.31106928657E+01  0.31346253975E+01  0.00000000000E+00 0. -1.
</event>
<event>
 5    1  0.6776507E+001  0.1599648E+01  0.7818608E-02  0.3353746E+00
         11   -1    0    0    0    0  0.00000000000E+00  0.00000000000E+00  0.39999999674E+01  0.40000000000E+01  0.51100000000E-03 0. -1.
    9000002   -1    0    0    0    0 -0.00000000000E+00 -0.00000000000E+00  0.00000000000E+00  0.93800000000E+00  0.93800000000E+00 0. -1.
         11    1    1    2    0    0 -0.58431967780E-01  0.12836030037E+00  0.11763549983E+01  0.11847793063E+01  0.51100000000E-03 0. -1.
    9000002    1    1    2    0    0  0.17463352996E+00 -0.41196227850E+00  0.13595373277E+00  0.10481112566E+01  0.93800000000E+00 0. -1.
         22    1    1    2    0    0 -0.11620156218E+00  0.28360197813E+00  0.26876912363E+01  0.27051094371E+01  0.00000000000E+00 0.  1.
</event>
<event>
 5    1  0.7687862E+001  0.1515309E+01  0.7818608E-02  0.3450746E+00
         11   -1    0    0    0    0  0.00000000000E+00  0.00000000000E+00  0.39999999674E+01  0.40000000000E+01  0.51100000000E-03 0. -1.
    9000002   -1    0    0    0    0 -0.00000000000E+00 -0.00000000000E+00  0.00000000000E+00  0.93800000000E+00  0.93800000000E+00 0.  1.
         11    1    1    2    0    0 -0.22466552023E+00 -0.21322374103E+00  0.94941223127E+00  0.99866050574E+00  0.51100000000E-03 0. -1.
    9000002    1    1    2    0    0  0.61823899171E-01 -0.11386585193E-01  0.66575664288E-01  0.94245857623E+00  0.93800000000E+00 0.  1.
         22    1    1    2    0    0  0.16284162106E+00  0.22461032622E+00  0.29840120718E+01  0.29968809180E+01  0.00000000000E+00 0. -1.
</event>
<event>
 5    1  0.6776507E+001  0.1599677E+01  0.7818608E-02  0.3353714E+00
         11   -1    0    0    0    0  0.00000000000E+00  0.00000000000E+00  0.39999999674E+01  0.40000000000E+01  0.51100000000E-03 0. -1.
    9000002   -1    0    0    0    0 -0.00000000000E+00 -0.00000000000E+00  0.00000000000E+00  0.93800000000E+00  0.93800000000E+00 0. -1.
         11    1    1    2    0    0  0.10393543511E-01 -0.12980941786E+00  0.11492957927E+01  0.11566501593E+01  0.51100000000E-03 0.  1.
    9000002    1    1    2    0    0 -0.35904161389E-01  0.43801942456E+00  0.13098429266E+00  0.10441029691E+01  0.93800000000E+00 0. -1.
         22    1    1    2    0    0  0.25510617878E-01 -0.30821000670E+00  0.27197198820E+01  0.27372468717E+01  0.00000000000E+00 0. -1.
</event>
<event>
 5    1  0.6776507E+001  0.1597707E+01  0.7818608E-02  0.3355856E+00
         11   -1    0    0    0    0  0.00000000000E+00  0.00000000000E+00  0.39999999674E+01  0.40000000000E+01  0.51100000000E-03 0.  1.
    9000002   -1    0    0    0    0 -0.00000000000E+00 -0.00000000000E+00  0.00000000000E+00  0.93800000000E+00  0.93800000000E+00 0.  1.
         11    1    1    2    0    0  0.52444670122E-01 -0.91280490958E-02  0.44741553357E+00  0.45057150987E+00  0.51100000000E-03 0.  1.
    9000002    1    1    2    0    0 -0.29235191014E+00  0.32644557182E+00  0.13189284586E+00  0.10436838954E+01  0.93800000000E+00 0.  1.
         22    1    1    2    0    0  0.23990724002E+00 -0.31731752272E+00  0.34206915879E+01  0.34437445947E+01  0.00000000000E+00 0.  1.
</event>
<event>
 5    1  0.6776507E+001  0.1598491E+01  0.7818608E-02  0.3355003E+00
         11   -1    0    0    0    0  0.00000000000E+00  0.00000000000E+00  0.39999999674E+01  0.40000000000E+01  0.51100000000E-03 0.  1.
    9000002   -1    0    0    0    0 -0.00000000000E+00 -0.00000000000E+00  0.00000000000E+00  0.93800000000E+00  0.93800000000E+00 0.  1.
         11    1    1    2    0    0 -0.70303978901E-01 -0.25815597125E-01  0.68868716021E+00  0.69274768875E+00  0.51100000000E-03 0.  1.
    9000002    1    1    2    0    0  0.36834088638E+00  0.31968327422E+00  0.16356439423E+00  0.10697989136E+01  0.93800000000E+00 0.  1.
         22    1    1    2    0    0 -0.29803690748E+00 -0.29386767710E+00  0.31477484129E+01  0.31754533977E+01  0.00000000000E+00 0.  1.
</event>
<event>
 5    1  0.6776507E+001  0.1599677E+01  0.7818608E-02  0.3353714E+00
         11   -1    0    0    0    0  0.00000000000E+00  0.00000000000E+00  0.39999999674E+01  0.40000000000E+01  0.51100000000E-03 0. -1.
    9000002   -1    0    0    0    0 -0.00000000000E+00 -0.00000000000E+00  0.00000000000E+00  0.93800000000E+00  0.93800000000E+00 0.  1.
         11    1    1    2    0    0  0.91097639750E-01 -0.12693859657E+00  0.77005199523E+00  0.78574329380E+00  0.51100000000E-03 0.  1.
    9000002    1    1    2    0    0 -0.42624317065E+00  0.59694447664E+00  0.38813246035E+00  0.12524043898E+01  0.93800000000E+00 0.  1.
         22    1    1    2    0    0  0.33514553090E+00 -0.47000588007E+00  0.28418155118E+01  0.28998523164E+01  0.00000000000E+00 0. -1.
</event>
<event>
 5    1  0.6776507E+001  0.1599246E+01  0.7818608E-02  0.3354182E+00
         11   -1    0    0    0    0  0.00000000000E+00  0.00000000000E+00  0.39999999674E+01  0.40000000000E+01  0.51100000000E-03 0.  1.
    9000002   -1    0    0    0    0 -0.00000000000E+00 -0.00000000000E+00  0.00000000000E+00  0.93800000000E+00  0.93800000000E+00 0. -1.
         11    1    1    2    0    0 -0.75861635794E-02  0.31727018679E-01  0.23169015431E+00  0.23397594388E+00  0.51100000000E-03 0.  1.
    9000002    1    1    2    0    0  0.24813414464E+00 -0.37279202242E+00  0.13653469985E+00  0.10483463979E+01  0.93800000000E+00 0. -1.
         22    1    1    2    0    0 -0.24054798106E+00  0.34106500374E+00  0.36317751132E+01  0.36556776582E+01  0.00000000000E+00 0.  1.
</event>
<event>
 5    1  0.6776507E+001  0.1599676E+01  0.7818608E-02  0.3353715E+00
         11   -1    0    0    0    0  0.00000000000E+00  0.00000000000E+00  0.39999999674E+01  0.40000000000E+01  0.51100000000E-03 0. -1.
    9000002   -1    0    0    0    0 -0.00000000000E+00 -0.00000000000E+00  0.00000000000E+00  0.93800000000E+00  0.93800000000E+00 0. -1.
         11    1    1    2    0    0  0.10055765990E+00  0.52602441052E-02  0.59565425390E+00  0.60410575601E+00  0.51100000000E-03 0.  1.
    9000002    1    1    2    0    0 -0.63044240068E+00 -0.30612528962E-01  0.27988807157E+00  0.11647214603E+01  0.93800000000E+00 0. -1.
         22    1    1    2    0    0  0.52988474078E+00  0.25352284856E-01  0.31244576419E+01  0.31691727837E+01  0.00000000000E+00 0. -1.
</event>
<event>
 5    1  0.6776507E+001  0.1599667E+01  0.7818608E-02  0.3353724E+00
         11   -1    0    0    0    0  0.00000000000E+00  0.00000000000E+00  0.39999999674E+01  0.40000000000E+01  0.51100000000E-03 0. -1.
    9000002   -1    0    0    0    0 -0.00000000000E+00 -0.00000000000E+00  0.00000000000E+00  0.93800000000E+00  0.93800000000E+00 0.  1.
         11    1    1    2    0    0 -0.12661145897E-01 -0.41684958332E-01  0.42863132040E+00  0.43083988942E+00  0.51100000000E-03 0. -1.
    9000002    1    1    2    0    0  0.13131646779E+00  0.39053824590E+00  0.11469726899E+00  0.10309042631E+01  0.93800000000E+00 0.  1.
         22    1    1    2    0    0 -0.11865532190E+00 -0.34885328757E+00  0.34566713780E+01  0.34762558475E+01  0.00000000000E+00 0. -1.
</event>
<event>
 5    1  0.6776507E+001  0.1599531E+01  0.7818608E-02  0.3353872E+00
         11   -1    0    0    0    0  0.00000000000E+00  0.00000000000E+00  0.39999999674E+01  0.40000000000E+01  0.51100000000E-03 0. -1.
    9000002   -1    0    0    0    0 -0.00000000000E+00 -0.00000000000E+00  0.00000000000E+00  0.93800000000E+00  0.93800000000E+00 0.  1.
         11    1    1    2    0    0 -0.13297234030E+00 -0.49428921975E-02  0.10339097350E+01  0.10424373731E+01  0.51100000000E-03 0. -1.
    9000002    1    1    2    0    0  0.46309642696E+00  0.54054232261E-01  0.14813056596E+00  0.10579068131E+01  0.93800000000E+00 0.  1.
         22    1    1    2    0    0 -0.33012408666E+00 -0.49111340064E-01  0.28179596664E+01  0.28376558138E+01  0.00000000000E+00 0. -1.
</event>
<event>
 5    1  0.6776507E+001  0.1599666E+01  0.7818608E-02  0.3353725E+00
         11   -1    0    0    0    0  0.00000000000E+00  0.00000000000E+00  0.39999999674E+01  0.40000000000E+01  0.51100000000E-03 0. -1.
    9000002   -1    0    0    0    0 -0.00000000000E+00 -0.00000000000E+00  0.00000000000E+00  0.93800000000E+00  0.93800000000E+00 0. -1.
         11    1    1    2    0    0 -0.57924747703E-01 -0.17533497137E+00  0.11588604037E+01  0.11734800062E+01  0.51100000000E-03 0. -1.
    9000002    1    1    2    0    0  0.18713980364E+00  0.55705750151E+00  0.24032370059E+00  0.11326666973E+01  0.93800000000E+00 0. -1.
         22    1    1    2    0    0 -0.12921505594E+00 -0.38172253014E+00  0.26008158631E+01  0.26318532965E+01  0.00000000000E+00 0.  1.
</event>
<event>
 5    1  0.6776507E+001  0.1599676E+01  0.7818608E-02  0.3353715E+00
         11   -1    0    0    0    0  0.00000000000E+00  0.00000000000E+00  0.39999999674E+01  0.40000000000E+01  0.51100000000E-03 0. -1.
    9000002   -1    0    0    0    0 -0.00000000000E+00 -0.00000000000E+00  0.00000000000E+00  0.93800000000E+00  0.93800000000E+00 0. -1.
         11    1    1    2    0    0  0.10524712658E+00 -0.14161148305E+00  0.11201111351E+01  0.11339223897E+01  0.51100000000E-03 0. -1.
    9000002    1    1    2    0    0 -0.35246244530E+00  0.47193438776E+00  0.24150880706E+00  0.11336323679E+01  0.93800000000E+00 0. -1.
         22    1    1    2    0    0  0.24721531872E+00 -0.33032290471E+00  0.26383800252E+01  0.26704452424E+01  0.00000000000E+00 0. -1.
</event>
<event>
 5    1  0.6776507E+001  0.1599672E+01  0.7818608E-02  0.3353719E+00
         11   -1    0    0    0    0  0.00000000000E+00  0.00000000000E+00  0.39999999674E+01  0.40000000000E+01  0.51100000000E-03 0.  1.
    9000002   -1    0    0    0    0 -0.00000000000E+00 -0.00000000000E+00  0.00000000000E+00  0.93800000000E+00  0.93800000000E+00 0.  1.
         11    1    1    2    0    0  0.15586477941E-01  0.79947624105E-02  0.17600347196E+00  0.17687379055E+00  0.51100000000E-03 0.  1.
    9000002    1    1    2    0    0 -0.35310486185E+00 -0.19698111100E+00  0.11033939143E+00  0.10273769429E+01  0.93800000000E+00 0.  1.
         22    1    1    2    0    0  0.33751838391E+00  0.18898634859E+00  0.37136571040E+01  0.37337492665E+01  0.00000000000E+00 0.  1.
</event>
<event>
 5    1  0.6776507E+001  0.1565008E+01  0.7818608E-02  0.3392241E+00
         11   -1    0    0    0    0  0.00000000000E+00  0.00000000000E+00  0.39999999674E+01  0.40000000000E+01  0.51100000000E-03 0.  1.
    9000002   -1    0    0    0    0 -0.00000000000E+00 -0.00000000000E+00  0.00000000000E+00  0.93800000000E+00  0.93800000000E+00 0. -1.
         11    1    1    2    0    0 -0.13704427280E+00  0.41245523149E-01  0.14029023632E+01  0.14101835440E+01  0.51100000000E-03 0.  1.
    9000002    1    1    2    0    0 -0.21398016315E+00 -0.48043351729E-01  0.58516279086E-01  0.96507192933E+00  0.93800000000E+00 0. -1.
         22    1    1    2    0    0  0.35102443595E+00  0.67978285805E-02  0.25385813250E+01  0.25627445267E+01  0.00000000000E+00 0.  1.
</event>
<event>
 5    1  0.6776507E+001  0.1599675E+01  0.7818608E-02  0.3353716E+00
         11   -1    0    0    0    0  0.00000000000E+00  0.00000000000E+00  0.39999999674E+01  0.40000000000E+01  0.51100000000E-03 0. -1.
    9000002   -1    0    0    0    0 -0.00000000000E+00 -0.00000000000E+00  0.00000000000E+00  0.93800000000E+00  0.93800000000E+00 0.  1.
         11    1    1    2    0    0 -0.23517228984E-01 -0.11259552317E+00  0.88481174061E+00  0.89225718789E+00  0.51100000000E-03 0. -1.
    9000002    1    1    2    0    0  0.10721836355E+00  0.48805253683E+00  0.17092015079E+00  0.10764519284E+01  0.93800000000E+00 0.  1.
         22    1    1    2    0    0 -0.83701134570E-01 -0.37545701367E+00  0.29442680760E+01  0.29692908837E+01  0.00000000000E+00 0.  1.
</event>
<event>
 5    1  0.6776507E+001  0.1598210E+01  0.7818608E-02  0.3355309E+00
         11   -1    0    0    0    0  0.00000000000E+00  0.00000000000E+00  0.39999999674E+01  0.40000000000E+01  0.51100000000E-03 0. -1.
    9000002   -1    0    0    0    0 -0.00000000000E+00 -0.00000000000E+00  0.00000000000E+00  0.93800000000E+00  0.93800000000E+00 0.  1.
         11    1    1    2    0    0  0.28563379440E+00  0.13897947052E+00  0.12846412490E+01  0.13233311594E+01  0.51100000000E-03 0. -1.
    9000002    1    1    2    0    0 -0.84637277898E+00 -0.29305507109E+00  0.61514838497E+00  0.14354371081E+01  0.93800000000E+00 0.  1.
         22    1    1    2    0    0  0.56073898458E+00  0.15407560057E+00  0.21002103334E+01  0.21792317325E+01  0.00000000000E+00 0. -1.
</event>
<event>
 5    1  0.6776507E+001  0.1599671E+01  0.7818608E-02  0.3353720E+00
         11   -1    0    0    0    0  0.00000000000E+00  0.00000000000E+00  0.39999999674E+01  0.40000000000E+01  0.51100000000E-03 0. -1.
    9000002   -1    0    0    0    0 -0.00000000000E+00 -0.00000000000E+00  0.00000000000E+00  0.93800000000E+00  0.93800000000E+00 0.  1.
         11    1    1    2    0    0 -0.88946408365E-01 -0.28353417930E-01  0.90368874526E+00  0.90849820545E+00  0.51100000000E-03 0. -1.
    9000002    1    1    2    0    0  0.38654196992E+00  0.11239707617E+00  0.10934511743E+00  0.10265710652E+01  0.93800000000E+00 0.  1.
         22    1    1    2    0    0 -0.29759556155E+00 -0.84043658240E-01  0.29869661047E+01  0.30029307293E+01  0.00000000000E+00 0. -1.
</event>
<event>
 5    1  0.6776507E+001  0.1599671E+01  0.7818608E-02  0.3353721E+00
         11   -1    0    0    0    0  0.00000000000E+00  0.00000000000E+00  0.39999999674E+01  0.40000000000E+01  0.51100000000E-03 0. -1.
    9000002   -1    0    0    0    0 -0.00000000000E+00 -0.00000000000E+00  0.00000000000E+00  0.93800000000E+00  0.93800000000E+00 0. -1.
         11    1    1    2    0    0  0.97775337913E-01 -0.20245418850E-01  0.86235243741E+00  0.86811397934E+00  0.51100000000E-03 0. -1.
    9000002    1    1    2    0    0 -0.43598069148E+00  0.10149553783E+00  0.13605327714E+00  0.10482056104E+01  0.93800000000E+00 0. -1.
         22    1    1    2    0    0  0.33820535357E+00 -0.81250118976E-01  0.30015942528E+01  0.30216804102E+01  0.00000000000E+00 0. -1.
</event>
<event>
 5    1  0.6776507E+001  0.1599658E+01  0.7818608E-02  0.3353735E+00
         11   -1    0    0    0    0  0.00000000000E+00  0.00000000000E+00  0.39999999674E+01  0.40000000000E+01  0.51100000000E-03 0. -1.
    9000002   -1    0    0    0    0 -0.00000000000E+00 -0.00000000000E+00  0.00000000000E+00  0.93800000000E+00  0.93800000000E+00 0. -1.
         11    1    1    2    0    0  0.28501041241E-01  0.14223696941E+00  0.13620876143E+01  0.13697907121E+01  0.51100000000E-03 0. -1.
    9000002    1    1    2    0    0 -0.94047501893E-01 -0.41144241115E+00  0.12051986462E+00  0.10356151931E+01  0.93800000000E+00 0. -1.
         22    1    1    2    0    0  0.65546460652E-01  0.26920544174E+00  0.25173924885E+01  0.25325940949E+01  0.00000000000E+00 0. -1.
</event>
<event>
 5    1  0.6776507E+001  0.1578410E+01  0.7818608E-02  0.3377135E+00
         11   -1    0    0    0    0  0.00000000000E+00  0.00000000000E+00  0.39999999674E+01  0.40000000000E+01  0.51100000000E-03 0. -1.
    9000002   -1    0    0    0    0 -0.00000000000E+00 -0.00000000000E+00  0.00000000000E+00  0.93800000000E+00  0.93800000000E+00 0.  1.
         11    1    1    2    0    0 -0.34988911652E-01 -0.78484171641E-01  0.14341564862E+01  0.14367286025E+01  0.51100000000E-03 0. -1.
    9000002    1    1    2    0    0  0.30687847877E+00 -0.19553711247E+00  0.10639993533E+00  0.10117183943E+01  0.93800000000E+00 0.  1.
         22    1    1    2    0    0 -0.27188956712E+00  0.27402128411E+00  0.24594435458E+01  0.24895530032E+01  0.00000000000E+00 0. -1.
</event>
<event>
 5    1  0.6776507E+001  0.1599643E+01  0.7818608E-02  0.3353751E+00
         11   -1    0    0    0    0  0.00000000000E+00  0.00000000000E+00  0.39999999674E+01  0.40000000000E+01  0.51100000000E-03 0. -1.
    9000002   -1    0    0    0    0 -0.00000000000E+00 -0.00000000000E+00  0.00000000000E+00  0.93800000000E+00  0.93800000000E+00 0.  1.
         11    1    1    2    0    0  0.38840793525E-01 -0.38538204199E-01  0.60483639134E+00  0.60730644804E+00  0.51100000000E-03 0. -1.
    9000002    1    1    2    0    0 -0.28191606206E+00  0.23880549752E+00  0.91758140703E-01  0.10123083957E+01  0.93800000000E+00 0.  1.
         22    1    1    2    0    0  0.24307526853E+00 -0.20026729332E+00  0.33034054353E+01  0.33183851562E+01  0.00000000000E+00 0. -1.
</event>
<event>
 5    1  0.6776507E+001  0.1599634E+01  0.7818608E-02  0.3353761E+00
         11   -1    0    0    0    0  0.00000000000E+00  0.00000000000E+00  0.39999999674E+01  0.40000000000E+01  0.51100000000E-03 0.  1.
    9000002   -1    0    0    0    0 -0.00000000000E+00 -0.00000000000E+00  0.00000000000E+00  0.93800000000E+00  0.93800000000E+00 0.  1.
         11    1    1    2    0    0  0.66814663899E-01  0.96993326456E-01  0.95106545346E+00  0.95833066453E+00  0.51100000000E-03 0.  1.
    9000002    1    1    2    0    0 -0.24813035537E+00 -0.40885296965E+00  0.15606138943E+00  0.10643911787E+01  0.93800000000E+00 0.  1.
         22    1    1    2    0    0  0.18131569147E+00  0.31185964319E+00  0.28928731245E+01  0.29152781568E+01  0.00000000000E+00 0.  1.
</event>
<event>
 5    1  0.6776507E+001  0.1599676E+01  0.7818608E-02  0.3353715E+00
         11   -1    0    0    0    0  0.00000000000E+00  0.00000000000E+00  0.39999999674E+01  0.40000000000E+01  0.51100000000E-03 0.  1.
    9000002   -1    0    0    0    0 -0.00000000000E+00 -0.00000000000E+00  0.00000000000E+00  0.93800000000E+00  0.93800000000E+00 0.  1.
         11    1    1    2    0    0  0.66009556851E-01 -0.62267606816E-01  0.89817483933E+00  0.90274737307E+00  0.51100000000E-03 0.  1.
    9000002    1    1    2    0    0 -0.28475611445E+00  0.27378780892E+00  0.10519009347E+00  0.10232080750E+01  0.93800000000E+00 0.  1.
         22    1    1    2    0    0  0.21874655760E+00 -0.21152020210E+00  0.29966350346E+01  0.30120445519E+01  0.00000000000E+00 0.  1.
</event>
<event>
 5    1  0.6776507E+001  0.1535453E+01  0.7818608E-02  0.3426545E+00
         11   -1    0    0    0    0  0.00000000000E+00  0.00000000000E+00  0.39999999674E+01  0.40000000000E+01  0.51100000000E-03 0. -1.
    9000002   -1    0    0    0    0 -0.00000000000E+00 -0.00000000000E+00  0.00000000000E+00  0.93800000000E+00  0.93800000000E+00 0.  1.
         11    1    1    2    0    0 -0.28797740183E+00 -0.17518193213E+00  0.10648906742E+01  0.11169655780E+01  0.51100000000E-03 0. -1.
    9000002    1    1    2    0    0  0.41723453377E+00 -0.14489834651E+00  0.18968586397E+00  0.10539947410E+01  0.93800000000E+00 0.  1.
         22    1    1    2    0    0 -0.12925713194E+00  0.32008027864E+00  0.27454234292E+01  0.27670396810E+01  0.00000000000E+00 0. -1.
</event>
<event>
 5    1  0.6776507E+001  0.1597764E+01  0.7818608E-02  0.3355793E+00
         11   -1    0    0    0    0  0.00000000000E+00  0.00000000000E+00  0.39999999674E+01  0.40000000000E+01  0.51100000000E-03 0.  1.
    9000002   -1    0    0    0    0 -0.00000000000E+00 -0.00000000000E+00  0.00000000000E+00  0.93800000000E+00  0.93800000000E+00 0.  1.
         11    1    1    2    0    0 -0.69769890365E-01  0.27221037251E+00  0.13294427109E+01  0.13588173193E+01  0.51100000000E-03 0.  1.
    9000002    1    1    2    0    0  0.17352834684E+00 -0.84091912590E+00  0.55753100365E+00  0.13885034690E+01  0.93800000000E+00 0.  1.
         22    1    1    2    0    0 -0.10375845648E+00  0.56870875339E+00  0.21130262528E+01  0.21906792117E+01  0.00000000000E+00 0.  1.
</event>
<event>
 5    1  0.6776507E+001  0.1562030E+01  0.7818608E-02  0.3395635E+00
         11   -1    0    0    0    0  0.00000000000E+00  0.00000000000E+00  0.39999999674E+01  0.40000000000E+01  0.51100000000E-03 0. -1.
    9000002   -1    0    0    0    0 -0.00000000000E+00 -0.00000000000E+00  0.00000000000E+00  0.93800000000E+00  0.93800000000E+00 0.  1.
         11    1    1    2    0    0  0.27157922635E+00 -0.55840023302E-01  0.53340418634E+00  0.60116027107E+00  0.51100000000E-03 0. -1.
    9000002    1    1    2    0    0 -0.66224243063E+00  0.25504478162E+00  0.40497003249E+00  0.12439684903E+01  0.93800000000E+00 0.  1.
         22    1    1    2    0    0  0.39066320428E+00 -0.19920475832E+00  0.30616257485E+01  0.30928712387E+01  0.00000000000E+00 0. -1.
</event>
<event>
 5    1  0.6776507E+001  0.1598992E+01  0.7818608E-02  0.3354458E+00
         11   -1    0    0    0    0  0.00000000000E+00  0.00000000000E+00  0.39999999674E+01  0.40000000000E+01  0.51100000000E-03 0. -1.
    9000002   -1    0    0    0    0 -0.00000000000E+00 -0.00000000000E+00  0.00000000000E+00  0.93800000000E+00  0.93800000000E+00 0.  1.
         11    1    1    2    0    0 -0.13214024501E+00  0.16863499141E+00  0.13909590746E+01  0.14073614365E+01  0.51100000000E-03 0. -1.
    9000002    1    1    2    0    0  0.28102854191E+00 -0.44169419785E+00  0.18901192254E+00  0.10907063366E+01  0.93800000000E+00 0.  1.
         22    1    1    2    0    0 -0.14888829690E+00  0.27305920645E+00  0.24200289702E+01  0.24399322269E+01  0.00000000000E+00 0. -1.
</event>
<event>
 5    1  0.6776507E+001  0.1599620E+01  0.7818608E-02  0.3353776E+00
         11   -1    0    0    0    0  0.00000000000E+00  0.00000000000E+00  0.39999999674E+01  0.40000000000E+01  0.51100000000E-03 0.  1.
    9000002   -1    0    0    0    0 -0.00000000000E+00 -0.00000000000E+00  0.00000000000E+00  0.93800000000E+00  0.93800000000E+00 0. -1.
         11    1    1    2    0    0 -0.25569388779E-01  0.75737419631E-01  0.78116125694E+00  0.78524080436E+00  0.51100000000E-03 0.  1.
    9000002    1    1    2    0    0  0.14749610430E+00 -0.34801001530E+00  0.96149169857E-01  0.10158517285E+01  0.93800000000E+00 0. -1.
         22    1    1    2    0    0 -0.12192671552E+00  0.27227259567E+00  0.31226895406E+01  0.31369074671E+01  0.00000000000E+00 0.  1.
</event>
<event>
 5    1  0.6776507E+001  0.1599661E+01  0.7818608E-02  0.3353732E+00
         11   -1    0    0    0    0  0.00000000000E+00  0.00000000000E+00  0.39999999674E+01  0.40000000000E+01  0.51100000000E-03 0. -1.
    9000002   -1    0    0    0    0 -0.00000000000E+00 -0.00000000000E+00  0.00000000000E+00  0.93800000000E+00  0.93800000000E+00 0. -1.
         11    1    1    2    0    0 -0.23021038675E-01  0.18936285580E-01  0.24043532134E+00  0.24227661052E+00  0.51100000000E-03 0. -1.
    9000002    1    1    2    0    0  0.34395344640E+00 -0.27824125535E+00  0.13279805335E+00  0.10455627635E+01  0.93800000000E+00 0. -1.
         22    1    1    2    0    0 -0.32093240773E+00  0.25930496977E+00  0.36267665927E+01  0.36501606260E+01  0.00000000000E+00 0. -1.
</event>
<event>
 5    1  0.6776507E+001  0.1599669E+01  0.7818608E-02  0.3353723E+00
         11   -1    0    0    0    0  0.00000000000E+00  0.00000000000E+00  0.39999999674E+01  0.40000000000E+01  0.51100000000E-03 0.  1.
    9000002   -1    0    0    0    0 -0.00000000000E+00 -0.00000000000E+00  0.00000000000E+00  0.93800000000E+00  0.93800000000E+00 0.  1.
         11    1    1    2    0    0 -0.37752480320E-01  0.11686628266E-02  0.27352812216E+00  0.27612408492E+00  0.51100000000E-03 0.  1.
    9000002    1    1    2    0    0  0.53668905146E+00 -0.36603243487E-01  0.19942829825E+00  0.10995410777E+01  0.93800000000E+00 0.  1.
         22    1    1    2    0    0 -0.49893657114E+00  0.35434580661E-01  0.35270435470E+01  0.35623348374E+01  0.00000000000E+00 0.  1.
</event>
<event>
 5    1  0.6776507E+001  0.1599676E+01  0.7818608E-02  0.3353715E+00
         11   -1    0    0    0    0  0.00000000000E+00  0.00000000000E+00  0.39999999674E+01  0.40000000000E+01  0.51100000000E-03 0. -1.
    9000002   -1    0    0    0    0 -0.00000000000E+00 -0.00000000000E+00  0.00000000000E+00  0.93800000000E+00  0.93800000000E+00 0. -1.
         11    1    1    2    0    0  0.53146429481E-01 -0.18158429771E-01  0.33227444327E+00  0.33698789045E+00  0.51100000000E-03 0. -1.
    9000002    1    1    2    0    0 -0.59970114087E+00  0.20308152404E+00  0.28176454432E+00  0.11662413225E+01  0.93800000000E+00 0. -1.
         22    1    1    2    0    0  0.54655471139E+00 -0.18492309426E+00  0.33859609798E+01  0.34347707871E+01  0.00000000000E+00 0. -1.
</event>
<event>
 5    1  0.6776507E+001  0.1509038E+01  0.7818608E-02  0.3458421E+00
         11   -1    0    0    0    0  0.00000000000E+00  0.00000000000E+00  0.39999999674E+01  0.40000000000E+01  0.51100000000E-03 0.  1.
    9000002   -1    0    0    0    0 -0.00000000000E+00 -0.00000000000E+00  0.00000000000E+00  0.93800000000E+00  0.93800000000E+00 0.  1.
         11    1    1    2    0    0 -0.46154352783E-01 -0.41035033484E+00  0.13876435009E+01  0.14477818787E+01  0.51100000000E-03 0.  1.
    9000002    1    1    2    0    0 -0.10781897305E+00  0.20231988625E+00  0.10699004863E+00  0.97151898480E+00  0.93800000000E+00 0.  1.
         22    1    1    2    0    0  0.15397332584E+00  0.20803044859E+00  0.25053664179E+01  0.25186991365E+01  0.00000000000E+00 0.  1.
</event>
<event>
 5    1  0.6776507E+001  0.1599669E+01  0.7818608E-02  0.3353723E+00
         11   -1    0    0    0    0  0.00000000000E+00  0.00000000000E+00  0.39999999674E+01  0.40000000000E+01  0.51100000000E-03 0.  1.
    9000002   -1    0    0    0    0 -0.00000000000E+00 -0.00000000000E+00  0.00000000000E+00  0.93800000000E+00  0.93800000000E+00 0. -1.
         11    1    1    2    0    0  0.61395320876E-01  0.33283919896E-01  0.44692132689E+00  0.45234515395E+00  0.51100000000E-03 0.  1.
    9000002    1    1    2    0    0 -0.50107882197E+00 -0.27351300718E+00  0.22601640779E+00  0.11210783949E+01  0.93800000000E+00 0. -1.
         22    1    1    2    0    0  0.43968350110E+00  0.24022908729E+00  0.33270622327E+01  0.33645764512E+01  0.00000000000E+00 0.  1.
</event>
<event>
 5    1  0.6776507E+001  0.1599190E+01  0.7818608E-02  0.3354243E+00
         11   -1    0    0    0    0  0.00000000000E+00  0.00000000000E+00  0.39999999674E+01  0.40000000000E+01  0.51100000000E-03 0. -1.
    9000002   -1    0    0    0    0 -0.00000000000E+00 -0.00000000000E+00  0.00000000000E+00  0.93800000000E+00  0.93800000000E+00 0.  1.
         11    1    1    2    0    0 -0.12220855884E-01 -0.10995017233E+00  0.12878305596E+01  0.12925734799E+01  0.51100000000E-03 0. -1.
    9000002    1    1    2    0    0  0.11143490709E+00  0.34885277206E+00  0.90487735982E-01  0.10110133656E+01  0.93800000000E+00 0.  1.
         22    1    1    2    0    0 -0.99214051202E-01 -0.23890259973E+00  0.26216816718E+01  0.26344131545E+01  0.00000000000E+00 0. -1.
</event>
<event>
 5    1  0.6776507E+001  0.1598170E+01  0.7818608E-02  0.3355352E+00
         11   -1    0    0    0    0  0.00000000000E+00  0.00000000000E+00  0.39999999674E+01  0.40000000000E+01  0.51100000000E-03 0.  1.
    9000002   -1    0    0    0    0 -0.00000000000E+00 -0.00000000000E+00  0.00000000000E+00  0.93800000000E+00  0.93800000000E+00 0.  1.
         11    1    1    2    0    0  0.12063082300E+00  0.66818741139E-01  0.12379848308E+01  0.12456416989E+01  0.51100000000E-03 0.  1.
    9000002    1    1    2    0    0 -0.27764599842E+00 -0.30175316326E+00  0.11482763826E+00  0.10301318646E+01  0.93800000000E+00 0.  1.
         22    1    1    2    0    0  0.15701517541E+00  0.23493442213E+00  0.26471874983E+01  0.26622264365E+01  0.00000000000E+00 0.  1.
</event>
<event>
 5    1  0.6776507E+001  0.1596154E+01  0.7818608E-02  0.3357548E+00
         11   -1    0    0    0    0  0.00000000000E+00  0.00000000000E+00  0.39999999674E+01  0.40000000000E+01  0.51100000000E-03 0.  1.
    9000002   -1    0    0    0    0 -0.00000000000E+00 -0.00000000000E+00  0.00000000000E+00  0.93800000000E+00  0.93800000000E+00 0. -1.
         11    1    1    2    0    0 -0.73319844438E-01  0.18387197122E-01  0.56990158590E+00  0.57489300512E+00  0.51100000000E-03 0.  1.
    9000002    1    1    2    0    0  0.71306431623E+00  0.10674908308E+00  0.37775701642E+00  0.12419341566E+01  0.93800000000E+00 0. -1.
         22    1    1    2    0    0 -0.63974447179E+00 -0.12513628020E+00  0.30523413650E+01  0.31211728383E+01  0.00000000000E+00 0.  1.
</event>
<event>
 5    1  0.6776507E+001  0.1599121E+01  0.7818608E-02  0.3354318E+00
         11   -1    0    0    0    0  0.00000000000E+00  0.00000000000E+00  0.39999999674E+01  0.40000000000E+01  0.51100000000E-03 0. -1.
    9000002   -1    0    0    0    0 -0.00000000000E+00 -0.00000000000E+00  0.00000000000E+00  0.93800000000E+00  0.93800000000E+00 0.  1.
         11    1    1    2    0    0  0.70693490178E-01 -0.10034371933E+00  0.93207657174E+00  0.94012415577E+00  0.51100000000E-03 0. -1.
    9000002    1    1    2    0    0 -0.20214539019E+00  0.37470593575E+00  0.12315988173E+00  0.10374389879E+01  0.93800000000E+00 0.  1.
         22    1    1    2    0    0  0.13145190001E+00 -0.27436221642E+00  0.29447635139E+01  0.29604368564E+01  0.00000000000E+00 0. -1.
</event>
<event>
 5    1  0.7782395E+001  0.1594113E+01  0.7818608E-02  0.3359778E+00
         11   -1    0    0    0    0  0.00000000000E+00  0.00000000000E+00  0.39999999674E+01  0.40000000000E+01  0.51100000000E-03 0. -1.
    9000002   -1    0    0    0    0 -0.00000000000E+00 -0.00000000000E+00  0.00000000000E+00  0.93800000000E+00  0.93800000000E+00 0.  1.
         11    1    1    2    0    0  0.34880048887E-01 -0.47544681248E-01  0.10914103566E+01  0.10930022609E+01  0.51100000000E-03 0. -1.
    9000002    1    1    2    0    0 -0.30705957565E+00 -0.54647648593E-01  0.69360459756E-01  0.99092220778E+00  0.93800000000E+00 0.  1.
         22    1    1    2    0    0  0.27217952676E+00  0.10219232984E+00  0.28392291510E+01  0.28540755314E+01  0.00000000000E+00 0. -1.
</event>
<event>
 5    1  0.6776507E+001  0.1599671E+01  0.7818608E-02  0.3353720E+00
         11   -1    0    0    0    0  0.00000000000E+00  0.00000000000E+00  0.39999999674E+01  0.40000000000E+01  0.51100000000E-03 0.  1.
    9000002   -1    0    0    0    0 -0.00000000000E+00 -0.00000000000E+00  0.00000000000E+00  0.93800000000E+00  0.93800000000E+00 0. -1.
         11    1    1    2    0    0 -0.12099321667E+00  0.50989327981E-01  0.13710780256E+01  0.13773505303E+01  0.51100000000E-03 0.  1.
    9000002    1    1    2    0    0  0.34366143990E+00 -0.15284093513E+00  0.95142406387E-01  0.10150663103E+01  0.93800000000E+00 0. -1.
         22    1    1    2    0    0 -0.22266822323E+00  0.10185160715E+00  0.25337795354E+01  0.25455831594E+01  0.00000000000E+00 0.  1.
</event>
<event>
 5    1  0.7814844E+001  0.1599640E+01  0.7818608E-02  0.3353754E+00
         11   -1    0    0    0    0  0.00000000000E+00  0.00000000000E+00  0.39999999674E+01  0.40000000000E+01  0.51100000000E-03 0.  1.
    9000002   -1    0    0    0    0 -0.00000000000E+00 -0.00000000000E+00  0.00000000000E+00  0.93800000000E+00  0.93800000000E+00 0.  1.
         11    1    1    2    0    0  0.24810325506E-01  0.23128789274E+00  0.14330122512E+01  0.14517692705E+01  0.51100000000E-03 0.  1.
    9000002    1    1    2    0    0 -0.62111722890E-01 -0.62026993478E+00  0.27255391149E+00  0.11587589451E+01  0.93800000000E+00 0.  1.
         22    1    1    2    0    0  0.37301397384E-01  0.38898204204E+00  0.22944338047E+01  0.23274717845E+01  0.00000000000E+00 0.  1.
</event>
<event>
 5    1  0.6776507E+001  0.1594695E+01  0.7818608E-02  0.3359142E+00
         11   -1    0    0    0    0  0.00000000000E+00  0.00000000000E+00  0.39999999674E+01  0.40000000000E+01  0.51100000000E-03 0. -1.
    9000002   -1    0    0    0    0 -0.00000000000E+00 -0.00000000000E+00  0.00000000000E+00  0.93800000000E+00  0.93800000000E+00 0. -1.
         11    1    1    2    0    0 -0.15503477571E+00  0.15014802568E+00  0.11051924433E+01  0.11260687408E+01  0.51100000000E-03 0. -1.
    9000002    1    1    2    0    0  0.33987572531E+00 -0.33863406348E+00  0.16147913808E+00  0.10658836942E+01  0.93800000000E+00 0. -1.
         22    1    1    2    0    0 -0.18484094960E+00  0.18848603780E+00  0.27333283860E+01  0.27460475649E+01  0.00000000000E+00 0. -1.
</event>
<event>
 5    1  0.6776507E+001  0.1599675E+01  0.7818608E-02  0.3353717E+00
         11   -1    0    0    0    0  0.00000000000E+00  0.00000000000E+00  0.39999999674E+01  0.40000000000E+01  0.51100000000E-03 0. -1.
    9000002   -1    0    0    0    0 -0.00000000000E+00 -0.00000000000E+00  0.00000000000E+00  0.93800000000E+00  0.93800000000E+00 0.  1.
         11    1    1    2    0    0  0.24787396456E-01  0.22604507106E-01  0.32310380667E+00  0.32484105308E+00  0.51100000000E-03 0. -1.
    9000002    1    1    2    0    0 -0.28953111342E+00 -0.26591072079E+00  0.10414897163E+00  0.10223638224E+01  0.93800000000E+00 0.  1.
         22    1    1    2    0    0  0.26474371696E+00  0.24330621368E+00  0.35727471891E+01  0.35907951245E+01  0.00000000000E+00 0. -1.
</event>
<event>
 5    1  0.6776507E+001  0.1596496E+01  0.7818608E-02  0.3357175E+00
         11   -1    0    0    0    0  0.00000000000E+00  0.00000000000E+00  0.39999999674E+01  0.40000000000E+01  0.51100000000E-03 0.  1.
    9000002   -1    0    0    0    0 -0.00000000000E+00 -0.00000000000E+00  0.00000000000E+00  0.93800000000E+00  0.93800000000E+00 0. -1.
         11    1    1    2    0    0 -0.59443544308E-01 -0.43520014568E-01  0.72701620872E+00  0.73073959485E+00  0.51100000000E-03 0.  1.
    9000002    1    1    2    0    0  0.33856809327E+00 -0.49230779130E-01  0.80970891436E-01  0.10017246671E+01  0.93800000000E+00 0. -1.
         22    1    1    2    0    0 -0.27912454896E+00  0.92750793698E-01  0.31920128672E+01  0.32055357381E+01  0.00000000000E+00 0.  1.
</event>
<event>
 5    1  0.6776507E+001  0.1599575E+01  0.7818608E-02  0.3353825E+00
         11   -1    0    0    0    0  0.00000000000E+00  0.00000000000E+00  0.39999999674E+01  0.40000000000E+01  0.51100000000E-03 0.  1.
    9000002   -1    0    0    0    0 -0.00000000000E+00 -0.00000000000E+00  0.00000000000E+00  0.93800000000E+00  0.93800000000E+00 0.  1.
         11    1    1    2    0    0  0.15131818511E+00 -0.82970601403E-02  0.13923694998E+01  0.14005924173E+01  0.51100000000E-03 0.  1.
    9000002    1    1    2    0    0 -0.41272550610E+00  0.54299423476E-01  0.11722426717E+00  0.10328970421E+01  0.93800000000E+00 0.  1.
         22    1    1    2    0    0  0.26140732099E+00 -0.46002363336E-01  0.24904062004E+01  0.25045105406E+01  0.00000000000E+00 0.  1.
</event>
<event>
 5    1  0.6776507E+001  0.1599506E+01  0.7818608E-02  0.3353900E+00
         11   -1    0    0    0    0  0.00000000000E+00  0.00000000000E+00  0.39999999674E+01  0.40000000000E+01  0.51100000000E-03 0. -1.
    9000002   -1    0    0    0    0 -0.00000000000E+00 -0.00000000000E+00  0.00000000000E+00  0.93800000000E+00  0.93800000000E+00 0.  1.
         11    1    1    2    0    0  0.18713664954E-01  0.46989582857E-01  0.56908626597E+00  0.57132973089E+00  0.51100000000E-03 0. -1.
    9000002    1    1    2    0    0 -0.16065443629E+00 -0.38911597095E+00  0.12001593138E+00  0.10351178245E+01  0.93800000000E+00 0.  1.
         22    1    1    2    0    0  0.14194077134E+00  0.34212638810E+00  0.33108977700E+01  0.33315524446E+01  0.00000000000E+00 0. -1.
</event>
<event>
 5    1  0.6776507E+001  0.1589457E+01  0.7818608E-02  0.3364886E+00
         11   -1    0    0    0    0  0.00000000000E+00  0.00000000000E+00  0.39999999674E+01  0.40000000000E+01  0.51100000000E-03 0. -1.
    9000002   -1    0    0    0    0 -0.00000000000E+00 -0.00000000000E+00  0.00000000000E+00  0.93800000000E+00  0.93800000000E+00 0.  1.
         11    1    1    2    0    0 -0.19993357059E-01  0.37536440531E-01  0.64437202208E-01  0.77208372885E-01  0.51100000000E-03 0. -1.
    9000002    1    1    2    0    0  0.27365374875E+00 -0.44925493040E+00  0.19977301466E+00  0.10938325393E+01  0.93800000000E+00 0.  1.
         22    1    1    2    0    0 -0.25366039169E+00  0.41171848987E+00  0.37357897505E+01  0.37669590878E+01  0.00000000000E+00 0. -1.
</event>
<event>
 5    1  0.6776507E+001  0.1563672E+01  0.7818608E-02  0.3393761E+00
         11   -1    0    0    0    0  0.00000000000E+00  0.00000000000E+00  0.39999999674E+01  0.40000000000E+01  0.51100000000E-03 0. -1.
    9000002   -1    0    0    0    0 -0.00000000000E+00 -0.00000000000E+00  0.00000000000E+00  0.93800000000E+00  0.93800000000E+00 0.  1.
         11    1    1    2    0    0  0.91081570676E-01  0.50143410159E-01  0.13534440886E+00  0.17067098239E+00  0.51100000000E-03 0. -1.
    9000002    1    1    2    0    0 -0.46245641786E+00  0.39537995611E-01  0.17878882371E+00  0.10617149500E+01  0.93800000000E+00 0.  1.
         22    1    1    2    0    0  0.37137484718E+00 -0.89681405770E-01  0.36858667348E+01  0.37056140676E+01  0.00000000000E+00 0. -1.
</event>
<event>
 5    1  0.6776507E+001  0.1578960E+01  0.7818608E-02  0.3376521E+00
         11   -1    0    0    0    0  0.00000000000E+00  0.00000000000E+00  0.39999999674E+01  0.40000000000E+01  0.51100000000E-03 0.  1.
    9000002   -1    0    0    0    0 -0.00000000000E+00 -0.00000000000E+00  0.00000000000E+00  0.93800000000E+00  0.93800000000E+00 0. -1.
         11    1    1    2    0    0 -0.13127666785E+00 -0.27974911013E-01  0.31120641183E+00  0.33891864961E+00  0.51100000000E-03 0.  1.
    9000002    1    1    2    0    0  0.42428377285E+00  0.19184780704E+00  0.16595999406E+00  0.10602872350E+01  0.93800000000E+00 0. -1.
         22    1    1    2    0    0 -0.29300710500E+00 -0.16387289603E+00  0.35228335615E+01  0.35387941154E+01  0.00000000000E+00 0.  1.
</event>
<event>
 5    1  0.8594974E+001  0.1599423E+01  0.7818608E-02  0.3353990E+00
         11   -1    0    0    0    0  0.00000000000E+00  0.00000000000E+00  0.39999999674E+01  0.40000000000E+01  0.51100000000E-03 0.  1.
    9000002   -1    0    0    0    0 -0.00000000000E+00 -0.00000000000E+00  0.00000000000E+00  0.93800000000E+00  0.93800000000E+00 0.  1.
         11    1    1    2    0    0 -0.86528425621E-01  0.64298092158E-01  0.13219782830E+01  0.13263665613E+01  0.51100000000E-03 0.  1.
    9000002    1    1    2    0    0  0.30483468991E+00 -0.16685804309E+00  0.81157109949E-01  0.10035916855E+01  0.93800000000E+00 0.  1.
         22    1    1    2    0    0 -0.21830626429E+00  0.10255995094E+00  0.25968645744E+01  0.26080417532E+01  0.00000000000E+00 0.  1.
</event>
<event>
 5    1  0.6776507E+001  0.1599669E+01  0.7818608E-02  0.3353723E+00
         11   -1    0    0    0    0  0.00000000000E+00  0.00000000000E+00  0.39999999674E+01  0.40000000000E+01  0.51100000000E-03 0. -1.
    9000002   -1    0    0    0    0 -0.00000000000E+00 -0.00000000000E+00  0.00000000000E+00  0.93800000000E+00  0.93800000000E+00 0. -1.
         11    1    1    2    0    0 -0.12898429451E+00  0.69363588040E-01  0.11666208025E+01  0.11757774507E+01  0.51100000000E-03 0. -1.
    9000002    1    1    2    0    0  0.43283754899E+00 -0.22211917464E+00  0.16167111345E+00  0.10689559488E+01  0.93800000000E+00 0. -1.
         22    1    1    2    0    0 -0.30385325448E+00  0.15275558660E+00  0.26717080514E+01  0.26932666005E+01  0.00000000000E+00 0. -1.
</event>
<event>
 5    1  0.7036082E+001  0.1599110E+01  0.7818608E-02  0.3354330E+00
         11   -1    0    0    0    0  0.00000000000E+00  0.00000000000E+00  0.39999999674E+01  0.40000000000E+01  0.51100000000E-03 0. -1.
    9000002   -1    0    0    0    0 -0.00000000000E+00 -0.00000000000E+00  0.00000000000E+00  0.93800000000E+00  0.93800000000E+00 0.  1.
         11    1    1    2    0    0 -0.12696937884E+00  0.98051093900E-01  0.14737636126E+01  0.14824691184E+01  0.51100000000E-03 0. -1.
    9000002    1    1    2    0    0  0.39448124217E+00 -0.29035851020E+00  0.16447019111E+00  0.10708958673E+01  0.93800000000E+00 0.  1.
         22    1    1    2    0    0 -0.26751186333E+00  0.19230741630E+00  0.23617661637E+01  0.23846350143E+01  0.00000000000E+00 0. -1.
</event>
<event>
 5    1  0.6776507E+001  0.1599677E+01  0.7818608E-02  0.3353714E+00
         11   -1    0    0    0    0  0.00000000000E+00  0.00000000000E+00  0.39999999674E+01  0.40000000000E+01  0.51100000000E-03 0.  1.
    9000002   -1    0    0    0    0 -0.00000000000E+00 -0.00000000000E+00  0.00000000000E+00  0.93800000000E+00  0.93800000000E+00 0.  1.
         11    1    1    2    0    0 -0.36383091087E-01  0.28265751676E-01  0.50288604924E+00  0.50499239764E+00  0.51100000000E-03 0. -1.
    9000002    1    1    2    0    0  0.28448618938E+00 -0.21784458309E+00  0.86166257446E-01  0.10077982329E+01  0.93800000000E+00 0.  1.
         22    1    1    2    0    0 -0.24810309830E+00  0.18957883142E+00  0.34109476607E+01  0.34252093695E+01  0.00000000000E+00 0.  1.
</event>
<event>
 5    1  0.6776507E+001  0.1599560E+01  0.7818608E-02  0.3353841E+00
         11   -1    0    0    0    0  0.00000000000E+00  0.00000000000E+00  0.39999999674E+01  0.40000000000E+01  0.51100000000E-03 0. -1.
    9000002   -1    0    0    0    0 -0.00000000000E+00 -0.00000000000E+00  0.00000000000E+00  0.93800000000E+00  0.93800000000E+00 0. -1.
         11    1    1    2    0    0 -0.43600293563E-01 -0.10110016052E-01  0.38491797904E+00  0.38751168980E+00  0.51100000000E-03 0. -1.
    9000002    1    1    2    0    0  0.36335579115E+00  0.10623507680E+00  0.96505990038E-01  0.10161056680E+01  0.93800000000E+00 0. -1.
         22    1    1    2    0    0 -0.31975549758E+00 -0.96125060745E-01  0.35185759983E+01  0.35343826422E+01  0.00000000000E+00 0. -1.
</event>
<event>
 5    1  0.6776507E+001  0.1511321E+01  0.7818608E-02  0.3455620E+00
         11   -1    0    0    0    0  0.00000000000E+00  0.00000000000E+00  0.39999999674E+01  0.40000000000E+01  0.51100000000E-03 0.  1.
    9000002   -1    0    0    0    0 -0.00000000000E+00 -0.00000000000E+00  0.00000000000E+00  0.93800000000E+00  0.93800000000E+00 0.  1.
         11    1    1    2    0    0  0.11741147439E+00 -0.28652866197E+00  0.12417144186E+01  0.12797418048E+01  0.51100000000E-03 0.  1.
    9000002    1    1    2    0    0  0.25593777027E-01 -0.69418859280E-01  0.70843057489E-01  0.94357657784E+00  0.93800000000E+00 0.  1.
         22    1    1    2    0    0 -0.14300525142E+00  0.35594752125E+00  0.26874424913E+01  0.27146816174E+01  0.00000000000E+00 0.  1.
</event>
<event>
 5    1  0.6776507E+001  0.1597566E+01  0.7818608E-02  0.3356009E+00
         11   -1    0    0    0    0  0.00000000000E+00  0.00000000000E+00  0.39999999674E+01  0.40000000000E+01  0.51100000000E-03 0. -1.
    9000002   -1    0    0    0    0 -0.00000000000E+00 -0.00000000000E+00  0.00000000000E+00  0.93800000000E+00  0.93800000000E+00 0. -1.
         11    1    1    2    0    0 -0.36135831877E-01 -0.45903811939E-03  0.71670391558E+00  0.71761464087E+00  0.51100000000E-03 0. -1.
    9000002    1    1    2    0    0  0.39826780541E+00  0.11778610868E+00  0.11836007393E+00  0.10326392978E+01  0.93800000000E+00 0. -1.
         22    1    1    2    0    0 -0.36213197354E+00 -0.11732707056E+00  0.31649359779E+01  0.31877460613E+01  0.00000000000E+00 0. -1.
</event>
<event>
 5    1  0.6776507E+001  0.1599676E+01  0.7818608E-02  0.3353715E+00
         11   -1    0    0    0    0  0.00000000000E+00  0.00000000000E+00  0.39999999674E+01  0.40000000000E+01  0.51100000000E-03 0. -1.
    9000002   -1    0    0    0    0 -0.00000000000E+00 -0.00000000000E+00  0.00000000000E+00  0.93800000000E+00  0.93800000000E+00 0.  1.
         11    1    1    2    0    0  0.10629939249E+00  0.10403089170E+00  0.14431154331E+01  0.14507599394E+01  0.51100000000E-03 0. -1.
    9000002    1    1    2    0    0 -0.28979113182E+00 -0.27967895400E+00  0.10944617559E+00  0.10266555814E+01  0.93800000000E+00 0.  1.
         22    1    1    2    0    0  0.18349173934E+00  0.17564806230E+00  0.24474383586E+01  0.24605844792E+01  0.00000000000E+00 0. -1.
</event>
<event>
 5    1  0.6776507E+001  0.1599674E+01  0.7818608E-02  0.3353717E+00
         11   -1    0    0    0    0  0.00000000000E+00  0.00000000000E+00  0.39999999674E+01  0.40000000000E+01  0.51100000000E-03 0.  1.
    9000002   -1    0    0    0    0 -0.00000000000E+00 -0.00000000000E+00  0.00000000000E+00  0.93800000000E+00  0.93800000000E+00 0.  1.
         11    1    1    2    0    0 -0.27775686500E-01 -0.31827354844E+00  0.13316038999E+01  0.13693935694E+01  0.51100000000E-03 0.  1.
    9000002    1    1    2    0    0  0.73081897202E-01  0.82781125980E+00  0.51430725029E+00  0.13546100521E+01  0.93800000000E+00 0.  1.
         22    1    1    2    0    0 -0.45306210702E-01 -0.50953771136E+00  0.21540888171E+01  0.22139963785E+01  0.00000000000E+00 0.  1.
</event>
<event>
 5    1  0.6776507E+001  0.1536000E+01  0.7818608E-02  0.3425897E+00
         11   -1    0    0    0    0  0.00000000000E+00  0.00000000000E+00  0.39999999674E+01  0.40000000000E+01  0.51100000000E-03 0. -1.
    9000002   -1    0    0    0    0 -0.00000000000E+00 -0.00000000000E+00  0.00000000000E+00  0.93800000000E+00  0.93800000000E+00 0. -1.
         11    1    1    2    0    0 -0.22029750279E+00 -0.35975162205E-01  0.12836404642E+01  0.13029037971E+01  0.51100000000E-03 0. -1.
    9000002    1    1    2    0    0 -0.18990326247E+00  0.22485803095E+00  0.10922693342E+00  0.98914048859E+00  0.93800000000E+00 0. -1.
         22    1    1    2    0    0  0.41020076526E+00 -0.18888286874E+00  0.26071325697E+01  0.26459557143E+01  0.00000000000E+00 0. -1.
</event>
<event>
 5    1  0.6776507E+001  0.1486268E+01  0.7818608E-02  0.3486879E+00
         11   -1    0    0    0    0  0.00000000000E+00  0.00000000000E+00  0.39999999674E+01  0.40000000000E+01  0.51100000000E-03 0. -1.
    9000002   -1    0    0    0    0 -0.00000000000E+00 -0.00000000000E+00  0.00000000000E+00  0.93800000000E+00  0.93800000000E+00 0.  1.
         11    1    1    2    0    0  0.25158588422E+00 -0.24973517483E+00  0.11732360065E+01  0.12256207010E+01  0.51100000000E-03 0. -1.
    9000002    1    1    2    0    0  0.38563815694E-01 -0.45817595358E-01  0.89726661902E-01  0.94418287094E+00  0.93800000000E+00 0.  1.
         22    1    1    2    0    0 -0.29014969992E+00  0.29555277019E+00  0.27370372990E+01  0.27681964281E+01  0.00000000000E+00 0. -1.
</event>
<event>
 5    1  0.6776507E+001  0.1568366E+01  0.7818608E-02  0.3388430E+00
         11   -1    0    0    0    0  0.00000000000E+00  0.00000000000E+00  0.39999999674E+01  0.40000000000E+01  0.51100000000E-03 0.  1.
    9000002   -1    0    0    0    0 -0.00000000000E+00 -0.00000000000E+00  0.00000000000E+00  0.93800000000E+00  0.93800000000E+00 0. -1.
         11    1    1    2    0    0  0.15313444719E+00  0.12117946250E+00  0.13417746444E+01  0.13559107930E+01  0.51100000000E-03 0.  1.
    9000002    1    1    2    0    0  0.94947044314E-01 -0.12321548429E+00  0.39491959505E-01  0.95163050164E+00  0.93800000000E+00 0. -1.
         22    1    1    2    0    0 -0.24808149151E+00  0.20360217899E-02  0.26187333634E+01  0.26304587053E+01  0.00000000000E+00 0.  1.
</event>
<event>
 5    1  0.6776507E+001  0.1566838E+01  0.7818608E-02  0.3390161E+00
         11   -1    0    0    0    0  0.00000000000E+00  0.00000000000E+00  0.39999999674E+01  0.40000000000E+01  0.51100000000E-03 0.  1.
    9000002   -1    0    0    0    0 -0.00000000000E+00 -0.00000000000E+00  0.00000000000E+00  0.93800000000E+00  0.93800000000E+00 0. -1.
         11    1    1    2    0    0  0.15761983712E+00 -0.40846952924E+00  0.11469570334E+01  0.12276815820E+01  0.51100000000E-03 0.  1.
    9000002    1    1    2    0    0 -0.11585009516E+00  0.73588657384E+00  0.44198358926E+00  0.12767708437E+01  0.93800000000E+00 0. -1.
         22    1    1    2    0    0 -0.41769741959E-01 -0.32741704460E+00  0.24110593447E+01  0.24335475743E+01  0.00000000000E+00 0.  1.
</event>
<event>
 5    1  0.6776507E+001  0.1597307E+01  0.7818608E-02  0.3356291E+00
         11   -1    0    0    0    0  0.00000000000E+00  0.00000000000E+00  0.39999999674E+01  0.40000000000E+01  0.51100000000E-03 0.  1.
    9000002   -1    0    0    0    0 -0.00000000000E+00 -0.00000000000E+00  0.00000000000E+00  0.93800000000E+00  0.93800000000E+00 0.  1.
         11    1    1    2    0    0  0.14471744950E+00 -0.13466447852E+00  0.13033856437E+01  0.13182913408E+01  0.51100000000E-03 0.  1.
    9000002    1    1    2    0    0 -0.52101369020E+00  0.26535766707E+00  0.24007759522E+00  0.11310840855E+01  0.93800000000E+00 0.  1.
         22    1    1    2    0    0  0.37629624070E+00 -0.13069318855E+00  0.24565367284E+01  0.24886245736E+01  0.00000000000E+00 0. -1.
</event>
<event>
 5    1  0.6776507E+001  0.1591890E+01  0.7818608E-02  0.3362214E+00
         11   -1    0    0    0    0  0.00000000000E+00  0.00000000000E+00  0.39999999674E+01  0.40000000000E+01  0.51100000000E-03 0. -1.
    9000002   -1    0    0    0    0 -0.00000000000E+00 -0.00000000000E+00  0.00000000000E+00  0.93800000000E+00  0.93800000000E+00 0.  1.
         11    1    1    2    0    0 -0.80250202539E-01 -0.74038520192E-01  0.53617329350E+00  0.54717808734E+00  0.51100000000E-03 0. -1.
    9000002    1    1    2    0    0  0.51623261897E+00  0.28044871536E-02  0.19009785659E+00  0.10874213430E+01  0.93800000000E+00 0.  1.
         22    1    1    2    0    0 -0.43598241644E+00  0.71234033039E-01  0.32737288173E+01  0.33034005697E+01  0.00000000000E+00 0. -1.
</event>
<event>
 5    1  0.6776507E+001  0.1596655E+01  0.7818608E-02  0.3357002E+00
         11   -1    0    0    0    0  0.00000000000E+00  0.00000000000E+00  0.39999999674E+01  0.40000000000E+01  0.51100000000E-03 0. -1.
    9000002   -1    0    0    0    0 -0.00000000000E+00 -0.00000000000E+00  0.00000000000E+00  0.93800000000E+00  0.93800000000E+00 0. -1.
         11    1    1    2    0    0  0.13369315603E+00  0.10144868575E+00  0.63537406616E+00  0.65716524625E+00  0.51100000000E-03 0. -1.
    9000002    1    1    2    0    0 -0.46831446039E+00 -0.63146547875E+00  0.45702561291E+00  0.13064392429E+01  0.93800000000E+00 0. -1.
         22    1    1    2    0    0  0.33462130436E+00  0.53001679300E+00  0.29076002883E+01  0.29743955108E+01  0.00000000000E+00 0. -1.
</event>
<event>
 5    1  0.6776507E+001  0.1596671E+01  0.7818608E-02  0.3356984E+00
         11   -1    0    0    0    0  0.00000000000E+00  0.00000000000E+00  0.39999999674E+01  0.40000000000E+01  0.51100000000E-03 0.  1.
    9000002   -1    0    0    0    0 -0.00000000000E+00 -0.00000000000E+00  0.00000000000E+00  0.93800000000E+00  0.93800000000E+00 0. -1.
         11    1    1    2    0    0  0.11513063396E-01  0.41295116278E-02  0.17981204293E+00  0.18022828690E+00  0.51100000000E-03 0.  1.
    9000002    1    1    2    0    0  0.34813611759E+00 -0.35095995161E-01  0.84514030356E-01  0.10046975199E+01  0.93800000000E+00 0. -1.
         22    1    1    2    0    0 -0.35964918099E+00  0.30966483533E-01  0.37356738941E+01  0.37530741932E+01  0.00000000000E+00 0.  1.
</event>
<event>
 5    1  0.6776507E+001  0.1586748E+01  0.7818608E-02  0.3367873E+00
         11   -1    0    0    0    0  0.00000000000E+00  0.00000000000E+00  0.39999999674E+01  0.40000000000E+01  0.51100000000E-03 0. -1.
    9000002   -1    0    0    0    0 -0.00000000000E+00 -0.00000000000E+00  0.00000000000E+00  0.93800000000E+00  0.93800000000E+00 0.  1.
         11    1    1    2    0    0 -0.24287663169E-01  0.38705876418E-01  0.10397352343E+01  0.10407389942E+01  0.51100000000E-03 0. -1.
    9000002    1    1    2    0    0  0.17623719312E+00  0.30147085005E+00  0.92236562170E-01  0.10051347199E+01  0.93800000000E+00 0.  1.
         22    1    1    2    0    0 -0.15194952995E+00 -0.34017672647E+00  0.28680281709E+01  0.28921262860E+01  0.00000000000E+00 0. -1.
</event>
<event>
 5    1  0.6776507E+001  0.1598866E+01  0.7818608E-02  0.3354595E+00
         11   -1    0    0    0    0  0.00000000000E+00  0.00000000000E+00  0.39999999674E+01  0.40000000000E+01  0.51100000000E-03 0.  1.
    9000002   -1    0    0    0    0 -0.00000000000E+00 -0.00000000000E+00  0.00000000000E+00  0.93800000000E+00  0.93800000000E+00 0. -1.
         11    1    1    2    0    0  0.19179101467E+00 -0.25897182225E-01  0.12492218285E+01  0.12641241614E+01  0.51100000000E-03 0.  1.
    9000002    1    1    2    0    0 -0.63607595961E+00  0.14546258552E+00  0.30146795369E+00  0.11817270909E+01  0.93800000000E+00 0. -1.
         22    1    1    2    0    0  0.44428494495E+00 -0.11956540330E+00  0.24493101851E+01  0.24921487478E+01  0.00000000000E+00 0.  1.
</event>
<event>
 5    1  0.6776507E+001  0.1593568E+01  0.7818608E-02  0.3360375E+00
         11   -1    0    0    0    0  0.00000000000E+00  0.00000000000E+00  0.39999999674E+01  0.40000000000E+01  0.51100000000E-03 0. -1.
    9000002   -1    0    0    0    0 -0.00000000000E+00 -0.00000000000E+00  0.00000000000E+00  0.93800000000E+00  0.93800000000E+00 0.  1.
         11    1    1    2    0    0 -0.12018105281E-01  0.27558730775E-01  0.52288914159E+00  0.52375302768E+00  0.51100000000E-03 0. -1.
    9000002    1    1    2    0    0  0.36129329942E+00  0.18740188624E+00  0.11696328986E+00  0.10291631194E+01  0.93800000000E+00 0.  1.
         22    1    1    2    0    0 -0.34927519414E+00 -0.21496061702E+00  0.33601475359E+01  0.33850838529E+01  0.00000000000E+00 0. -1.
</event>
<event>
 5    1  0.6776507E+001  0.1599677E+01  0.7818608E-02  0.3353714E+00
         11   -1    0    0    0    0  0.00000000000E+00  0.00000000000E+00  0.39999999674E+01  0.40000000000E+01  0.51100000000E-03 0. -1.
    9000002   -1    0    0    0    0 -0.00000000000E+00 -0.00000000000E+00  0.00000000000E+00  0.93800000000E+00  0.93800000000E+00 0.  1.
         11    1    1    2    0    0  0.92011294504E-01 -0.11081128763E-01  0.99210997446E+00  0.99642929115E+00  0.51100000000E-03 0. -1.
    9000002    1    1    2    0    0 -0.36424570001E+00  0.45403484267E-01  0.90517331246E-01  0.10113227940E+01  0.93800000000E+00 0.  1.
         22    1    1    2    0    0  0.27223440550E+00 -0.34322355505E-01  0.29173726617E+01  0.29302479149E+01  0.00000000000E+00 0.  1.
</event>
<event>
 5    1  0.6776507E+001  0.1597303E+01  0.7818608E-02  0.3356296E+00
         11   -1    0    0    0    0  0.00000000000E+00  0.00000000000E+00  0.39999999674E+01  0.40000000000E+01  0.51100000000E-03 0. -1.
    9000002   -1    0    0    0    0 -0.00000000000E+00 -0.00000000000E+00  0.00000000000E+00  0.93800000000E+00  0.93800000000E+00 0. -1.
         11    1    1    2    0    0  0.16356113735E+00  0.21802536623E-01  0.14281088224E+01  0.14376100536E+01  0.51100000000E-03 0. -1.
    9000002    1    1    2    0    0 -0.39183835007E+00  0.84963241127E-01  0.11042575132E+00  0.10260574504E+01  0.93800000000E+00 0. -1.
         22    1    1    2    0    0  0.22827721272E+00 -0.10676577775E+00  0.24614653936E+01  0.24743324961E+01  0.00000000000E+00 0. -1.
</event>
<event>
 5    1  0.6776507E+001  0.1599676E+01  0.7818608E-02  0.3353715E+00
         11   -1    0    0    0    0  0.00000000000E+00  0.00000000000E+00  0.39999999674E+01  0.40000000000E+01  0.51100000000E-03 0. -1.
    9000002   -1    0    0    0    0 -0.00000000000E+00 -0.00000000000E+00  0.00000000000E+00  0.93800000000E+00  0.93800000000E+00 0. -1.
         11    1    1    2    0    0 -0.17553746542E-01  0.11573281492E+00  0.11627641089E+01  0.11686414559E+01  0.51100000000E-03 0. -1.
    9000002    1    1    2    0    0  0.56781384872E-01 -0.38438282529E+00  0.10168920430E+00  0.10203719794E+01  0.93800000000E+00 0. -1.
         22    1    1    2    0    0 -0.39227638330E-01  0.26865001037E+00  0.27355466542E+01  0.27489865647E+01  0.00000000000E+00 0. -1.
</event>
<event>
 5    1  0.6776507E+001  0.1599673E+01  0.7818608E-02  0.3353718E+00
         11   -1    0    0    0    0  0.00000000000E+00  0.00000000000E+00  0.39999999674E+01  0.40000000000E+01  0.51100000000E-03 0. -1.
    9000002   -1    0    0    0    0 -0.00000000000E+00 -0.00000000000E+00  0.00000000000E+00  0.93800000000E+00  0.93800000000E+00 0. -1.
         11    1    1    2    0    0 -0.68125809469E-01  0.20609776746E+00  0.12344954262E+01  0.12534339369E+01  0.51100000000E-03 0. -1.
    9000002    1    1    2    0    0  0.20038586220E+00 -0.61349767630E+00  0.29360772611E+00  0.11758330619E+01  0.93800000000E+00 0. -1.
         22    1    1    2    0    0 -0.13226005273E+00  0.40739990884E+00  0.24718968150E+01  0.25087330012E+01  0.00000000000E+00 0. -1.
</event>
<event>
 5    1  0.6776507E+001  0.1599677E+01  0.7818608E-02  0.3353715E+00
         11   -1    0    0    0    0  0.00000000000E+00  0.00000000000E+00  0.39999999674E+01  0.40000000000E+01  0.51100000000E-03 0.  1.
    9000002   -1    0    0    0    0 -0.00000000000E+00 -0.00000000000E+00  0.00000000000E+00  0.93800000000E+00  0.93800000000E+00 0. -1.
         11    1    1    2    0    0  0.40275889830E-01  0.29510521283E-01  0.49757010563E+00  0.50006928450E+00  0.51100000000E-03 0.  1.
    9000002    1    1    2    0    0 -0.31695065584E+00 -0.23377808801E+00  0.10454318449E+00  0.10226843062E+01  0.93800000000E+00 0. -1.
         22    1    1    2    0    0  0.27667476601E+00  0.20426756673E+00  0.33978866772E+01  0.34152464093E+01  0.00000000000E+00 0.  1.
</event>
<event>
 5    1  0.6776507E+001  0.1597979E+01  0.7818608E-02  0.3355560E+00
         11   -1    0    0    0    0  0.00000000000E+00  0.00000000000E+00  0.39999999674E+01  0.40000000000E+01  0.51100000000E-03 0. -1.
    9000002   -1    0    0    0    0 -0.00000000000E+00 -0.00000000000E+00  0.00000000000E+00  0.93800000000E+00  0.93800000000E+00 0. -1.
         11    1    1    2    0    0  0.30516109735E-01 -0.32437435323E-01  0.24081154515E+00  0.24489565444E+00  0.51100000000E-03 0. -1.
    9000002    1    1    2    0    0 -0.10907397992E+00  0.44860073158E+00  0.14649611479E+00  0.10556727055E+01  0.93800000000E+00 0. -1.
         22    1    1    2    0    0  0.78557870186E-01 -0.41616329626E+00  0.36126923074E+01  0.36374316401E+01  0.00000000000E+00 0. -1.
</event>
<event>
 5    1  0.6776507E+001  0.1524981E+01  0.7818608E-02  0.3439040E+00
         11   -1    0    0    0    0  0.00000000000E+00  0.00000000000E+00  0.39999999674E+01  0.40000000000E+01  0.51100000000E-03 0. -1.
    9000002   -1    0    0    0    0 -0.00000000000E+00 -0.00000000000E+00  0.00000000000E+00  0.93800000000E+00  0.93800000000E+00 0. -1.
         11    1    1    2    0    0 -0.29273147882E+00 -0.80490981344E-01  0.14387951746E+01  0.14704769064E+01  0.51100000000E-03 0. -1.
    9000002    1    1    2    0    0 -0.58972003415E-01  0.10779837995E+00  0.66877850200E-01  0.94837483874E+00  0.93800000000E+00 0. -1.
         22    1    1    2    0    0  0.35170348224E+00 -0.27307398602E-01  0.24943269426E+01  0.25191482549E+01  0.00000000000E+00 0.  1.
</event>
<event>
 5    1  0.6776507E+001  0.1599677E+01  0.7818608E-02  0.3353714E+00
         11   -1    0    0    0    0  0.00000000000E+00  0.00000000000E+00  0.39999999674E+01  0.40000000000E+01  0.51100000000E-03 0. -1.
    9000002   -1    0    0    0    0 -0.00000000000E+00 -0.00000000000E+00  0.00000000000E+00  0.93800000000E+00  0.93800000000E+00 0.  1.
         11    1    1    2    0    0 -0.29980923794E-01  0.98455043663E-01  0.99980257752E+00  0.10050859200E+01  0.51100000000E-03 0. -1.
    9000002    1    1    2    0    0  0.11754458691E+00 -0.38518209949E+00  0.10943360746E+00  0.10266458465E+01  0.93800000000E+00 0.  1.
         22    1    1    2    0    0 -0.87563663116E-01  0.28672705583E+00  0.28907637824E+01  0.29062682335E+01  0.00000000000E+00 0. -1.
</event>
<event>
 5    1  0.6776507E+001  0.1599674E+01  0.7818608E-02  0.3353718E+00
         11   -1    0    0    0    0  0.00000000000E+00  0.00000000000E+00  0.39999999674E+01  0.40000000000E+01  0.51100000000E-03 0. -1.
    9000002   -1    0    0    0    0 -0.00000000000E+00 -0.00000000000E+00  0.00000000000E+00  0.93800000000E+00  0.93800000000E+00 0.  1.
         11    1    1    2    0    0 -0.63163117781E-01  0.89542272607E-01  0.10157484121E+01  0.10216420586E+01  0.51100000000E-03 0. -1.
    9000002    1    1    2    0    0  0.24845966379E+00 -0.34052925689E+00  0.12020210605E+00  0.10353670487E+01  0.93800000000E+00 0.  1.
         22    1    1    2    0    0 -0.18529654601E+00  0.25098698428E+00  0.28640494492E+01  0.28809908926E+01  0.00000000000E+00 0. -1.
</event>
<event>
 5    1  0.6776507E+001  0.1599653E+01  0.7818608E-02  0.3353740E+00
         11   -1    0    0    0    0  0.00000000000E+00  0.00000000000E+00  0.39999999674E+01  0.40000000000E+01  0.51100000000E-03 0. -1.
    9000002   -1    0    0    0    0 -0.00000000000E+00 -0.00000000000E+00  0.00000000000E+00  0.93800000000E+00  0.93800000000E+00 0. -1.
         11    1    1    2    0    0  0.14214511281E-01  0.55465182999E-01  0.61883266950E+00  0.62147612410E+00  0.51100000000E-03 0. -1.
    9000002    1    1    2    0    0 -0.11538790952E+00 -0.34163945146E+00  0.87310839944E-01  0.10087115877E+01  0.93800000000E+00 0. -1.
         22    1    1    2    0    0  0.10117339824E+00  0.28617426846E+00  0.32938564579E+01  0.33078122882E+01  0.00000000000E+00 0. -1.
</event>
<event>
 5    1  0.6776507E+001  0.1553232E+01  0.7818608E-02  0.3405743E+00
         11   -1    0    0    0    0  0.00000000000E+00  0.00000000000E+00  0.39999999674E+01  0.40000000000E+01  0.51100000000E-03 0.  1.
    9000002   -1    0    0    0    0 -0.00000000000E+00 -0.00000000000E+00  0.00000000000E+00  0.93800000000E+00  0.93800000000E+00 0. -1.
         11    1    1    2    0    0  0.17352629599E+00  0.15264636275E+00  0.11210796059E+01  0.11446536731E+01  0.51100000000E-03 0.  1.
    9000002    1    1    2    0    0  0.75969621510E-01 -0.81952457093E-01  0.43017537464E-01  0.94561202253E+00  0.93800000000E+00 0. -1.
         22    1    1    2    0    0 -0.24949591750E+00 -0.70693905657E-01  0.28359028240E+01  0.28477343044E+01  0.00000000000E+00 0.  1.
</event>
<event>
 5    1  0.6776507E+001  0.1543229E+01  0.7818608E-02  0.3417384E+00
         11   -1    0    0    0    0  0.00000000000E+00  0.00000000000E+00  0.39999999674E+01  0.40000000000E+01  0.51100000000E-03 0. -1.
    9000002   -1    0    0    0    0 -0.00000000000E+00 -0.00000000000E+00  0.00000000000E+00  0.93800000000E+00  0.93800000000E+00 0. -1.
         11    1    1    2    0    0  0.13615113889E+00  0.15578419040E+00  0.60926786744E+00  0.64343876322E+00  0.51100000000E-03 0. -1.
    9000002    1    1    2    0    0 -0.18915176920E+00  0.15310872504E+00  0.83644931870E-01  0.97265674732E+00  0.93800000000E+00 0. -1.
         22    1    1    2    0    0  0.53000630316E-01 -0.30889291544E+00  0.33070871681E+01  0.33219044895E+01  0.00000000000E+00 0. -1.
</event>
<event>
 5    1  0.6776507E+001  0.1577996E+01  0.7818608E-02  0.3377598E+00
         11   -1    0    0    0    0  0.00000000000E+00  0.00000000000E+00  0.39999999674E+01  0.40000000000E+01  0.51100000000E-03 0. -1.
    9000002   -1    0    0    0    0 -0.00000000000E+00 -0.00000000000E+00  0.00000000000E+00  0.93800000000E+00  0.93800000000E+00 0.  1.
         11    1    1    2    0    0 -0.97401940274E-01 -0.30182392924E-01  0.74360953157E+00  0.75056879190E+00  0.51100000000E-03 0. -1.
    9000002    1    1    2    0    0 -0.13288615712E+00 -0.18429063316E+00  0.50831408566E-01  0.96646241537E+00  0.93800000000E+00 0.  1.
         22    1    1    2    0    0  0.23028809740E+00  0.21447302608E+00  0.32055590272E+01  0.32209687927E+01  0.00000000000E+00 0. -1.
</event>
<event>
 5    1  0.6776507E+001  0.1588932E+01  0.7818608E-02  0.3365464E+00
         11   -1    0    0    0    0  0.00000000000E+00  0.00000000000E+00  0.39999999674E+01  0.40000000000E+01  0.51100000000E-03 0.  1.
    9000002   -1    0    0    0    0 -0.00000000000E+00 -0.00000000000E+00  0.00000000000E+00  0.93800000000E+00  0.93800000000E+00 0.  1.
         11    1    1    2    0    0  0.22636987106E-01  0.31060717871E-01  0.54756140185E+00  0.54890887340E+00  0.51100000000E-03 0.  1.
    9000002    1    1    2    0    0  0.43112993647E+00 -0.51258004010E-01  0.13695809706E+00  0.10426418011E+01  0.93800000000E+00 0.  1.
         22    1    1    2    0    0 -0.45376692358E+00  0.20197286140E-01  0.33154804685E+01  0.33464493255E+01  0.00000000000E+00 0.  1.
</event>
<event>
 5    1  0.6776507E+001  0.1612601E+01  0.7818608E-02  0.3339800E+00
         11   -1    0    0    0    0  0.00000000000E+00  0.00000000000E+00  0.39999999674E+01  0.40000000000E+01  0.51100000000E-03 0.  1.
    9000002   -1    0    0    0    0 -0.00000000000E+00 -0.00000000000E+00  0.00000000000E+00  0.93800000000E+00  0.93800000000E+00 0. -1.
         11    1    1    2    0    0 -0.51074624108E+00 -0.40094833664E-01  0.50013288125E+00  0.71596262367E+00  0.51100000000E-03 0.  1.
    9000002    1    1    2    0    0  0.11845094799E+00 -0.20506619957E+00  0.33538133477E+00  0.10239176788E+01  0.93800000000E+00 0. -1.
         22    1    1    2    0    0  0.39229529309E+00  0.24516103323E+00  0.31644857513E+01  0.31981196975E+01  0.00000000000E+00 0.  1.
</event>
<event>
 5    1  0.6776507E+001  0.1530934E+01  0.7818608E-02  0.3431915E+00
         11   -1    0    0    0    0  0.00000000000E+00  0.00000000000E+00  0.39999999674E+01  0.40000000000E+01  0.51100000000E-03 0. -1.
    9000002   -1    0    0    0    0 -0.00000000000E+00 -0.00000000000E+00  0.00000000000E+00  0.93800000000E+00  0.93800000000E+00 0.  1.
         11    1    1    2    0    0 -0.19476393092E+00  0.71736970830E-01  0.32747793980E+00  0.38771283696E+00  0.51100000000E-03 0. -1.
    9000002    1    1    2    0    0  0.39079132964E+00  0.22191439108E+00  0.19912232986E+00  0.10589889341E+01  0.93800000000E+00 0.  1.
         22    1    1    2    0    0 -0.19602739873E+00 -0.29365136191E+00  0.34733996977E+01  0.34912982289E+01  0.00000000000E+00 0. -1.
</event>
<event>
 5    1  0.6776507E+001  0.1590397E+01  0.7818608E-02  0.3363853E+00
         11   -1    0    0    0    0  0.00000000000E+00  0.00000000000E+00  0.39999999674E+01  0.40000000000E+01  0.51100000000E-03 0.  1.
    9000002   -1    0    0    0    0 -0.00000000000E+00 -0.00000000000E+00  0.00000000000E+00  0.93800000000E+00  0.93800000000E+00 0. -1.
         11    1    1    2    0    0  0.19812527114E-02 -0.22996202959E-01  0.79102567583E+00  0.79136251595E+00  0.51100000000E-03 0.  1.
    9000002    1    1    2    0    0 -0.46573466453E+00  0.11131740819E+00  0.16468038210E+00  0.10659568337E+01  0.93800000000E+00 0. -1.
         22    1    1    2    0    0  0.46375341182E+00 -0.88321205234E-01  0.30442939094E+01  0.30806806503E+01  0.00000000000E+00 0.  1.
</event>
<event>
 5    1  0.6776507E+001  0.1578692E+01  0.7818608E-02  0.3376821E+00
         11   -1    0    0    0    0  0.00000000000E+00  0.00000000000E+00  0.39999999674E+01  0.40000000000E+01  0.51100000000E-03 0.  1.
    9000002   -1    0    0    0    0 -0.00000000000E+00 -0.00000000000E+00  0.00000000000E+00  0.93800000000E+00  0.93800000000E+00 0. -1.
         11    1    1    2    0    0  0.14039051630E+00  0.33063874285E-01  0.11013038016E+01  0.11107083512E+01  0.51100000000E-03 0.  1.
    9000002    1    1    2    0    0  0.38670902052E-01 -0.26245872197E+00  0.63134814386E-01  0.97683674388E+00  0.93800000000E+00 0. -1.
         22    1    1    2    0    0 -0.17906141835E+00  0.22939484768E+00  0.28355613514E+01  0.28504549050E+01  0.00000000000E+00 0.  1.
</event>
<event>
 5    1  0.6776507E+001  0.1599668E+01  0.7818608E-02  0.3353723E+00
         11   -1    0    0    0    0  0.00000000000E+00  0.00000000000E+00  0.39999999674E+01  0.40000000000E+01  0.51100000000E-03 0. -1.
    9000002   -1    0    0    0    0 -0.00000000000E+00 -0.00000000000E+00  0.00000000000E+00  0.93800000000E+00  0.93800000000E+00 0. -1.
         11    1    1    2    0    0  0.63612412977E-01  0.13283559539E+00  0.11912776151E+01  0.12003476379E+01  0.51100000000E-03 0. -1.
    9000002    1    1    2    0    0 -0.21229864171E+00 -0.42111255456E+00  0.15155853731E+00  0.10607641053E+01  0.93800000000E+00 0. -1.
         22    1    1    2    0    0  0.14868622873E+00  0.28827695918E+00  0.26571638149E+01  0.26768882568E+01  0.00000000000E+00 0.  1.
</event>
<event>
 5    1  0.6776507E+001  0.1595543E+01  0.7818608E-02  0.3358215E+00
         11   -1    0    0    0    0  0.00000000000E+00  0.00000000000E+00  0.39999999674E+01  0.40000000000E+01  0.51100000000E-03 0. -1.
    9000002   -1    0    0    0    0 -0.00000000000E+00 -0.00000000000E+00  0.00000000000E+00  0.93800000000E+00  0.93800000000E+00 0.  1.
         11    1    1    2    0    0  0.10802469001E-01 -0.89012857388E-02  0.26939829827E+00  0.26976217388E+00  0.51100000000E-03 0. -1.
    9000002    1    1    2    0    0  0.44257629314E-01  0.64279410554E+00  0.29688251784E+00  0.11760638713E+01  0.93800000000E+00 0.  1.
         22    1    1    2    0    0 -0.55060098315E-01 -0.63389281980E+00  0.34337191513E+01  0.34921739549E+01  0.00000000000E+00 0. -1.
</event>
<event>
 5    1  0.6776507E+001  0.1525872E+01  0.7818608E-02  0.3437970E+00
         11   -1    0    0    0    0  0.00000000000E+00  0.00000000000E+00  0.39999999674E+01  0.40000000000E+01  0.51100000000E-03 0.  1.
    9000002   -1    0    0    0    0 -0.00000000000E+00 -0.00000000000E+00  0.00000000000E+00  0.93800000000E+00  0.93800000000E+00 0. -1.
         11    1    1    2    0    0 -0.61163357989E-01 -0.23724254248E+00  0.63103052745E+00  0.67692301484E+00  0.51100000000E-03 0.  1.
    9000002    1    1    2    0    0 -0.23588870555E+00  0.92657091623E-01  0.10146964190E+00  0.97691806528E+00  0.93800000000E+00 0. -1.
         22    1    1    2    0    0  0.29705206354E+00  0.14458545085E+00  0.32674997980E+01  0.32841589199E+01  0.00000000000E+00 0.  1.
</event>
<event>
 5    1  0.6776507E+001  0.1592151E+01  0.7818608E-02  0.3361927E+00
         11   -1    0    0    0    0  0.00000000000E+00  0.00000000000E+00  0.39999999674E+01  0.40000000000E+01  0.51100000000E-03 0. -1.
    9000002   -1    0    0    0    0 -0.00000000000E+00 -0.00000000000E+00  0.00000000000E+00  0.93800000000E+00  0.93800000000E+00 0. -1.
         11    1    1    2    0    0  0.18927402847E+00 -0.16368514860E+00  0.11705115046E+01  0.11969607050E+01  0.51100000000E-03 0. -1.
    9000002    1    1    2    0    0 -0.30950547563E+00  0.44506663893E+00  0.20976383453E+00  0.11035047888E+01  0.93800000000E+00 0. -1.
         22    1    1    2    0    0  0.12023144716E+00 -0.28138149033E+00  0.26197246282E+01  0.26375345062E+01  0.00000000000E+00 0. -1.
</event>
<event>
 5    1  0.6776507E+001  0.1570235E+01  0.7818608E-02  0.3386317E+00
         11   -1    0    0    0    0  0.00000000000E+00  0.00000000000E+00  0.39999999674E+01  0.40000000000E+01  0.51100000000E-03 0. -1.
    9000002   -1    0    0    0    0 -0.00000000000E+00 -0.00000000000E+00  0.00000000000E+00  0.93800000000E+00  0.93800000000E+00 0. -1.
         11    1    1    2    0    0  0.19202862613E+00 -0.56566857579E-01  0.13348505647E+01  0.13497781647E+01  0.51100000000E-03 0. -1.
    9000002    1    1    2    0    0  0.57698575016E-02  0.23888823880E+00  0.60639747990E-01  0.96985672185E+00  0.93800000000E+00 0. -1.
         22    1    1    2    0    0 -0.19779848363E+00 -0.18232138122E+00  0.26045096546E+01  0.26183651134E+01  0.00000000000E+00 0.  1.
</event>
<event>
 5    1  0.6776507E+001  0.1599448E+01  0.7818608E-02  0.3353963E+00
         11   -1    0    0    0    0  0.00000000000E+00  0.00000000000E+00  0.39999999674E+01  0.40000000000E+01  0.51100000000E-03 0. -1.
    9000002   -1    0    0    0    0 -0.00000000000E+00 -0.00000000000E+00  0.00000000000E+00  0.93800000000E+00  0.93800000000E+00 0. -1.
         11    1    1    2    0    0  0.16372933093E-01  0.23959503244E-01  0.16310641498E+00  0.16566862848E+00  0.51100000000E-03 0.  1.
    9000002    1    1    2    0    0 -0.29183297913E+00 -0.41368847113E+00  0.17584875655E+00  0.10803107997E+01  0.93800000000E+00 0. -1.
         22    1    1    2    0    0  0.27546004604E+00  0.38972896789E+00  0.36610447958E+01  0.36920205718E+01  0.00000000000E+00 0. -1.
</event>
<event>
 5    1  0.6776507E+001  0.1599654E+01  0.7818608E-02  0.3353739E+00
         11   -1    0    0    0    0  0.00000000000E+00  0.00000000000E+00  0.39999999674E+01  0.40000000000E+01  0.51100000000E-03 0. -1.
    9000002   -1    0    0    0    0 -0.00000000000E+00 -0.00000000000E+00  0.00000000000E+00  0.93800000000E+00  0.93800000000E+00 0. -1.
         11    1    1    2    0    0 -0.51570627851E-02  0.11362523334E-01  0.11442121909E+00  0.11510073298E+00  0.51100000000E-03 0. -1.
    9000002    1    1    2    0    0  0.17739860358E+00 -0.32312817429E+00  0.91322216175E-01  0.10119613771E+01  0.93800000000E+00 0. -1.
         22    1    1    2    0    0 -0.17224154080E+00  0.31176565096E+00  0.37942565321E+01  0.38109378899E+01  0.00000000000E+00 0. -1.
</event>
<event>
 5    1  0.6776507E+001  0.1599643E+01  0.7818608E-02  0.3353751E+00
         11   -1    0    0    0    0  0.00000000000E+00  0.00000000000E+00  0.39999999674E+01  0.40000000000E+01  0.51100000000E-03 0.  1.
    9000002   -1    0    0    0    0 -0.00000000000E+00 -0.00000000000E+00  0.00000000000E+00  0.93800000000E+00  0.93800000000E+00 0.  1.
         11    1    1    2    0    0  0.12388598357E+00  0.70031948365E-01  0.13759051645E+01  0.13832452760E+01  0.51100000000E-03 0.  1.
    9000002    1    1    2    0    0 -0.33675472888E+00 -0.21126318072E+00  0.10659315488E+00  0.10243251337E+01  0.93800000000E+00 0.  1.
         22    1    1    2    0    0  0.21286874531E+00  0.14123123236E+00  0.25175016479E+01  0.25304295902E+01  0.00000000000E+00 0.  1.
</event>
<event>
 5    1  0.6776507E+001  0.1522658E+01  0.7818608E-02  0.3441837E+00
         11   -1    0    0    0    0  0.00000000000E+00  0.00000000000E+00  0.39999999674E+01  0.40000000000E+01  0.51100000000E-03 0. -1.
    9000002   -1    0    0    0    0 -0.00000000000E+00 -0.00000000000E+00  0.00000000000E+00  0.93800000000E+00  0.93800000000E+00 0.  1.
         11    1    1    2    0    0 -0.26569902309E+00  0.17343698348E-01  0.84499628740E+00  0.88595471757E+00  0.51100000000E-03 0. -1.
    9000002    1    1    2    0    0 -0.45114332961E-01 -0.25945942476E-01  0.59886684643E-01  0.94134951531E+00  0.93800000000E+00 0.  1.
         22    1    1    2    0    0  0.31081335605E+00  0.86022441278E-02  0.30951169953E+01  0.31106957671E+01  0.00000000000E+00 0. -1.
</event>
<event>
 5    1  0.6776507E+001  0.1582478E+01  0.7818608E-02  0.3372603E+00
         11   -1    0    0    0    0  0.00000000000E+00  0.00000000000E+00  0.39999999674E+01  0.40000000000E+01  0.51100000000E-03 0.  1.
    9000002   -1    0    0    0    0 -0.00000000000E+00 -0.00000000000E+00  0.00000000000E+00  0.93800000000E+00  0.93800000000E+00 0. -1.
         11    1    1    2    0    0 -0.48727552377E-01  0.57027318742E-01  0.69501555576E+00  0.69905176726E+00  0.51100000000E-03 0.  1.
    9000002    1    1    2    0    0 -0.20329443055E+00  0.16154144707E+00  0.58141097949E-01  0.97501212909E+00  0.93800000000E+00 0. -1.
         22    1    1    2    0    0  0.25202198292E+00 -0.21856876581E+00  0.32468433137E+01  0.32639361036E+01  0.00000000000E+00 0.  1.
</event>
<event>
 5    1  0.6776507E+001  0.1599668E+01  0.7818608E-02  0.3353724E+00
         11   -1    0    0    0    0  0.00000000000E+00  0.00000000000E+00  0.39999999674E+01  0.40000000000E+01  0.51100000000E-03 0.  1.
    9000002   -1    0    0    0    0 -0.00000000000E+00 -0.00000000000E+00  0.00000000000E+00  0.93800000000E+00  0.93800000000E+00 0. -1.
         11    1    1    2    0    0  0.16185594699E+00  0.19290387360E+00  0.12520696316E+01  0.12771405074E+01  0.51100000000E-03 0.  1.
    9000002    1    1    2    0    0 -0.45961740868E+00 -0.55480521636E+00  0.37306293177E+00  0.12401923002E+01  0.93800000000E+00 0. -1.
         22    1    1    2    0    0  0.29776146169E+00  0.36190134276E+00  0.23748674040E+01  0.24206671924E+01  0.00000000000E+00 0.  1.
</event>
<event>
 5    1  0.6776507E+001  0.1599573E+01  0.7818608E-02  0.3353826E+00
         11   -1    0    0    0    0  0.00000000000E+00  0.00000000000E+00  0.39999999674E+01  0.40000000000E+01  0.51100000000E-03 0. -1.
    9000002   -1    0    0    0    0 -0.00000000000E+00 -0.00000000000E+00  0.00000000000E+00  0.93800000000E+00  0.93800000000E+00 0.  1.
         11    1    1    2    0    0 -0.96579882536E-01  0.39270366555E-01  0.91433828830E+00  0.92026333295E+00  0.51100000000E-03 0. -1.
    9000002    1    1    2    0    0  0.41564813999E+00 -0.12278943640E+00  0.12736166870E+00  0.10411078794E+01  0.93800000000E+00 0.  1.
         22    1    1    2    0    0 -0.31906825746E+00  0.83519069845E-01  0.29583000104E+01  0.29766287876E+01  0.00000000000E+00 0. -1.
</event>
<event>
 5    1  0.6776507E+001  0.1570147E+01  0.7818608E-02  0.3386416E+00
         11   -1    0    0    0    0  0.00000000000E+00  0.00000000000E+00  0.39999999674E+01  0.40000000000E+01  0.51100000000E-03 0. -1.
    9000002   -1    0    0    0    0 -0.00000000000E+00 -0.00000000000E+00  0.00000000000E+00  0.93800000000E+00  0.93800000000E+00 0.  1.
         11    1    1    2    0    0 -0.30333040457E-01 -0.99522933229E-01  0.39186341676E+00  0.40544063202E+00  0.51100000000E-03 0. -1.
    9000002    1    1    2    0    0 -0.27859533339E+00 -0.10532136217E+00  0.82622324289E-01  0.98761247339E+00  0.93800000000E+00 0.  1.
         22    1    1    2    0    0  0.30892837385E+00  0.20484429540E+00  0.35255142263E+01  0.35449468946E+01  0.00000000000E+00 0. -1.
</event>
<event>
 5    1  0.6776507E+001  0.1599655E+01  0.7818608E-02  0.3353738E+00
         11   -1    0    0    0    0  0.00000000000E+00  0.00000000000E+00  0.39999999674E+01  0.40000000000E+01  0.51100000000E-03 0.  1.
    9000002   -1    0    0    0    0 -0.00000000000E+00 -0.00000000000E+00  0.00000000000E+00  0.93800000000E+00  0.93800000000E+00 0. -1.
         11    1    1    2    0    0  0.81196336064E-01  0.13301295259E+00  0.12046039787E+01  0.12146424565E+01  0.51100000000E-03 0.  1.
    9000002    1    1    2    0    0 -0.24185479665E+00 -0.42377643643E+00  0.16267425535E+00  0.10697603115E+01  0.93800000000E+00 0. -1.
         22    1    1    2    0    0  0.16065846059E+00  0.29076348384E+00  0.26327217333E+01  0.26535972319E+01  0.00000000000E+00 0.  1.
</event>
<event>
 5    1  0.6776507E+001  0.1599623E+01  0.7818608E-02  0.3353773E+00
         11   -1    0    0    0    0  0.00000000000E+00  0.00000000000E+00  0.39999999674E+01  0.40000000000E+01  0.51100000000E-03 0. -1.
    9000002   -1    0    0    0    0 -0.00000000000E+00 -0.00000000000E+00  0.00000000000E+00  0.93800000000E+00  0.93800000000E+00 0.  1.
         11    1    1    2    0    0  0.11298050781E+00  0.52532417315E-01  0.91473380157E+00  0.92318061010E+00  0.51100000000E-03 0. -1.
    9000002    1    1    2    0    0 -0.46331913151E+00 -0.24954146498E+00  0.19049347996E+00  0.10922762134E+01  0.93800000000E+00 0.  1.
         22    1    1    2    0    0  0.35033862370E+00  0.19700904767E+00  0.28947726858E+01  0.29225431765E+01  0.00000000000E+00 0. -1.
</event>
<event>
 5    1  0.6776507E+001  0.1515050E+01  0.7818608E-02  0.3451062E+00
         11   -1    0    0    0    0  0.00000000000E+00  0.00000000000E+00  0.39999999674E+01  0.40000000000E+01  0.51100000000E-03 0. -1.
    9000002   -1    0    0    0    0 -0.00000000000E+00 -0.00000000000E+00  0.00000000000E+00  0.93800000000E+00  0.93800000000E+00 0.  1.
         11    1    1    2    0    0 -0.63580878141E-01  0.31152619762E+00  0.11827460803E+01  0.12247365641E+01  0.51100000000E-03 0. -1.
    9000002    1    1    2    0    0  0.10989588362E+00  0.29915154388E-01  0.73265528963E-01  0.94772562455E+00  0.93800000000E+00 0.  1.
         22    1    1    2    0    0 -0.46315005483E-01 -0.34144135201E+00  0.27439883581E+01  0.27655378114E+01  0.00000000000E+00 0. -1.
</event>
<event>
 5    1  0.6776507E+001  0.1548323E+01  0.7818608E-02  0.3411435E+00
         11   -1    0    0    0    0  0.00000000000E+00  0.00000000000E+00  0.39999999674E+01  0.40000000000E+01  0.51100000000E-03 0. -1.
    9000002   -1    0    0    0    0 -0.00000000000E+00 -0.00000000000E+00  0.00000000000E+00  0.93800000000E+00  0.93800000000E+00 0. -1.
         11    1    1    2    0    0 -0.12482890918E+00  0.10448953043E+00  0.54263402795E+00  0.56652649360E+00  0.51100000000E-03 0. -1.
    9000002    1    1    2    0    0 -0.16374795639E+00  0.98598807004E-01  0.63574233030E-01  0.95938563731E+00  0.93800000000E+00 0. -1.
         22    1    1    2    0    0  0.28857686557E+00 -0.20308833743E+00  0.33937917064E+01  0.34120878691E+01  0.00000000000E+00 0. -1.
</event>
<event>
 5    1  0.6776507E+001  0.1599017E+01  0.7818608E-02  0.3354431E+00
         11   -1    0    0    0    0  0.00000000000E+00  0.00000000000E+00  0.39999999674E+01  0.40000000000E+01  0.51100000000E-03 0. -1.
    9000002   -1    0    0    0    0 -0.00000000000E+00 -0.00000000000E+00  0.00000000000E+00  0.93800000000E+00  0.93800000000E+00 0.  1.
         11    1    1    2    0    0 -0.92673204014E-04 -0.16760750312E-02  0.47299268382E-02  0.50449127573E-02  0.51100000000E-03 0. -1.
    9000002    1    1    2    0    0 -0.33058567581E+00 -0.31410182799E+00  0.14193308317E+00  0.10525853160E+01  0.93800000000E+00 0.  1.
         22    1    1    2    0    0  0.33067834902E+00  0.31577790303E+00  0.38533369573E+01  0.38803697712E+01  0.00000000000E+00 0. -1.
</event>
<event>
 5    1  0.6776507E+001  0.1599242E+01  0.7818608E-02  0.3354186E+00
         11   -1    0    0    0    0  0.00000000000E+00  0.00000000000E+00  0.39999999674E+01  0.40000000000E+01  0.51100000000E-03 0.  1.
    9000002   -1    0    0    0    0 -0.00000000000E+00 -0.00000000000E+00  0.00000000000E+00  0.93800000000E+00  0.93800000000E+00 0.  1.
         11    1    1    2    0    0  0.91993092634E-01 -0.42768503511E-01  0.11898705950E+01  0.11941876602E+01  0.51100000000E-03 0.  1.
    9000002    1    1    2    0    0 -0.32938861499E+00  0.21055505055E+00  0.10332832196E+00  0.10214455595E+01  0.93800000000E+00 0.  1.
         22    1    1    2    0    0  0.23739552236E+00 -0.16778654703E+00  0.27068010504E+01  0.27223667802E+01  0.00000000000E+00 0. -1.
</event>
<event>
 5    1  0.7559213E+001  0.1588924E+01  0.7818608E-02  0.3365473E+00
         11   -1    0    0    0    0  0.00000000000E+00  0.00000000000E+00  0.39999999674E+01  0.40000000000E+01  0.51100000000E-03 0. -1.
    9000002   -1    0    0    0    0 -0.00000000000E+00 -0.00000000000E+00  0.00000000000E+00  0.93800000000E+00  0.93800000000E+00 0. -1.
         11    1    1    2    0    0 -0.69587753161E-01 -0.86145510556E-01  0.76212497141E+00  0.77012871492E+00  0.51100000000E-03 0. -1.
    9000002    1    1    2    0    0 -0.12811673634E+00  0.29449798943E+00  0.77511060914E-01  0.99448224141E+00  0.93800000000E+00 0. -1.
         22    1    1    2    0    0  0.19770448950E+00 -0.20835247888E+00  0.31603639350E+01  0.31733890437E+01  0.00000000000E+00 0. -1.
</event>
<event>
 5    1  0.6776507E+001  0.1599676E+01  0.7818608E-02  0.3353715E+00
         11   -1    0    0    0    0  0.00000000000E+00  0.00000000000E+00  0.39999999674E+01  0.40000000000E+01  0.51100000000E-03 0. -1.
    9000002   -1    0    0    0    0 -0.00000000000E+00 -0.00000000000E+00  0.00000000000E+00  0.93800000000E+00  0.93800000000E+00 0.  1.
         11    1    1    2    0    0 -0.28427164286E-01  0.17776507883E-01  0.28947919864E+00  0.29141478251E+00  0.51100000000E-03 0. -1.
    9000002    1    1    2    0    0  0.38614428205E+00 -0.23484729331E+00  0.13877172510E+00  0.10504105147E+01  0.93800000000E+00 0.  1.
         22    1    1    2    0    0 -0.35771711776E+00  0.21707078543E+00  0.35717490436E+01  0.35961747028E+01  0.00000000000E+00 0. -1.
</event>
<event>
 5    1  0.6776507E+001  0.1571297E+01  0.7818608E-02  0.3385119E+00
         11   -1    0    0    0    0  0.00000000000E+00  0.00000000000E+00  0.39999999674E+01  0.40000000000E+01  0.51100000000E-03 0.  1.
    9000002   -1    0    0    0    0 -0.00000000000E+00 -0.00000000000E+00  0.00000000000E+00  0.93800000000E+00  0.93800000000E+00 0.  1.
         11    1    1    2    0    0 -0.37368788375E-01  0.13440946430E+00  0.76733138785E+00  0.77991028352E+00  0.51100000000E-03 0.  1.
    9000002    1    1    2    0    0  0.46520201114E+00  0.89819831384E-01  0.17845190513E+00  0.10659125648E+01  0.93800000000E+00 0.  1.
         22    1    1    2    0    0 -0.42783322276E+00 -0.22422929568E+00  0.30542166744E+01  0.30921771517E+01  0.00000000000E+00 0.  1.
</event>
<event>
 5    1  0.6776507E+001  0.1588375E+01  0.7818608E-02  0.3366078E+00
         11   -1    0    0    0    0  0.00000000000E+00  0.00000000000E+00  0.39999999674E+01  0.40000000000E+01  0.51100000000E-03 0.  1.
    9000002   -1    0    0    0    0 -0.00000000000E+00 -0.00000000000E+00  0.00000000000E+00  0.93800000000E+00  0.93800000000E+00 0. -1.
         11    1    1    2    0    0 -0.86088238062E-01  0.17710835565E+00  0.92980529949E+00  0.95042975041E+00  0.51100000000E-03 0.  1.
    9000002    1    1    2    0    0 -0.55395037355E-01 -0.52865910896E+00  0.20504465261E+00  0.10974681650E+01  0.93800000000E+00 0. -1.
         22    1    1    2    0    0  0.14148327542E+00  0.35155075331E+00  0.28651500153E+01  0.28901020846E+01  0.00000000000E+00 0.  1.
</event>
<event>
 5    1  0.6776507E+001  0.1597032E+01  0.7818608E-02  0.3356591E+00
         11   -1    0    0    0    0  0.00000000000E+00  0.00000000000E+00  0.39999999674E+01  0.40000000000E+01  0.51100000000E-03 0. -1.
    9000002   -1    0    0    0    0 -0.00000000000E+00 -0.00000000000E+00  0.00000000000E+00  0.93800000000E+00  0.93800000000E+00 0.  1.
         11    1    1    2    0    0  0.57196920147E-01  0.10641982350E+00  0.81487085718E+00  0.82377875762E+00  0.51100000000E-03 0. -1.
    9000002    1    1    2    0    0 -0.23108788367E+00 -0.70148423874E+00  0.39722409963E+00  0.12582180783E+01  0.93800000000E+00 0.  1.
         22    1    1    2    0    0  0.17389096352E+00  0.59506441525E+00  0.27879050105E+01  0.28560031641E+01  0.00000000000E+00 0. -1.
</event>
<event>
 5    1  0.9331061E+001  0.1594312E+01  0.7818608E-02  0.3359560E+00
         11   -1    0    0    0    0  0.00000000000E+00  0.00000000000E+00  0.39999999674E+01  0.40000000000E+01  0.51100000000E-03 0.  1.
    9000002   -1    0    0    0    0 -0.00000000000E+00 -0.00000000000E+00  0.00000000000E+00  0.93800000000E+00  0.93800000000E+00 0. -1.
         11    1    1    2    0    0 -0.58351683040E-01 -0.35219002666E-01  0.13945155364E+01  0.13961801959E+01  0.51100000000E-03 0.  1.
    9000002    1    1    2    0    0  0.29054786399E+00 -0.10265897434E+00  0.67624987009E-01  0.98963329832E+00  0.93800000000E+00 0. -1.
         22    1    1    2    0    0 -0.23219618095E+00  0.13787797700E+00  0.25378594439E+01  0.25521865058E+01  0.00000000000E+00 0.  1.
</event>
<event>
 5    1  0.6776507E+001  0.1596792E+01  0.7818608E-02  0.3356853E+00
         11   -1    0    0    0    0  0.00000000000E+00  0.00000000000E+00  0.39999999674E+01  0.40000000000E+01  0.51100000000E-03 0.  1.
    9000002   -1    0    0    0    0 -0.00000000000E+00 -0.00000000000E+00  0.00000000000E+00  0.93800000000E+00  0.93800000000E+00 0.  1.
         11    1    1    2    0    0 -0.96068283537E-01 -0.33905697488E-01  0.52148642292E+00  0.53134457919E+00  0.51100000000E-03 0.  1.
    9000002    1    1    2    0    0  0.38907293206E+00  0.18500364103E+00  0.12817130863E+00  0.10401326733E+01  0.93800000000E+00 0.  1.
         22    1    1    2    0    0 -0.29300464853E+00 -0.15109794354E+00  0.33503422358E+01  0.33665227475E+01  0.00000000000E+00 0.  1.
</event>
<event>
 5    1  0.6776507E+001  0.1599503E+01  0.7818608E-02  0.3353903E+00
         11   -1    0    0    0    0  0.00000000000E+00  0.00000000000E+00  0.39999999674E+01  0.40000000000E+01  0.51100000000E-03 0. -1.
    9000002   -1    0    0    0    0 -0.00000000000E+00 -0.00000000000E+00  0.00000000000E+00  0.93800000000E+00  0.93800000000E+00 0.  1.
         11    1    1    2    0    0  0.17231189539E+00 -0.11471597555E+00  0.10412206157E+01  0.10615986888E+01  0.51100000000E-03 0. -1.
    9000002    1    1    2    0    0 -0.56548575677E+00  0.37545621698E+00  0.32764015334E+00  0.12033011186E+01  0.93800000000E+00 0.  1.
         22    1    1    2    0    0  0.39317386138E+00 -0.26074024143E+00  0.26311391983E+01  0.26731001926E+01  0.00000000000E+00 0. -1.
</event>
<event>
 5    1  0.6776507E+001  0.1599677E+01  0.7818608E-02  0.3353714E+00
         11   -1    0    0    0    0  0.00000000000E+00  0.00000000000E+00  0.39999999674E+01  0.40000000000E+01  0.51100000000E-03 0.  1.
    9000002   -1    0    0    0    0 -0.00000000000E+00 -0.00000000000E+00  0.00000000000E+00  0.93800000000E+00  0.93800000000E+00 0.  1.
         11    1    1    2    0    0  0.56306826468E-01 -0.43066735154E-01  0.49167066130E+00  0.49675497248E+00  0.51100000000E-03 0.  1.
    9000002    1    1    2    0    0 -0.43306398228E+00  0.33180562218E+00  0.20540789223E+00  0.11043893271E+01  0.93800000000E+00 0.  1.
         22    1    1    2    0    0  0.37675715581E+00 -0.28873888702E+00  0.33029214138E+01  0.33368557004E+01  0.00000000000E+00 0.  1.
</event>
<event>
 5    1  0.6776507E+001  0.1599677E+01  0.7818608E-02  0.3353714E+00
         11   -1    0    0    0    0  0.00000000000E+00  0.00000000000E+00  0.39999999674E+01  0.40000000000E+01  0.51100000000E-03 0. -1.
    9000002   -1    0    0    0    0 -0.00000000000E+00 -0.00000000000E+00  0.00000000000E+00  0.93800000000E+00  0.93800000000E+00 0. -1.
         11    1    1    2    0    0  0.13083651776E+00 -0.44568005477E-01  0.10263461031E+01  0.10356114551E+01  0.51100000000E-03 0. -1.
    9000002    1    1    2    0    0 -0.48563810176E+00  0.16452360738E+00  0.18037040762E+00  0.10841078670E+01  0.93800000000E+00 0. -1.
         22    1    1    2    0    0  0.35480158400E+00 -0.11995560190E+00  0.27932834567E+01  0.28182806780E+01  0.00000000000E+00 0.  1.
</event>
<event>
 5    1  0.6776507E+001  0.1576787E+01  0.7818608E-02  0.3378950E+00
         11   -1    0    0    0    0  0.00000000000E+00  0.00000000000E+00  0.39999999674E+01  0.40000000000E+01  0.51100000000E-03 0. -1.
    9000002   -1    0    0    0    0 -0.00000000000E+00 -0.00000000000E+00  0.00000000000E+00  0.93800000000E+00  0.93800000000E+00 0.  1.
         11    1    1    2    0    0  0.25722216610E+00  0.20868571600E+00  0.10572716725E+01  0.11079425172E+01  0.51100000000E-03 0. -1.
    9000002    1    1    2    0    0 -0.50110676527E+00 -0.30969594065E+00  0.26440852570E+00  0.11387604815E+01  0.93800000000E+00 0.  1.
         22    1    1    2    0    0  0.24388459917E+00  0.10101022465E+00  0.26783197692E+01  0.26912970013E+01  0.00000000000E+00 0. -1.
</event>
<event>
 5    1  0.6776507E+001  0.1599665E+01  0.7818608E-02  0.3353727E+00
         11   -1    0    0    0    0  0.00000000000E+00  0.00000000000E+00  0.39999999674E+01  0.40000000000E+01  0.51100000000E-03 0.  1.
    9000002   -1    0    0    0    0 -0.00000000000E+00 -0.00000000000E+00  0.00000000000E+00  0.93800000000E+00  0.93800000000E+00 0.  1.
         11    1    1    2    0    0 -0.12455451824E+00 -0.64963511099E-01  0.11843763303E+01  0.11926783467E+01  0.51100000000E-03 0.  1.
    9000002    1    1    2    0    0  0.40265723187E+00  0.22355634444E+00  0.14429981405E+00  0.10548823261E+01  0.93800000000E+00 0.  1.
         22    1    1    2    0    0 -0.27810271363E+00 -0.15859283334E+00  0.26713238230E+01  0.26904393273E+01  0.00000000000E+00 0.  1.
</event>
<event>
 5    1  0.6776507E+001  0.1569793E+01  0.7818608E-02  0.3386816E+00
         11   -1    0    0    0    0  0.00000000000E+00  0.00000000000E+00  0.39999999674E+01  0.40000000000E+01  0.51100000000E-03 0.  1.
    9000002   -1    0    0    0    0 -0.00000000000E+00 -0.00000000000E+00  0.00000000000E+00  0.93800000000E+00  0.93800000000E+00 0.  1.
         11    1    1    2    0    0 -0.21731670650E+00  0.17370198728E+00  0.80723617271E+00  0.85383220304E+00  0.51100000000E-03 0.  1.
    9000002    1    1    2    0    0  0.87549965231E+00  0.17376840893E-01  0.62654681300E+00  0.14280078798E+01  0.93800000000E+00 0.  1.
         22    1    1    2    0    0 -0.65818294581E+00 -0.19107882818E+00  0.25662169817E+01  0.26561599172E+01  0.00000000000E+00 0.  1.
</event>
<event>
 5    1  0.6776507E+001  0.1599658E+01  0.7818608E-02  0.3353735E+00
         11   -1    0    0    0    0  0.00000000000E+00  0.00000000000E+00  0.39999999674E+01  0.40000000000E+01  0.51100000000E-03 0.  1.
    9000002   -1    0    0    0    0 -0.00000000000E+00 -0.00000000000E+00  0.00000000000E+00  0.93800000000E+00  0.93800000000E+00 0.  1.
         11    1    1    2    0    0 -0.36303552259E-01  0.45150102876E-01  0.38332887194E+00  0.38768255685E+00  0.51100000000E-03 0.  1.
    9000002    1    1    2    0    0  0.32949522903E+00 -0.45783797508E+00  0.22038564525E+00  0.11165108822E+01  0.93800000000E+00 0.  1.
         22    1    1    2    0    0 -0.29319167677E+00  0.41268787221E+00  0.33962854502E+01  0.34338065610E+01  0.00000000000E+00 0.  1.
</event>
<event>
 5    1  0.6776507E+001  0.1552491E+01  0.7818608E-02  0.3406599E+00
         11   -1    0    0    0    0  0.00000000000E+00  0.00000000000E+00  0.39999999674E+01  0.40000000000E+01  0.51100000000E-03 0.  1.
    9000002   -1    0    0    0    0 -0.00000000000E+00 -0.00000000000E+00  0.00000000000E+00  0.93800000000E+00  0.93800000000E+00 0. -1.
         11    1    1    2    0    0  0.16633598364E+00  0.10350931186E+00  0.92612036691E+00  0.94661556729E+00  0.51100000000E-03 0.  1.
    9000002    1    1    2    0    0  0.20091614920E+00 -0.17987230391E+00  0.85696348975E-01  0.97974956441E+00  0.93800000000E+00 0. -1.
         22    1    1    2    0    0 -0.36725213284E+00  0.76362992053E-01  0.29881832515E+01  0.30116348683E+01  0.00000000000E+00 0.  1.
</event>
<event>
 5    1  0.6776507E+001  0.1599666E+01  0.7818608E-02  0.3353726E+00
         11   -1    0    0    0    0  0.00000000000E+00  0.00000000000E+00  0.39999999674E+01  0.40000000000E+01  0.51100000000E-03 0.  1.
    9000002   -1    0    0    0    0 -0.00000000000E+00 -0.00000000000E+00  0.00000000000E+00  0.93800000000E+00  0.93800000000E+00 0.  1.
         11    1    1    2    0    0  0.15361636857E-01  0.79211288970E-01  0.72859831193E+00  0.73305263757E+00  0.51100000000E-03 0.  1.
    9000002    1    1    2    0    0 -0.68318555847E-01 -0.41210217213E+00  0.11798535039E+00  0.10335667217E+01  0.93800000000E+00 0.  1.
         22    1    1    2    0    0  0.52956918990E-01  0.33289088316E+00  0.31534163050E+01  0.31713806407E+01  0.00000000000E+00 0.  1.
</event>
<event>
 5    1  0.6776507E+001  0.1599011E+01  0.7818608E-02  0.3354438E+00
         11   -1    0    0    0    0  0.00000000000E+00  0.00000000000E+00  0.39999999674E+01  0.40000000000E+01  0.51100000000E-03 0.  1.
    9000002   -1    0    0    0    0 -0.00000000000E+00 -0.00000000000E+00  0.00000000000E+00  0.93800000000E+00  0.93800000000E+00 0.  1.
         11    1    1    2    0    0  0.42357749238E-01  0.36547819020E-02  0.65177555813E+00  0.65316091099E+00  0.51100000000E-03 0.  1.
    9000002    1    1    2    0    0 -0.32784977982E+00  0.96609130049E-01  0.78792146877E-01  0.10014344734E+01  0.93800000000E+00 0.  1.
         22    1    1    2    0    0  0.28549203059E+00 -0.10026391195E+00  0.32694322624E+01  0.32834046156E+01  0.00000000000E+00 0.  1.
</event>
<event>
 5    1  0.6776507E+001  0.1599547E+01  0.7818608E-02  0.3353855E+00
         11   -1    0    0    0    0  0.00000000000E+00  0.00000000000E+00  0.39999999674E+01  0.40000000000E+01  0.51100000000E-03 0. -1.
    9000002   -1    0    0    0    0 -0.00000000000E+00 -0.00000000000E+00  0.00000000000E+00  0.93800000000E+00  0.93800000000E+00 0. -1.
         11    1    1    2    0    0  0.29780400252E-02 -0.69930277597E-02  0.44597333272E-01  0.45243280336E-01  0.51100000000E-03 0. -1.
    9000002    1    1    2    0    0 -0.21335060465E+00  0.35959302874E+00  0.11831504354E+00  0.10337640332E+01  0.93800000000E+00 0. -1.
         22    1    1    2    0    0  0.21037256462E+00 -0.35260000098E+00  0.38370875905E+01  0.38589926865E+01  0.00000000000E+00 0. -1.
</event>
<event>
 5    1  0.6776507E+001  0.1599657E+01  0.7818608E-02  0.3353735E+00
         11   -1    0    0    0    0  0.00000000000E+00  0.00000000000E+00  0.39999999674E+01  0.40000000000E+01  0.51100000000E-03 0.  1.
    9000002   -1    0    0    0    0 -0.00000000000E+00 -0.00000000000E+00  0.00000000000E+00  0.93800000000E+00  0.93800000000E+00 0. -1.
         11    1    1    2    0    0  0.36740658700E-02 -0.36847949067E-01  0.36666321125E+00  0.36852875290E+00  0.51100000000E-03 0.  1.
    9000002    1    1    2    0    0 -0.57451898912E-01  0.36540705477E+00  0.91965218394E-01  0.10124843889E+01  0.93800000000E+00 0. -1.
         22    1    1    2    0    0  0.53777833042E-01 -0.32855910571E+00  0.35413715377E+01  0.35569868582E+01  0.00000000000E+00 0.  1.
</event>
<event>
 5    1  0.6776507E+001  0.1599639E+01  0.7818608E-02  0.3353755E+00
         11   -1    0    0    0    0  0.00000000000E+00  0.00000000000E+00  0.39999999674E+01  0.40000000000E+01  0.51100000000E-03 0.  1.
    9000002   -1    0    0    0    0 -0.00000000000E+00 -0.00000000000E+00  0.00000000000E+00  0.93800000000E+00  0.93800000000E+00 0. -1.
         11    1    1    2    0    0 -0.13548677454E+00  0.10632986557E+00  0.14552231619E+01  0.14653796158E+01  0.51100000000E-03 0.  1.
    9000002    1    1    2    0    0  0.34115842088E+00 -0.28613495550E+00  0.13459574367E+00  0.10470063491E+01  0.93800000000E+00 0. -1.
         22    1    1    2    0    0 -0.20567164634E+00  0.17980508993E+00  0.24101810618E+01  0.24256140351E+01  0.00000000000E+00 0. -1.
</event>
<event>
 5    1  0.6776507E+001  0.1559415E+01  0.7818608E-02  0.3398626E+00
         11   -1    0    0    0    0  0.00000000000E+00  0.00000000000E+00  0.39999999674E+01  0.40000000000E+01  0.51100000000E-03 0.  1.
    9000002   -1    0    0    0    0 -0.00000000000E+00 -0.00000000000E+00  0.00000000000E+00  0.93800000000E+00  0.93800000000E+00 0.  1.
         11    1    1    2    0    0 -0.22151921153E+00 -0.22203234900E-01  0.56422381747E+00  0.60655792966E+00  0.51100000000E-03 0.  1.
    9000002    1    1    2    0    0  0.33788986462E+00  0.40649669227E+00  0.23046004251E+00  0.11010744537E+01  0.93800000000E+00 0.  1.
         22    1    1    2    0    0 -0.11637065309E+00 -0.38429345737E+00  0.32053161074E+01  0.32303676166E+01  0.00000000000E+00 0.  1.
</event>
<event>
 5    1  0.6776507E+001  0.1599677E+01  0.7818608E-02  0.3353714E+00
         11   -1    0    0    0    0  0.00000000000E+00  0.00000000000E+00  0.39999999674E+01  0.40000000000E+01  0.51100000000E-03 0.  1.
    9000002   -1    0    0    0    0 -0.00000000000E+00 -0.00000000000E+00  0.00000000000E+00  0.93800000000E+00  0.93800000000E+00 0.  1.
         11    1    1    2    0    0  0.69882107984E-01  0.11104995306E+00  0.14415937240E+01  0.14475525301E+01  0.51100000000E-03 0.  1.
    9000002    1    1    2    0    0 -0.19039698083E+00 -0.30146993290E+00  0.85307800291E-01  0.10071030491E+01  0.93800000000E+00 0.  1.
         22    1    1    2    0    0  0.12051487285E+00  0.19041997984E+00  0.24730984431E+01  0.24833444208E+01  0.00000000000E+00 0.  1.
</event>
<event>
 5    1  0.6776507E+001  0.1596713E+01  0.7818608E-02  0.3356939E+00
         11   -1    0    0    0    0  0.00000000000E+00  0.00000000000E+00  0.39999999674E+01  0.40000000000E+01  0.51100000000E-03 0.  1.
    9000002   -1    0    0    0    0 -0.00000000000E+00 -0.00000000000E+00  0.00000000000E+00  0.93800000000E+00  0.93800000000E+00 0. -1.
         11    1    1    2    0    0 -0.92640763093E-02 -0.28477478263E-01  0.21274388040E+00  0.21484182472E+00  0.51100000000E-03 0.  1.
    9000002    1    1    2    0    0 -0.35332046604E+00  0.36665630718E+00  0.18046011330E+00  0.10824426321E+01  0.93800000000E+00 0. -1.
         22    1    1    2    0    0  0.36258454235E+00 -0.33817882892E+00  0.36067959737E+01  0.36407155432E+01  0.00000000000E+00 0.  1.
</event>
<event>
 5    1  0.6776507E+001  0.1599676E+01  0.7818608E-02  0.3353715E+00
         11   -1    0    0    0    0  0.00000000000E+00  0.00000000000E+00  0.39999999674E+01  0.40000000000E+01  0.51100000000E-03 0. -1.
    9000002   -1    0    0    0    0 -0.00000000000E+00 -0.00000000000E+00  0.00000000000E+00  0.93800000000E+00  0.93800000000E+00 0.  1.
         11    1    1    2    0    0  0.90883313390E-01  0.17089806431E+00  0.11661929854E+01  0.11821473112E+01  0.51100000000E-03 0. -1.
    9000002    1    1    2    0    0 -0.28718536296E+00 -0.54852033947E+00  0.26858603118E+00  0.11555658578E+01  0.93800000000E+00 0.  1.
         22    1    1    2    0    0  0.19630204957E+00  0.37762227515E+00  0.25652209507E+01  0.26002868310E+01  0.00000000000E+00 0. -1.
</event>
<event>
 5    1  0.7157999E+001  0.1599653E+01  0.7818608E-02  0.3353740E+00
         11   -1    0    0    0    0  0.00000000000E+00  0.00000000000E+00  0.39999999674E+01  0.40000000000E+01  0.51100000000E-03 0.  1.
    9000002   -1    0    0    0    0 -0.00000000000E+00 -0.00000000000E+00  0.00000000000E+00  0.93800000000E+00  0.93800000000E+00 0. -1.
         11    1    1    2    0    0  0.35886657463E-01  0.78963769469E-01  0.10224290882E+01  0.10261016668E+01  0.51100000000E-03 0.  1.
    9000002    1    1    2    0    0 -0.15093152633E+00 -0.31696488500E+00  0.82667160251E-01  0.10049502094E+01  0.93800000000E+00 0. -1.
         22    1    1    2    0    0  0.11504486887E+00  0.23800111553E+00  0.28949037189E+01  0.29069481238E+01  0.00000000000E+00 0.  1.
</event>
<event>
 5    1  0.6776507E+001  0.1599672E+01  0.7818608E-02  0.3353720E+00
         11   -1    0    0    0    0  0.00000000000E+00  0.00000000000E+00  0.39999999674E+01  0.40000000000E+01  0.51100000000E-03 0.  1.
    9000002   -1    0    0    0    0 -0.00000000000E+00 -0.00000000000E+00  0.00000000000E+00  0.93800000000E+00  0.93800000000E+00 0.  1.
         11    1    1    2    0    0 -0.20291730824E+00 -0.10500757538E-01  0.12924364182E+01  0.13083110701E+01  0.51100000000E-03 0.  1.
    9000002    1    1    2    0    0  0.59607855865E+00  0.33431560850E-01  0.24852604816E+00  0.11393140541E+01  0.93800000000E+00 0.  1.
         22    1    1    2    0    0 -0.39316125042E+00 -0.22930803312E-01  0.24590375010E+01  0.24903748757E+01  0.00000000000E+00 0.  1.
</event>
<event>
 5    1  0.6776507E+001  0.1599671E+01  0.7818608E-02  0.3353720E+00
         11   -1    0    0    0    0  0.00000000000E+00  0.00000000000E+00  0.39999999674E+01  0.40000000000E+01  0.51100000000E-03 0. -1.
    9000002   -1    0    0    0    0 -0.00000000000E+00 -0.00000000000E+00  0.00000000000E+00  0.93800000000E+00  0.93800000000E+00 0. -1.
         11    1    1    2    0    0  0.20766310775E-01  0.60068773970E-02  0.20119169699E+00  0.20235039485E+00  0.51100000000E-03 0. -1.
    9000002    1    1    2    0    0 -0.40019709231E+00 -0.13923073146E+00  0.12149247176E+00  0.10364107921E+01  0.93800000000E+00 0. -1.
         22    1    1    2    0    0  0.37943078153E+00  0.13322385406E+00  0.36773157986E+01  0.36992388131E+01  0.00000000000E+00 0. -1.
</event>
<event>
 5    1  0.6776507E+001  0.1594700E+01  0.7818608E-02  0.3359136E+00
         11   -1    0    0    0    0  0.00000000000E+00  0.00000000000E+00  0.39999999674E+01  0.40000000000E+01  0.51100000000E-03 0. -1.
    9000002   -1    0    0    0    0 -0.00000000000E+00 -0.00000000000E+00  0.00000000000E+00  0.93800000000E+00  0.93800000000E+00 0.  1.
         11    1    1    2    0    0 -0.15292189199E+00 -0.17058848783E+00  0.10581052165E+01  0.10826229480E+01  0.51100000000E-03 0. -1.
    9000002    1    1    2    0    0  0.32657329452E+00  0.44411292884E+00  0.21466350774E+00  0.11089683638E+01  0.93800000000E+00 0.  1.
         22    1    1    2    0    0 -0.17365140252E+00 -0.27352444101E+00  0.27272312431E+01  0.27464086882E+01  0.00000000000E+00 0. -1.
</event>
<event>
 5    1  0.6776507E+001  0.1599673E+01  0.7818608E-02  0.3353718E+00
         11   -1    0    0    0    0  0.00000000000E+00  0.00000000000E+00  0.39999999674E+01  0.40000000000E+01  0.51100000000E-03 0.  1.
    9000002   -1    0    0    0    0 -0.00000000000E+00 -0.00000000000E+00  0.00000000000E+00  0.93800000000E+00  0.93800000000E+00 0. -1.
         11    1    1    2    0    0  0.15014818874E-01 -0.28448527211E-01  0.12190434967E+00  0.12607813084E+00  0.51100000000E-03 0.  1.
    9000002    1    1    2    0    0 -0.42148182587E+00  0.80577559340E+00  0.63554905460E+00  0.14528206487E+01  0.93800000000E+00 0. -1.
         22    1    1    2    0    0  0.40646700699E+00 -0.77732706618E+00  0.32425465631E+01  0.33591012205E+01  0.00000000000E+00 0.  1.
</event>
<event>
 5    1  0.6776507E+001  0.1599650E+01  0.7818608E-02  0.3353743E+00
         11   -1    0    0    0    0  0.00000000000E+00  0.00000000000E+00  0.39999999674E+01  0.40000000000E+01  0.51100000000E-03 0.  1.
    9000002   -1    0    0    0    0 -0.00000000000E+00 -0.00000000000E+00  0.00000000000E+00  0.93800000000E+00  0.93800000000E+00 0.  1.
         11    1    1    2    0    0 -0.83292050206E-01  0.14321063488E-01  0.74396355622E+00  0.74874875131E+00  0.51100000000E-03 0.  1.
    9000002    1    1    2    0    0  0.40907469247E+00 -0.74700369597E-01  0.11690488902E+00  0.10326824305E+01  0.93800000000E+00 0.  1.
         22    1    1    2    0    0 -0.32578264227E+00  0.60379306109E-01  0.31391315221E+01  0.31565688182E+01  0.00000000000E+00 0.  1.
</event>
<event>
 5    1  0.6903470E+001  0.1599667E+01  0.7818608E-02  0.3353725E+00
         11   -1    0    0    0    0  0.00000000000E+00  0.00000000000E+00  0.39999999674E+01  0.40000000000E+01  0.51100000000E-03 0. -1.
    9000002   -1    0    0    0    0 -0.00000000000E+00 -0.00000000000E+00  0.00000000000E+00  0.93800000000E+00  0.93800000000E+00 0. -1.
         11    1    1    2    0    0  0.10075578838E-01  0.12405451031E+00  0.13875230818E+01  0.13930942546E+01  0.51100000000E-03 0. -1.
    9000002    1    1    2    0    0 -0.34204243033E-01 -0.35847703993E+00  0.87055694651E-01  0.10085129708E+01  0.93800000000E+00 0. -1.
         22    1    1    2    0    0  0.24128664195E-01  0.23442252962E+00  0.25254211910E+01  0.25363927745E+01  0.00000000000E+00 0. -1.
</event>
<event>
 5    1  0.6776507E+001  0.1599634E+01  0.7818608E-02  0.3353760E+00
         11   -1    0    0    0    0  0.00000000000E+00  0.00000000000E+00  0.39999999674E+01  0.40000000000E+01  0.51100000000E-03 0. -1.
    9000002   -1    0    0    0    0 -0.00000000000E+00 -0.00000000000E+00  0.00000000000E+00  0.93800000000E+00  0.93800000000E+00 0.  1.
         11    1    1    2    0    0  0.96496816924E-03  0.29185263240E-01  0.20359886940E+00  0.20568293924E+00  0.51100000000E-03 0. -1.
    9000002    1    1    2    0    0  0.47530270319E-01 -0.54596710250E+00  0.20740756282E+00  0.11059842226E+01  0.93800000000E+00 0.  1.
         22    1    1    2    0    0 -0.48495238488E-01  0.51678183926E+00  0.35889935351E+01  0.36263328381E+01  0.00000000000E+00 0. -1.
</event>
<event>
 5    1  0.6776507E+001  0.1598047E+01  0.7818608E-02  0.3355486E+00
         11   -1    0    0    0    0  0.00000000000E+00  0.00000000000E+00  0.39999999674E+01  0.40000000000E+01  0.51100000000E-03 0. -1.
    9000002   -1    0    0    0    0 -0.00000000000E+00 -0.00000000000E+00  0.00000000000E+00  0.93800000000E+00  0.93800000000E+00 0. -1.
         11    1    1    2    0    0 -0.25820658531E-01 -0.14769542071E-02  0.68334674984E+00  0.68383618611E+00  0.51100000000E-03 0. -1.
    9000002    1    1    2    0    0  0.34810621144E+00  0.77302870437E-01  0.86639590055E-01  0.10072259363E+01  0.93800000000E+00 0. -1.
         22    1    1    2    0    0 -0.32228555291E+00 -0.75825916230E-01  0.32300136275E+01  0.32469378776E+01  0.00000000000E+00 0. -1.
</event>
<event>
 5    1  0.6776507E+001  0.1595865E+01  0.7818608E-02  0.3357864E+00
         11   -1    0    0    0    0  0.00000000000E+00  0.00000000000E+00  0.39999999674E+01  0.40000000000E+01  0.51100000000E-03 0. -1.
    9000002   -1    0    0    0    0 -0.00000000000E+00 -0.00000000000E+00  0.00000000000E+00  0.93800000000E+00  0.93800000000E+00 0. -1.
         11    1    1    2    0    0  0.10757904594E+00  0.10176065355E+00  0.88706050894E+00  0.89933591576E+00  0.51100000000E-03 0. -1.
    9000002    1    1    2    0    0 -0.31342652342E+00 -0.64559875732E+00  0.37425720890E+00  0.12389295377E+01  0.93800000000E+00 0. -1.
         22    1    1    2    0    0  0.20584747748E+00  0.54383810377E+00  0.27386822495E+01  0.27997345465E+01  0.00000000000E+00 0. -1.
</event>
<event>
 5    1  0.6776507E+001  0.1528630E+01  0.7818608E-02  0.3434665E+00
         11   -1    0    0    0    0  0.00000000000E+00  0.00000000000E+00  0.39999999674E+01  0.40000000000E+01  0.51100000000E-03 0.  1.
    9000002   -1    0    0    0    0 -0.00000000000E+00 -0.00000000000E+00  0.00000000000E+00  0.93800000000E+00  0.93800000000E+00 0. -1.
         11    1    1    2    0    0  0.14417859313E+00  0.16668944887E+00  0.69829120695E+00  0.73224566226E+00  0.51100000000E-03 0.  1.
    9000002    1    1    2    0    0  0.21886521090E-01  0.17053716497E+00  0.74288082642E-01  0.95651694374E+00  0.93800000000E+00 0. -1.
         22    1    1    2    0    0 -0.16606511422E+00 -0.33722661384E+00  0.32274206778E+01  0.32492373940E+01  0.00000000000E+00 0.  1.
</event>
<event>
 5    1  0.6776507E+001  0.1577097E+01  0.7818608E-02  0.3378603E+00
         11   -1    0    0    0    0  0.00000000000E+00  0.00000000000E+00  0.39999999674E+01  0.40000000000E+01  0.51100000000E-03 0. -1.
    9000002   -1    0    0    0    0 -0.00000000000E+00 -0.00000000000E+00  0.00000000000E+00  0.93800000000E+00  0.93800000000E+00 0. -1.
         11    1    1    2    0    0  0.54338004352E-01 -0.10405159462E+00  0.14628718576E+01  0.14675740819E+01  0.51100000000E-03 0. -1.
    9000002    1    1    2    0    0  0.26986473360E+00  0.46976789276E+00  0.22387287104E+00  0.11061066449E+01  0.93800000000E+00 0. -1.
         22    1    1    2    0    0 -0.32420273795E+00 -0.36571629815E+00  0.23132552387E+01  0.23643192732E+01  0.00000000000E+00 0. -1.
</event>
<event>
 5    1  0.6776507E+001  0.1599677E+01  0.7818608E-02  0.3353714E+00
         11   -1    0    0    0    0  0.00000000000E+00  0.00000000000E+00  0.39999999674E+01  0.40000000000E+01  0.51100000000E-03 0. -1.
    9000002   -1    0    0    0    0 -0.00000000000E+00 -0.00000000000E+00  0.00000000000E+00  0.93800000000E+00  0.93800000000E+00 0.  1.
         11    1    1    2    0    0 -0.10120994383E+00 -0.46138954935E-02  0.94654712803E+00  0.95195402592E+00  0.51100000000E-03 0.  1.
    9000002    1    1    2    0    0  0.41579096679E+00  0.19714650439E-01  0.11712465287E+00  0.10328760719E+01  0.93800000000E+00 0.  1.
         22    1    1    2    0    0 -0.31458102297E+00 -0.15100754945E-01  0.29363281865E+01  0.29531699022E+01  0.00000000000E+00 0. -1.
</event>
<event>
 5    1  0.6776507E+001  0.1599534E+01  0.7818608E-02  0.3353869E+00
         11   -1    0    0    0    0  0.00000000000E+00  0.00000000000E+00  0.39999999674E+01  0.40000000000E+01  0.51100000000E-03 0.  1.
    9000002   -1    0    0    0    0 -0.00000000000E+00 -0.00000000000E+00  0.00000000000E+00  0.93800000000E+00  0.93800000000E+00 0. -1.
         11    1    1    2    0    0 -0.45268349273E-01  0.22601127703E-01  0.69548034467E+00  0.69731858240E+00  0.51100000000E-03 0.  1.
    9000002    1    1    2    0    0  0.31693376561E+00 -0.13441529595E+00  0.79530179897E-01  0.10023390310E+01  0.93800000000E+00 0. -1.
         22    1    1    2    0    0 -0.27166541634E+00  0.11181416824E+00  0.32249894428E+01  0.32383423866E+01  0.00000000000E+00 0.  1.
</event>
<event>
 5    1  0.6776507E+001  0.1597593E+01  0.7818608E-02  0.3355980E+00
         11   -1    0    0    0    0  0.00000000000E+00  0.00000000000E+00  0.39999999674E+01  0.40000000000E+01  0.51100000000E-03 0. -1.
    9000002   -1    0    0    0    0 -0.00000000000E+00 -0.00000000000E+00  0.00000000000E+00  0.93800000000E+00  0.93800000000E+00 0.  1.
         11    1    1    2    0    0 -0.87091152918E-01  0.32907328863E-01  0.97197374660E+00  0.97642254502E+00  0.51100000000E-03 0. -1.
    9000002    1    1    2    0    0  0.30163048501E+00 -0.31540457670E+00  0.13088668888E+00  0.10428021489E+01  0.93800000000E+00 0.  1.
         22    1    1    2    0    0 -0.21453933209E+00  0.28249724784E+00  0.28971395319E+01  0.29187753061E+01  0.00000000000E+00 0. -1.
</event>
<event>
 5    1  0.6776507E+001  0.1599048E+01  0.7818608E-02  0.3354398E+00
         11   -1    0    0    0    0  0.00000000000E+00  0.00000000000E+00  0.39999999674E+01  0.40000000000E+01  0.51100000000E-03 0. -1.
    9000002   -1    0    0    0    0 -0.00000000000E+00 -0.00000000000E+00  0.00000000000E+00  0.93800000000E+00  0.93800000000E+00 0. -1.
         11    1    1    2    0    0 -0.14968971587E-01 -0.20870296483E-01  0.40522975504E+00  0.40604316874E+00  0.51100000000E-03 0. -1.
    9000002    1    1    2    0    0  0.31559911207E+00  0.24493312025E+00  0.10816654456E+00  0.10252507178E+01  0.93800000000E+00 0. -1.
         22    1    1    2    0    0 -0.30063014048E+00 -0.22406282376E+00  0.34866036678E+01  0.35067061135E+01  0.00000000000E+00 0. -1.
</event>
<event>
 5    1  0.6776507E+001  0.1599469E+01  0.7818608E-02  0.3353940E+00
         11   -1    0    0    0    0  0.00000000000E+00  0.00000000000E+00  0.39999999674E+01  0.40000000000E+01  0.51100000000E-03 0.  1.
    9000002   -1    0    0    0    0 -0.00000000000E+00 -0.00000000000E+00  0.00000000000E+00  0.93800000000E+00  0.93800000000E+00 0.  1.
         11    1    1    2    0    0  0.95166299144E-02  0.11113959297E+00  0.10281963329E+01  0.10342294404E+01  0.51100000000E-03 0.  1.
    9000002    1    1    2    0    0  0.10045252352E-01 -0.38606332901E+00  0.10059907235E+00  0.10193674384E+01  0.93800000000E+00 0.  1.
         22    1    1    2    0    0 -0.19561882266E-01  0.27492373604E+00  0.28712045621E+01  0.28844031212E+01  0.00000000000E+00 0.  1.
</event>
<event>
 5    1  0.6776507E+001  0.1525138E+01  0.7818608E-02  0.3438851E+00
         11   -1    0    0    0    0  0.00000000000E+00  0.00000000000E+00  0.39999999674E+01  0.40000000000E+01  0.51100000000E-03 0.  1.
    9000002   -1    0    0    0    0 -0.00000000000E+00 -0.00000000000E+00  0.00000000000E+00  0.93800000000E+00  0.93800000000E+00 0. -1.
         11    1    1    2    0    0 -0.99072347785E-01  0.42047819033E-01  0.45814582970E-01  0.11697258788E+00  0.51100000000E-03 0.  1.
    9000002    1    1    2    0    0  0.52983202447E+00 -0.17263942530E+00  0.28949169170E+00  0.11287939515E+01  0.93800000000E+00 0. -1.
         22    1    1    2    0    0 -0.43075967668E+00  0.13059160627E+00  0.36646936927E+01  0.36922334607E+01  0.00000000000E+00 0.  1.
</event>
<event>
 5    1  0.6776507E+001  0.1585776E+01  0.7818608E-02  0.3368948E+00
         11   -1    0    0    0    0  0.00000000000E+00  0.00000000000E+00  0.39999999674E+01  0.40000000000E+01  0.51100000000E-03 0. -1.
    9000002   -1    0    0    0    0 -0.00000000000E+00 -0.00000000000E+00  0.00000000000E+00  0.93800000000E+00  0.93800000000E+00 0.  1.
         11    1    1    2    0    0 -0.10582530589E+00 -0.23494420525E+00  0.10872574266E+01  0.11173749361E+01  0.51100000000E-03 0. -1.
    9000002    1    1    2    0    0 -0.93218991987E-02  0.56876332395E+00  0.23781169235E+00  0.11224869788E+01  0.93800000000E+00 0.  1.
         22    1    1    2    0    0  0.11514720509E+00 -0.33381911869E+00  0.26749308484E+01  0.26981380852E+01  0.00000000000E+00 0. -1.
</event>
<event>
 5    1  0.6776507E+001  0.1597727E+01  0.7818608E-02  0.3355834E+00
         11   -1    0    0    0    0  0.00000000000E+00  0.00000000000E+00  0.39999999674E+01  0.40000000000E+01  0.51100000000E-03 0. -1.
    9000002   -1    0    0    0    0 -0.00000000000E+00 -0.00000000000E+00  0.00000000000E+00  0.93800000000E+00  0.93800000000E+00 0. -1.
         11    1    1    2    0    0  0.67750876698E-01  0.90345573587E-02  0.57235980370E+00  0.57642676077E+00  0.51100000000E-03 0. -1.
    9000002    1    1    2    0    0 -0.39967980999E+00  0.18722185496E+00  0.13381050016E+00  0.10452488811E+01  0.93800000000E+00 0. -1.
         22    1    1    2    0    0  0.33192893329E+00 -0.19625641232E+00  0.32938296635E+01  0.33163243581E+01  0.00000000000E+00 0. -1.
</event>
<event>
 5    1  0.6776507E+001  0.1597681E+01  0.7818608E-02  0.3355884E+00
         11   -1    0    0    0    0  0.00000000000E+00  0.00000000000E+00  0.39999999674E+01  0.40000000000E+01  0.51100000000E-03 0. -1.
    9000002   -1    0    0    0    0 -0.00000000000E+00 -0.00000000000E+00  0.00000000000E+00  0.93800000000E+00  0.93800000000E+00 0. -1.
         11    1    1    2    0    0  0.42721266428E-01  0.17066530250E-01  0.70489994037E+00  0.70639971696E+00  0.51100000000E-03 0. -1.
    9000002    1    1    2    0    0 -0.16505110495E+00 -0.31269790086E+00  0.85473908863E-01  0.10060674100E+01  0.93800000000E+00 0. -1.
         22    1    1    2    0    0  0.12232983853E+00  0.29563137061E+00  0.32096261181E+01  0.32255328730E+01  0.00000000000E+00 0. -1.
</event>
<event>
 5    1  0.6776507E+001  0.1599676E+01  0.7818608E-02  0.3353715E+00
         11   -1    0    0    0    0  0.00000000000E+00  0.00000000000E+00  0.39999999674E+01  0.40000000000E+01  0.51100000000E-03 0. -1.
    9000002   -1    0    0    0    0 -0.00000000000E+00 -0.00000000000E+00  0.00000000000E+00  0.93800000000E+00  0.93800000000E+00 0.  1.
         11    1    1    2    0    0 -0.66997100289E-01  0.43946643361E-01  0.86220849322E+00  0.86592359121E+00  0.51100000000E-03 0. -1.
    9000002    1    1    2    0    0  0.30196499630E+00 -0.19595868733E+00  0.86984412654E-01  0.10084606855E+01  0.93800000000E+00 0.  1.
         22    1    1    2    0    0 -0.23496789601E+00  0.15201204397E+00  0.30508070615E+01  0.30636157233E+01  0.00000000000E+00 0. -1.
</event>
<event>
 5    1  0.6776507E+001  0.1598871E+01  0.7818608E-02  0.3354590E+00
         11   -1    0    0    0    0  0.00000000000E+00  0.00000000000E+00  0.39999999674E+01  0.40000000000E+01  0.51100000000E-03 0.  1.
    9000002   -1    0    0    0    0 -0.00000000000E+00 -0.00000000000E+00  0.00000000000E+00  0.93800000000E+00  0.93800000000E+00 0. -1.
         11    1    1    2    0    0 -0.94936236867E-01  0.81094441432E-01  0.80527503683E+00  0.81489713680E+00  0.51100000000E-03 0.  1.
    9000002    1    1    2    0    0  0.33261428384E+00 -0.33077160735E+00  0.15058839831E+00  0.10595107285E+01  0.93800000000E+00 0. -1.
         22    1    1    2    0    0 -0.23767804697E+00  0.24967716592E+00  0.30441365322E+01  0.30635921347E+01  0.00000000000E+00 0.  1.
</event>
<event>
 5    1  0.6776507E+001  0.1599677E+01  0.7818608E-02  0.3353714E+00
         11   -1    0    0    0    0  0.00000000000E+00  0.00000000000E+00  0.39999999674E+01  0.40000000000E+01  0.51100000000E-03 0. -1.
    9000002   -1    0    0    0    0 -0.00000000000E+00 -0.00000000000E+00  0.00000000000E+00  0.93800000000E+00  0.93800000000E+00 0.  1.
         11    1    1    2    0    0 -0.13661050744E+00  0.10013837899E+00  0.13016594353E+01  0.13126338683E+01  0.51100000000E-03 0. -1.
    9000002    1    1    2    0    0  0.40134034791E+00 -0.29512500081E+00  0.16983621260E+00  0.10755748138E+01  0.93800000000E+00 0.  1.
         22    1    1    2    0    0 -0.26472984047E+00  0.19498662182E+00  0.25285043195E+01  0.25497913179E+01  0.00000000000E+00 0. -1.
</event>
<event>
 5    1  0.6776507E+001  0.1599478E+01  0.7818608E-02  0.3353931E+00
         11   -1    0    0    0    0  0.00000000000E+00  0.00000000000E+00  0.39999999674E+01  0.40000000000E+01  0.51100000000E-03 0. -1.
    9000002   -1    0    0    0    0 -0.00000000000E+00 -0.00000000000E+00  0.00000000000E+00  0.93800000000E+00  0.93800000000E+00 0. -1.
         11    1    1    2    0    0 -0.66549987839E-02 -0.32666526524E-01  0.31994386348E+00  0.32167643350E+00  0.51100000000E-03 0. -1.
    9000002    1    1    2    0    0  0.18178210569E+00  0.44156891855E+00  0.15570251376E+00  0.10640089833E+01  0.93800000000E+00 0. -1.
         22    1    1    2    0    0 -0.17512710690E+00 -0.40890239203E+00  0.35243535901E+01  0.35523145832E+01  0.00000000000E+00 0. -1.
</event>
<event>
 5    1  0.6776507E+001  0.1599675E+01  0.7818608E-02  0.3353716E+00
         11   -1    0    0    0    0  0.00000000000E+00  0.00000000000E+00  0.39999999674E+01  0.40000000000E+01  0.51100000000E-03 0.  1.
    9000002   -1    0    0    0    0 -0.00000000000E+00 -0.00000000000E+00  0.00000000000E+00  0.93800000000E+00  0.93800000000E+00 0. -1.
         11    1    1    2    0    0 -0.34410498666E-01  0.13278093858E+00  0.13861398030E+01  0.13929101460E+01  0.51100000000E-03 0.  1.
    9000002    1    1    2    0    0  0.92585189998E-01 -0.37432570792E+00  0.10011570587E+00  0.10190971041E+01  0.93800000000E+00 0. -1.
         22    1    1    2    0    0 -0.58174691333E-01  0.24154476934E+00  0.25137444585E+01  0.25259927499E+01  0.00000000000E+00 0.  1.
</event>
<event>
 5    1  0.6776507E+001  0.1599672E+01  0.7818608E-02  0.3353719E+00
         11   -1    0    0    0    0  0.00000000000E+00  0.00000000000E+00  0.39999999674E+01  0.40000000000E+01  0.51100000000E-03 0.  1.
    9000002   -1    0    0    0    0 -0.00000000000E+00 -0.00000000000E+00  0.00000000000E+00  0.93800000000E+00  0.93800000000E+00 0.  1.
         11    1    1    2    0    0 -0.32022645852E-01  0.21492809120E-01  0.40151226419E+00  0.40336057084E+00  0.51100000000E-03 0.  1.
    9000002    1    1    2    0    0  0.32572015106E+00 -0.20977204140E+00  0.10108753503E+00  0.10198826481E+01  0.93800000000E+00 0.  1.
         22    1    1    2    0    0 -0.29369750521E+00  0.18827923228E+00  0.34974001681E+01  0.35147567811E+01  0.00000000000E+00 0.  1.
</event>
<event>
 5    1  0.6776507E+001  0.1596995E+01  0.7818608E-02  0.3356631E+00
         11   -1    0    0    0    0  0.00000000000E+00  0.00000000000E+00  0.39999999674E+01  0.40000000000E+01  0.51100000000E-03 0. -1.
    9000002   -1    0    0    0    0 -0.00000000000E+00 -0.00000000000E+00  0.00000000000E+00  0.93800000000E+00  0.93800000000E+00 0.  1.
         11    1    1    2    0    0  0.39168857391E-01 -0.23813080845E-01  0.61232650339E+00  0.61404012090E+00  0.51100000000E-03 0. -1.
    9000002    1    1    2    0    0 -0.37902494865E-01  0.34880221519E+00  0.84710685371E-01  0.10050470062E+01  0.93800000000E+00 0.  1.
         22    1    1    2    0    0 -0.12663625263E-02 -0.32498913434E+00  0.33029627786E+01  0.33189128729E+01  0.00000000000E+00 0. -1.
</event>
<event>
 5    1  0.6776507E+001  0.1551857E+01  0.7818608E-02  0.3407333E+00
         11   -1    0    0    0    0  0.00000000000E+00  0.00000000000E+00  0.39999999674E+01  0.40000000000E+01  0.51100000000E-03 0.  1.
    9000002   -1    0    0    0    0 -0.00000000000E+00 -0.00000000000E+00  0.00000000000E+00  0.93800000000E+00  0.93800000000E+00 0.  1.
         11    1    1    2    0    0 -0.50939293618E-01  0.19876848560E+00  0.95990027386E+00  0.98158673553E+00  0.51100000000E-03 0.  1.
    9000002    1    1    2    0    0  0.64578753507E+00  0.42769612501E-03  0.34595253367E+00  0.11901969916E+01  0.93800000000E+00 0.  1.
         22    1    1    2    0    0 -0.59484824145E+00 -0.19919618173E+00  0.26941471598E+01  0.27662162728E+01  0.00000000000E+00 0.  1.
</event>
<event>
 5    1  0.6776507E+001  0.1599615E+01  0.7818608E-02  0.3353782E+00
         11   -1    0    0    0    0  0.00000000000E+00  0.00000000000E+00  0.39999999674E+01  0.40000000000E+01  0.51100000000E-03 0.  1.
    9000002   -1    0    0    0    0 -0.00000000000E+00 -0.00000000000E+00  0.00000000000E+00  0.93800000000E+00  0.93800000000E+00 0. -1.
         11    1    1    2    0    0  0.51553621688E-02  0.81443181010E-02  0.14068533989E+00  0.14101607588E+00  0.51100000000E-03 0.  1.
    9000002    1    1    2    0    0 -0.23495878681E+00 -0.26148574331E+00  0.82926335143E-01  0.10051374048E+01  0.93800000000E+00 0. -1.
         22    1    1    2    0    0  0.22980342464E+00  0.25334142520E+00  0.37763882923E+01  0.37918465193E+01  0.00000000000E+00 0.  1.
</event>
<event>
 5    1  0.6776507E+001  0.1528024E+01  0.7818608E-02  0.3435391E+00
         11   -1    0    0    0    0  0.00000000000E+00  0.00000000000E+00  0.39999999674E+01  0.40000000000E+01  0.51100000000E-03 0.  1.
    9000002   -1    0    0    0    0 -0.00000000000E+00 -0.00000000000E+00  0.00000000000E+00  0.93800000000E+00  0.93800000000E+00 0. -1.
         11    1    1    2    0    0  0.91730311341E-01 -0.13402159739E+00  0.36369544845E+00  0.39831002866E+00  0.51100000000E-03 0.  1.
    9000002    1    1    2    0    0  0.13691541085E+00 -0.26081580606E+00  0.11605080905E+00  0.98999116395E+00  0.93800000000E+00 0. -1.
         22    1    1    2    0    0 -0.22864572219E+00  0.39483740345E+00  0.35202537099E+01  0.35496988074E+01  0.00000000000E+00 0.  1.
</event>
<event>
 5    1  0.6776507E+001  0.1599677E+01  0.7818608E-02  0.3353714E+00
         11   -1    0    0    0    0  0.00000000000E+00  0.00000000000E+00  0.39999999674E+01  0.40000000000E+01  0.51100000000E-03 0.  1.
    9000002   -1    0    0    0    0 -0.00000000000E+00 -0.00000000000E+00  0.00000000000E+00  0.93800000000E+00  0.93800000000E+00 0.  1.
         11    1    1    2    0    0 -0.13025698497E+00  0.64775857365E-01  0.13526993542E+01  0.13604993928E+01  0.51100000000E-03 0.  1.
    9000002    1    1    2    0    0  0.37571203728E+00 -0.18580549205E+00  0.11880187025E+00  0.10342345480E+01  0.93800000000E+00 0.  1.
         22    1    1    2    0    0 -0.24545505232E+00  0.12102963468E+00  0.25284987429E+01  0.25432660592E+01  0.00000000000E+00 0.  1.
</event>
<event>
 5    1  0.6776507E+001  0.1599630E+01  0.7818608E-02  0.3353765E+00
         11   -1    0    0    0    0  0.00000000000E+00  0.00000000000E+00  0.39999999674E+01  0.40000000000E+01  0.51100000000E-03 0.  1.
    9000002   -1    0    0    0    0 -0.00000000000E+00 -0.00000000000E+00  0.00000000000E+00  0.93800000000E+00  0.93800000000E+00 0. -1.
         11    1    1    2    0    0  0.72462427738E-01 -0.12186904798E+00  0.11264103089E+01  0.11352987771E+01  0.51100000000E-03 0.  1.
    9000002    1    1    2    0    0 -0.27099454317E+00  0.42088511909E+00  0.17159659397E+00  0.10769734059E+01  0.93800000000E+00 0. -1.
         22    1    1    2    0    0  0.19853211543E+00 -0.29901607111E+00  0.27019930645E+01  0.27257278170E+01  0.00000000000E+00 0.  1.
</event>
<event>
 5    1  0.6776507E+001  0.1599414E+01  0.7818608E-02  0.3353999E+00
         11   -1    0    0    0    0  0.00000000000E+00  0.00000000000E+00  0.39999999674E+01  0.40000000000E+01  0.51100000000E-03 0. -1.
    9000002   -1    0    0    0    0 -0.00000000000E+00 -0.00000000000E+00  0.00000000000E+00  0.93800000000E+00  0.93800000000E+00 0. -1.
         11    1    1    2    0    0 -0.53816050107E-01  0.57540620027E-02  0.52653650088E+00  0.52931108468E+00  0.51100000000E-03 0. -1.
    9000002    1    1    2    0    0  0.38022429207E+00 -0.13952878339E+00  0.11093871827E+00  0.10277111427E+01  0.93800000000E+00 0. -1.
         22    1    1    2    0    0 -0.32640824196E+00  0.13377472138E+00  0.33625247482E+01  0.33809777726E+01  0.00000000000E+00 0.  1.
</event>
<event>
 5    1  0.6809154E+001  0.1594701E+01  0.7818608E-02  0.3359135E+00
         11   -1    0    0    0    0  0.00000000000E+00  0.00000000000E+00  0.39999999674E+01  0.40000000000E+01  0.51100000000E-03 0.  1.
    9000002   -1    0    0    0    0 -0.00000000000E+00 -0.00000000000E+00  0.00000000000E+00  0.93800000000E+00  0.93800000000E+00 0.  1.
         11    1    1    2    0    0  0.39541354090E-01  0.19971540569E-01  0.86591232978E+00  0.86704486914E+00  0.51100000000E-03 0.  1.
    9000002    1    1    2    0    0 -0.22932756592E+00  0.22487384385E+00  0.72910076455E-01  0.99414247338E+00  0.93800000000E+00 0.  1.
         22    1    1    2    0    0  0.18978621183E+00 -0.24484538442E+00  0.30611775611E+01  0.30768126575E+01  0.00000000000E+00 0.  1.
</event>
<event>
 5    1  0.6776507E+001  0.1575983E+01  0.7818608E-02  0.3379851E+00
         11   -1    0    0    0    0  0.00000000000E+00  0.00000000000E+00  0.39999999674E+01  0.40000000000E+01  0.51100000000E-03 0. -1.
    9000002   -1    0    0    0    0 -0.00000000000E+00 -0.00000000000E+00  0.00000000000E+00  0.93800000000E+00  0.93800000000E+00 0. -1.
         11    1    1    2    0    0  0.13162754291E+00 -0.68157046992E-01  0.32844256155E+00  0.36034146370E+00  0.51100000000E-03 0. -1.
    9000002    1    1    2    0    0 -0.50473171242E+00  0.71456926576E-01  0.20004240769E+00  0.10861496944E+01  0.93800000000E+00 0. -1.
         22    1    1    2    0    0  0.37310416951E+00 -0.32998795840E-02  0.34715149981E+01  0.34915088418E+01  0.00000000000E+00 0. -1.
</event>
<event>
 5    1  0.6776507E+001  0.1599506E+01  0.7818608E-02  0.3353900E+00
         11   -1    0    0    0    0  0.00000000000E+00  0.00000000000E+00  0.39999999674E+01  0.40000000000E+01  0.51100000000E-03 0.  1.
    9000002   -1    0    0    0    0 -0.00000000000E+00 -0.00000000000E+00  0.00000000000E+00  0.93800000000E+00  0.93800000000E+00 0. -1.
         11    1    1    2    0    0  0.93709871805E-01  0.49012494343E-01  0.94380515119E+00  0.94971163477E+00  0.51100000000E-03 0.  1.
    9000002    1    1    2    0    0 -0.34225502829E+00 -0.16954696379E+00  0.98320701014E-01  0.10175439241E+01  0.93800000000E+00 0. -1.
         22    1    1    2    0    0  0.24854515649E+00  0.12053446945E+00  0.29578741152E+01  0.29707444411E+01  0.00000000000E+00 0.  1.
</event>
<event>
 5    1  0.6776507E+001  0.1516677E+01  0.7818608E-02  0.3449081E+00
         11   -1    0    0    0    0  0.00000000000E+00  0.00000000000E+00  0.39999999674E+01  0.40000000000E+01  0.51100000000E-03 0. -1.
    9000002   -1    0    0    0    0 -0.00000000000E+00 -0.00000000000E+00  0.00000000000E+00  0.93800000000E+00  0.93800000000E+00 0.  1.
         11    1    1    2    0    0  0.34010714522E+00 -0.39689189833E-01  0.12419320796E+01  0.12882715760E+01  0.51100000000E-03 0. -1.
    9000002    1    1    2    0    0 -0.16455886326E+00 -0.35066156576E+00  0.17300751032E+00  0.10294749884E+01  0.93800000000E+00 0.  1.
         22    1    1    2    0    0 -0.17554828196E+00  0.39035075559E+00  0.25850603775E+01  0.26202534356E+01  0.00000000000E+00 0. -1.
</event>
<event>
 5    1  0.6776507E+001  0.1584590E+01  0.7818608E-02  0.3370260E+00
         11   -1    0    0    0    0  0.00000000000E+00  0.00000000000E+00  0.39999999674E+01  0.40000000000E+01  0.51100000000E-03 0.  1.
    9000002   -1    0    0    0    0 -0.00000000000E+00 -0.00000000000E+00  0.00000000000E+00  0.93800000000E+00  0.93800000000E+00 0. -1.
         11    1    1    2    0    0  0.28668401537E-01 -0.12429582981E+00  0.90615259763E+00  0.91508694771E+00  0.51100000000E-03 0.  1.
    9000002    1    1    2    0    0  0.27249901178E+00  0.17218845687E+00  0.81515891111E-01  0.99518511675E+00  0.93800000000E+00 0. -1.
         22    1    1    2    0    0 -0.30116741331E+00 -0.47892627057E-01  0.30123314786E+01  0.30277279355E+01  0.00000000000E+00 0.  1.
</event>
<event>
 5    1  0.6776507E+001  0.1599668E+01  0.7818608E-02  0.3353724E+00
         11   -1    0    0    0    0  0.00000000000E+00  0.00000000000E+00  0.39999999674E+01  0.40000000000E+01  0.51100000000E-03 0. -1.
    9000002   -1    0    0    0    0 -0.00000000000E+00 -0.00000000000E+00  0.00000000000E+00  0.93800000000E+00  0.93800000000E+00 0. -1.
         11    1    1    2    0    0  0.24486947082E-01 -0.91445520382E-01  0.85999684730E+00  0.86519173151E+00  0.51100000000E-03 0. -1.
    9000002    1    1    2    0    0 -0.10248232755E+00  0.40222672792E+00  0.11644986387E+00  0.10323243380E+01  0.93800000000E+00 0. -1.
         22    1    1    2    0    0  0.77995380467E-01 -0.31078120754E+00  0.30235532562E+01  0.30404839305E+01  0.00000000000E+00 0. -1.
</event>
<event>
 5    1  0.6776507E+001  0.1599442E+01  0.7818608E-02  0.3353969E+00
         11   -1    0    0    0    0  0.00000000000E+00  0.00000000000E+00  0.39999999674E+01  0.40000000000E+01  0.51100000000E-03 0.  1.
    9000002   -1    0    0    0    0 -0.00000000000E+00 -0.00000000000E+00  0.00000000000E+00  0.93800000000E+00  0.93800000000E+00 0. -1.
         11    1    1    2    0    0 -0.77726456881E-01  0.61091786320E-01  0.12028696559E+01  0.12069255481E+01  0.51100000000E-03 0.  1.
    9000002    1    1    2    0    0  0.25399016755E+00 -0.25419904930E+00  0.86862644713E-01  0.10082248167E+01  0.93800000000E+00 0. -1.
         22    1    1    2    0    0 -0.17626371067E+00  0.19310726298E+00  0.27102676668E+01  0.27228496353E+01  0.00000000000E+00 0.  1.
</event>
<event>
 5    1  0.6776507E+001  0.1599671E+01  0.7818608E-02  0.3353720E+00
         11   -1    0    0    0    0  0.00000000000E+00  0.00000000000E+00  0.39999999674E+01  0.40000000000E+01  0.51100000000E-03 0. -1.
    9000002   -1    0    0    0    0 -0.00000000000E+00 -0.00000000000E+00  0.00000000000E+00  0.93800000000E+00  0.93800000000E+00 0.  1.
         11    1    1    2    0    0 -0.11294097618E+00 -0.10033923052E+00  0.14161067815E+01  0.14241426554E+01  0.51100000000E-03 0. -1.
    9000002    1    1    2    0    0  0.31100972422E+00  0.28259186847E+00  0.11943397166E+00  0.10347432949E+01  0.93800000000E+00 0.  1.
         22    1    1    2    0    0 -0.19806874805E+00 -0.18225263794E+00  0.24644592142E+01  0.24791140497E+01  0.00000000000E+00 0. -1.
</event>
<event>
 5    1  0.6776507E+001  0.1599667E+01  0.7818608E-02  0.3353725E+00
         11   -1    0    0    0    0  0.00000000000E+00  0.00000000000E+00  0.39999999674E+01  0.40000000000E+01  0.51100000000E-03 0. -1.
    9000002   -1    0    0    0    0 -0.00000000000E+00 -0.00000000000E+00  0.00000000000E+00  0.93800000000E+00  0.93800000000E+00 0.  1.
         11    1    1    2    0    0  0.45399913593E-01 -0.22164738198E+00  0.13000946014E+01  0.13196343993E+01  0.51100000000E-03 0. -1.
    9000002    1    1    2    0    0 -0.13071094702E+00  0.64081338191E+00  0.30212749086E+00  0.11827308074E+01  0.93800000000E+00 0.  1.
         22    1    1    2    0    0  0.85311033426E-01 -0.41916599993E+00  0.23977778751E+01  0.24356347933E+01  0.00000000000E+00 0. -1.
</event>
<event>
 5    1  0.6776507E+001  0.1599651E+01  0.7818608E-02  0.3353742E+00
         11   -1    0    0    0    0  0.00000000000E+00  0.00000000000E+00  0.39999999674E+01  0.40000000000E+01  0.51100000000E-03 0. -1.
    9000002   -1    0    0    0    0 -0.00000000000E+00 -0.00000000000E+00  0.00000000000E+00  0.93800000000E+00  0.93800000000E+00 0.  1.
         11    1    1    2    0    0 -0.14812791344E+00  0.12929976950E-01  0.14052497916E+01  0.14130945832E+01  0.51100000000E-03 0. -1.
    9000002    1    1    2    0    0  0.39437144275E+00 -0.32520933021E-01  0.10558463818E+00  0.10235128537E+01  0.93800000000E+00 0.  1.
         22    1    1    2    0    0 -0.24624352931E+00  0.19590956072E-01  0.24891655376E+01  0.25013925631E+01  0.00000000000E+00 0. -1.
</event>
<event>
 5    1  0.6776507E+001  0.1599672E+01  0.7818608E-02  0.3353720E+00
         11   -1    0    0    0    0  0.00000000000E+00  0.00000000000E+00  0.39999999674E+01  0.40000000000E+01  0.51100000000E-03 0. -1.
    9000002   -1    0    0    0    0 -0.00000000000E+00 -0.00000000000E+00  0.00000000000E+00  0.93800000000E+00  0.93800000000E+00 0. -1.
         11    1    1    2    0    0  0.33033769446E-01  0.11612552736E-01  0.30790547906E+00  0.30989050722E+00  0.51100000000E-03 0. -1.
    9000002    1    1    2    0    0 -0.39814719189E+00 -0.14763626224E+00  0.12203140187E+00  0.10368477783E+01  0.93800000000E+00 0. -1.
         22    1    1    2    0    0  0.36511342244E+00  0.13602370950E+00  0.35700630864E+01  0.35912617145E+01  0.00000000000E+00 0. -1.
</event>
<event>
 5    1  0.6776507E+001  0.1596624E+01  0.7818608E-02  0.3357035E+00
         11   -1    0    0    0    0  0.00000000000E+00  0.00000000000E+00  0.39999999674E+01  0.40000000000E+01  0.51100000000E-03 0. -1.
    9000002   -1    0    0    0    0 -0.00000000000E+00 -0.00000000000E+00  0.00000000000E+00  0.93800000000E+00  0.93800000000E+00 0.  1.
         11    1    1    2    0    0  0.10680090429E-01 -0.10386154546E-02  0.77427139836E-01  0.78168831115E-01  0.51100000000E-03 0. -1.
    9000002    1    1    2    0    0  0.39142386378E+00  0.14771867227E+00  0.12092775789E+00  0.10341667998E+01  0.93800000000E+00 0.  1.
         22    1    1    2    0    0 -0.40210395420E+00 -0.14668005681E+00  0.38016450696E+01  0.38256643690E+01  0.00000000000E+00 0. -1.
</event>
<event>
 5    1  0.6776507E+001  0.1571248E+01  0.7818608E-02  0.3385173E+00
         11   -1    0    0    0    0  0.00000000000E+00  0.00000000000E+00  0.39999999674E+01  0.40000000000E+01  0.51100000000E-03 0. -1.
    9000002   -1    0    0    0    0 -0.00000000000E+00 -0.00000000000E+00  0.00000000000E+00  0.93800000000E+00  0.93800000000E+00 0. -1.
         11    1    1    2    0    0 -0.57676501952E-01  0.89569218323E-01  0.47475393070E+00  0.48656015002E+00  0.51100000000E-03 0. -1.
    9000002    1    1    2    0    0 -0.12448377944E+00  0.17417192756E+00  0.52095669699E-01  0.96352998422E+00  0.93800000000E+00 0. -1.
         22    1    1    2    0    0  0.18216028139E+00 -0.26374114589E+00  0.34731503670E+01  0.34879098658E+01  0.00000000000E+00 0. -1.
</event>
<event>
 5    1  0.6776507E+001  0.1588991E+01  0.7818608E-02  0.3365399E+00
         11   -1    0    0    0    0  0.00000000000E+00  0.00000000000E+00  0.39999999674E+01  0.40000000000E+01  0.51100000000E-03 0.  1.
    9000002   -1    0    0    0    0 -0.00000000000E+00 -0.00000000000E+00  0.00000000000E+00  0.93800000000E+00  0.93800000000E+00 0.  1.
         11    1    1    2    0    0  0.29323036351E-01 -0.42875901509E-01  0.93338608145E+00  0.93483047744E+00  0.51100000000E-03 0.  1.
    9000002    1    1    2    0    0  0.31962751599E+00  0.21457986207E+00  0.10863195517E+00  0.10197309291E+01  0.93800000000E+00 0.  1.
         22    1    1    2    0    0 -0.34895055234E+00 -0.17170396056E+00  0.29579819307E+01  0.29834385934E+01  0.00000000000E+00 0.  1.
</event>
<event>
 5    1  0.6776507E+001  0.1599674E+01  0.7818608E-02  0.3353718E+00
         11   -1    0    0    0    0  0.00000000000E+00  0.00000000000E+00  0.39999999674E+01  0.40000000000E+01  0.51100000000E-03 0.  1.
    9000002   -1    0    0    0    0 -0.00000000000E+00 -0.00000000000E+00  0.00000000000E+00  0.93800000000E+00  0.93800000000E+00 0. -1.
         11    1    1    2    0    0  0.40356223283E-01  0.14981487068E-01  0.31675530374E+00  0.31966741041E+00  0.51100000000E-03 0.  1.
    9000002    1    1    2    0    0 -0.47354592792E+00 -0.17843985647E+00  0.17548818163E+00  0.10801512071E+01  0.93800000000E+00 0. -1.
         22    1    1    2    0    0  0.43318970464E+00  0.16345836940E+00  0.35077564820E+01  0.35381813825E+01  0.00000000000E+00 0.  1.
</event>
<event>
 5    1  0.6776507E+001  0.1598765E+01  0.7818608E-02  0.3354705E+00
         11   -1    0    0    0    0  0.00000000000E+00  0.00000000000E+00  0.39999999674E+01  0.40000000000E+01  0.51100000000E-03 0. -1.
    9000002   -1    0    0    0    0 -0.00000000000E+00 -0.00000000000E+00  0.00000000000E+00  0.93800000000E+00  0.93800000000E+00 0.  1.
         11    1    1    2    0    0  0.24659125980E-01  0.14493482993E+00  0.13393293921E+01  0.13473743575E+01  0.51100000000E-03 0. -1.
    9000002    1    1    2    0    0  0.16477771331E-01 -0.37428857599E+00  0.95127773118E-01  0.10145229166E+01  0.93800000000E+00 0.  1.
         22    1    1    2    0    0 -0.41136897311E-01  0.22935374606E+00  0.25655428021E+01  0.25761027260E+01  0.00000000000E+00 0. -1.
</event>
<event>
 5    1  0.6776507E+001  0.1599075E+01  0.7818608E-02  0.3354368E+00
         11   -1    0    0    0    0  0.00000000000E+00  0.00000000000E+00  0.39999999674E+01  0.40000000000E+01  0.51100000000E-03 0.  1.
    9000002   -1    0    0    0    0 -0.00000000000E+00 -0.00000000000E+00  0.00000000000E+00  0.93800000000E+00  0.93800000000E+00 0. -1.
         11    1    1    2    0    0 -0.77389833823E-01 -0.57326672299E-01  0.13341974538E+01  0.13376691073E+01  0.51100000000E-03 0.  1.
    9000002    1    1    2    0    0  0.30332276670E+00  0.19869122631E+00  0.88774502255E-01  0.10095582284E+01  0.93800000000E+00 0. -1.
         22    1    1    2    0    0 -0.22593293288E+00 -0.14136455401E+00  0.25770280113E+01  0.25907726643E+01  0.00000000000E+00 0.  1.
</event>
<event>
 5    1  0.6776507E+001  0.1550610E+01  0.7818608E-02  0.3408778E+00
         11   -1    0    0    0    0  0.00000000000E+00  0.00000000000E+00  0.39999999674E+01  0.40000000000E+01  0.51100000000E-03 0.  1.
    9000002   -1    0    0    0    0 -0.00000000000E+00 -0.00000000000E+00  0.00000000000E+00  0.93800000000E+00  0.93800000000E+00 0.  1.
         11    1    1    2    0    0 -0.88913044904E-01  0.16942840566E+00  0.83398533696E+00  0.85565373697E+00  0.51100000000E-03 0.  1.
    9000002    1    1    2    0    0 -0.45037938328E-01  0.11852816040E+00  0.47521623281E-01  0.94772340130E+00  0.93800000000E+00 0.  1.
         22    1    1    2    0    0  0.13395098323E+00 -0.28795656606E+00  0.31184930071E+01  0.31346228617E+01  0.00000000000E+00 0.  1.
</event>
<event>
 5    1  0.6776507E+001  0.1599673E+01  0.7818608E-02  0.3353719E+00
         11   -1    0    0    0    0  0.00000000000E+00  0.00000000000E+00  0.39999999674E+01  0.40000000000E+01  0.51100000000E-03 0.  1.
    9000002   -1    0    0    0    0 -0.00000000000E+00 -0.00000000000E+00  0.00000000000E+00  0.93800000000E+00  0.93800000000E+00 0. -1.
         11    1    1    2    0    0  0.98037170980E-01 -0.19750032721E+00  0.13470752045E+01  0.13650016607E+01  0.51100000000E-03 0.  1.
    9000002    1    1    2    0    0 -0.26626731729E+00  0.55128825151E+00  0.26220755117E+00  0.11503972446E+01  0.93800000000E+00 0. -1.
         22    1    1    2    0    0  0.16823014631E+00 -0.35378792431E+00  0.23907172117E+01  0.24226010946E+01  0.00000000000E+00 0.  1.
</event>
<event>
 5    1  0.6776507E+001  0.1589729E+01  0.7818608E-02  0.3364587E+00
         11   -1    0    0    0    0  0.00000000000E+00  0.00000000000E+00  0.39999999674E+01  0.40000000000E+01  0.51100000000E-03 0. -1.
    9000002   -1    0    0    0    0 -0.00000000000E+00 -0.00000000000E+00  0.00000000000E+00  0.93800000000E+00  0.93800000000E+00 0. -1.
         11    1    1    2    0    0  0.12350606982E+00 -0.53990810072E-02  0.11601409176E+01  0.11667090936E+01  0.51100000000E-03 0. -1.
    9000002    1    1    2    0    0 -0.46571919959E+00  0.37077516685E+00  0.25690083960E+00  0.11402677925E+01  0.93800000000E+00 0. -1.
         22    1    1    2    0    0  0.34221312976E+00 -0.36537608584E+00  0.25829582102E+01  0.26310231139E+01  0.00000000000E+00 0. -1.
</event>
<event>
 5    1  0.6776507E+001  0.1599611E+01  0.7818608E-02  0.3353786E+00
         11   -1    0    0    0    0  0.00000000000E+00  0.00000000000E+00  0.39999999674E+01  0.40000000000E+01  0.51100000000E-03 0. -1.
    9000002   -1    0    0    0    0 -0.00000000000E+00 -0.00000000000E+00  0.00000000000E+00  0.93800000000E+00  0.93800000000E+00 0. -1.
         11    1    1    2    0    0  0.10151353373E+00 -0.40271553115E-01  0.11488937858E+01  0.11540727827E+01  0.51100000000E-03 0. -1.
    9000002    1    1    2    0    0 -0.35325891348E+00  0.10768923721E+00  0.91705166824E-01  0.10122463482E+01  0.93800000000E+00 0. -1.
         22    1    1    2    0    0  0.25174537975E+00 -0.67417684090E-01  0.27594010147E+01  0.27716808691E+01  0.00000000000E+00 0. -1.
</event>
<event>
 5    1  0.6776507E+001  0.1599622E+01  0.7818608E-02  0.3353773E+00
         11   -1    0    0    0    0  0.00000000000E+00  0.00000000000E+00  0.39999999674E+01  0.40000000000E+01  0.51100000000E-03 0. -1.
    9000002   -1    0    0    0    0 -0.00000000000E+00 -0.00000000000E+00  0.00000000000E+00  0.93800000000E+00  0.93800000000E+00 0. -1.
         11    1    1    2    0    0  0.17326619147E+00  0.14371679064E+00  0.12653130701E+01  0.12851821332E+01  0.51100000000E-03 0. -1.
    9000002    1    1    2    0    0 -0.52842832134E+00 -0.41779404649E+00  0.32214595685E+00  0.11989205034E+01  0.93800000000E+00 0. -1.
         22    1    1    2    0    0  0.35516212987E+00  0.27407725585E+00  0.24125409404E+01  0.24538973633E+01  0.00000000000E+00 0. -1.
</event>
<event>
 5    1  0.6776507E+001  0.1596148E+01  0.7818608E-02  0.3357555E+00
         11   -1    0    0    0    0  0.00000000000E+00  0.00000000000E+00  0.39999999674E+01  0.40000000000E+01  0.51100000000E-03 0.  1.
    9000002   -1    0    0    0    0 -0.00000000000E+00 -0.00000000000E+00  0.00000000000E+00  0.93800000000E+00  0.93800000000E+00 0.  1.
         11    1    1    2    0    0  0.36490974613E-01  0.11026700780E+00  0.76216280157E+00  0.77096225682E+00  0.51100000000E-03 0.  1.
    9000002    1    1    2    0    0 -0.36953943505E+00 -0.33559031752E+00  0.17373732627E+00  0.10766656462E+01  0.93800000000E+00 0.  1.
         22    1    1    2    0    0  0.33304846044E+00  0.22532330972E+00  0.30640998395E+01  0.30903720969E+01  0.00000000000E+00 0.  1.
</event>
<event>
 5    1  0.6776507E+001  0.1599677E+01  0.7818608E-02  0.3353714E+00
         11   -1    0    0    0    0  0.00000000000E+00  0.00000000000E+00  0.39999999674E+01  0.40000000000E+01  0.51100000000E-03 0. -1.
    9000002   -1    0    0    0    0 -0.00000000000E+00 -0.00000000000E+00  0.00000000000E+00  0.93800000000E+00  0.93800000000E+00 0. -1.
         11    1    1    2    0    0  0.74478473781E-01  0.63298108512E-02  0.70894334226E+00  0.71287308352E+00  0.51100000000E-03 0.  1.
    9000002    1    1    2    0    0 -0.40827990966E+00 -0.37492293083E-01  0.11353363987E+00  0.10299670111E+01  0.93800000000E+00 0. -1.
         22    1    1    2    0    0  0.33380143588E+00  0.31162482231E-01  0.31775229852E+01  0.31951599053E+01  0.00000000000E+00 0. -1.
</event>
<event>
 5    1  0.6776507E+001  0.1599198E+01  0.7818608E-02  0.3354234E+00
         11   -1    0    0    0    0  0.00000000000E+00  0.00000000000E+00  0.39999999674E+01  0.40000000000E+01  0.51100000000E-03 0.  1.
    9000002   -1    0    0    0    0 -0.00000000000E+00 -0.00000000000E+00  0.00000000000E+00  0.93800000000E+00  0.93800000000E+00 0. -1.
         11    1    1    2    0    0 -0.19795722846E-01 -0.40209056069E-02  0.31598466533E+00  0.31663008096E+00  0.51100000000E-03 0.  1.
    9000002    1    1    2    0    0  0.39203536539E+00 -0.48364193784E-01  0.10557585202E+00  0.10232404817E+01  0.93800000000E+00 0. -1.
         22    1    1    2    0    0 -0.37223964255E+00  0.52385099391E-01  0.35784394500E+01  0.35981294373E+01  0.00000000000E+00 0.  1.
</event>
<event>
 5    1  0.1050959E+002  0.1529060E+01  0.7818608E-02  0.3434152E+00
         11   -1    0    0    0    0  0.00000000000E+00  0.00000000000E+00  0.39999999674E+01  0.40000000000E+01  0.51100000000E-03 0. -1.
    9000002   -1    0    0    0    0 -0.00000000000E+00 -0.00000000000E+00  0.00000000000E+00  0.93800000000E+00  0.93800000000E+00 0. -1.
         11    1    1    2    0    0  0.14604068396E+00  0.22525252148E+00  0.89901569199E+00  0.93824093673E+00  0.51100000000E-03 0. -1.
    9000002    1    1    2    0    0 -0.63559023229E-01  0.44608650709E-01  0.57224416342E-01  0.94294661301E+00  0.93800000000E+00 0. -1.
         22    1    1    2    0    0 -0.82481660732E-01 -0.26986117219E+00  0.30437598590E+01  0.30568124503E+01  0.00000000000E+00 0. -1.
</event>
<event>
 5    1  0.6776507E+001  0.1595472E+01  0.7818608E-02  0.3358293E+00
         11   -1    0    0    0    0  0.00000000000E+00  0.00000000000E+00  0.39999999674E+01  0.40000000000E+01  0.51100000000E-03 0. -1.
    9000002   -1    0    0    0    0 -0.00000000000E+00 -0.00000000000E+00  0.00000000000E+00  0.93800000000E+00  0.93800000000E+00 0.  1.
         11    1    1    2    0    0 -0.74099403016E-01 -0.29236263952E-01  0.12387520337E+01  0.12413107358E+01  0.51100000000E-03 0. -1.
    9000002    1    1    2    0    0  0.33275922223E+00 -0.11491157323E+00  0.86515186109E-01  0.10056153574E+01  0.93800000000E+00 0.  1.
         22    1    1    2    0    0 -0.25865981921E+00  0.14414783719E+00  0.26747327476E+01  0.26910739068E+01  0.00000000000E+00 0. -1.
</event>
<event>
 5    1  0.6776507E+001  0.1500125E+01  0.7818608E-02  0.3469449E+00
         11   -1    0    0    0    0  0.00000000000E+00  0.00000000000E+00  0.39999999674E+01  0.40000000000E+01  0.51100000000E-03 0. -1.
    9000002   -1    0    0    0    0 -0.00000000000E+00 -0.00000000000E+00  0.00000000000E+00  0.93800000000E+00  0.93800000000E+00 0.  1.
         11    1    1    2    0    0  0.25693225490E+00 -0.10128355648E-01  0.13364444151E+01  0.13609558049E+01  0.51100000000E-03 0. -1.
    9000002    1    1    2    0    0  0.14707723416E+00 -0.50647165843E+00  0.28991196769E+00  0.11144676768E+01  0.93800000000E+00 0.  1.
         22    1    1    2    0    0 -0.40400948907E+00  0.51660001408E+00  0.23736435846E+01  0.24625765183E+01  0.00000000000E+00 0. -1.
</event>
<event>
 5    1  0.6776507E+001  0.1594913E+01  0.7818608E-02  0.3358904E+00
         11   -1    0    0    0    0  0.00000000000E+00  0.00000000000E+00  0.39999999674E+01  0.40000000000E+01  0.51100000000E-03 0. -1.
    9000002   -1    0    0    0    0 -0.00000000000E+00 -0.00000000000E+00  0.00000000000E+00  0.93800000000E+00  0.93800000000E+00 0.  1.
         11    1    1    2    0    0  0.12519774364E+00  0.70823109500E-01  0.72165595863E+00  0.73585186797E+00  0.51100000000E-03 0. -1.
    9000002    1    1    2    0    0 -0.32329494813E+00 -0.32643344693E+00  0.14772093092E+00  0.10548667651E+01  0.93800000000E+00 0.  1.
         22    1    1    2    0    0  0.19809720450E+00  0.25561033743E+00  0.31306230778E+01  0.31472813669E+01  0.00000000000E+00 0. -1.
</event>
<event>
 5    1  0.6776507E+001  0.1599672E+01  0.7818608E-02  0.3353719E+00
         11   -1    0    0    0    0  0.00000000000E+00  0.00000000000E+00  0.39999999674E+01  0.40000000000E+01  0.51100000000E-03 0. -1.
    9000002   -1    0    0    0    0 -0.00000000000E+00 -0.00000000000E+00  0.00000000000E+00  0.93800000000E+00  0.93800000000E+00 0.  1.
         11    1    1    2    0    0  0.21713792850E+00  0.12255571414E+00  0.13839366364E+01  0.14062182113E+01  0.51100000000E-03 0. -1.
    9000002    1    1    2    0    0 -0.58183027745E+00 -0.33155893181E+00  0.31799015790E+00  0.11955833461E+01  0.93800000000E+00 0.  1.
         22    1    1    2    0    0  0.36469234895E+00  0.20900321768E+00  0.22980731730E+01  0.23361984425E+01  0.00000000000E+00 0. -1.
</event>
<event>
 5    1  0.6776507E+001  0.1487608E+01  0.7818608E-02  0.3485177E+00
         11   -1    0    0    0    0  0.00000000000E+00  0.00000000000E+00  0.39999999674E+01  0.40000000000E+01  0.51100000000E-03 0. -1.
    9000002   -1    0    0    0    0 -0.00000000000E+00 -0.00000000000E+00  0.00000000000E+00  0.93800000000E+00  0.93800000000E+00 0.  1.
         11    1    1    2    0    0 -0.25334323998E-01 -0.33179723767E+00  0.10414171273E+01  0.10932891333E+01  0.51100000000E-03 0. -1.
    9000002    1    1    2    0    0  0.16703521906E-01 -0.93860494397E-01  0.92701706358E-01  0.94737870274E+00  0.93800000000E+00 0.  1.
         22    1    1    2    0    0  0.86308020921E-02  0.42565773207E+00  0.28658811337E+01  0.28973321639E+01  0.00000000000E+00 0. -1.
</event>
<event>
 5    1  0.6776507E+001  0.1502039E+01  0.7818608E-02  0.3467069E+00
         11   -1    0    0    0    0  0.00000000000E+00  0.00000000000E+00  0.39999999674E+01  0.40000000000E+01  0.51100000000E-03 0. -1.
    9000002   -1    0    0    0    0 -0.00000000000E+00 -0.00000000000E+00  0.00000000000E+00  0.93800000000E+00  0.93800000000E+00 0.  1.
         11    1    1    2    0    0 -0.10647060056E+00 -0.17629606362E+00  0.41131456503E-01  0.21001987683E+00  0.51100000000E-03 0. -1.
    9000002    1    1    2    0    0 -0.19367179244E+00  0.43667598353E+00  0.36786755157E+00  0.11150628741E+01  0.93800000000E+00 0.  1.
         22    1    1    2    0    0  0.30014239300E+00 -0.26037991991E+00  0.35910009593E+01  0.36129172490E+01  0.00000000000E+00 0. -1.
</event>
<event>
 5    1  0.6776507E+001  0.1599510E+01  0.7818608E-02  0.3353895E+00
         11   -1    0    0    0    0  0.00000000000E+00  0.00000000000E+00  0.39999999674E+01  0.40000000000E+01  0.51100000000E-03 0. -1.
    9000002   -1    0    0    0    0 -0.00000000000E+00 -0.00000000000E+00  0.00000000000E+00  0.93800000000E+00  0.93800000000E+00 0.  1.
         11    1    1    2    0    0 -0.23857651939E+00 -0.45772492760E-01  0.14354699683E+01  0.14558805472E+01  0.51100000000E-03 0. -1.
    9000002    1    1    2    0    0  0.64689549817E+00  0.13848897367E+00  0.30987633743E+00  0.11889156092E+01  0.93800000000E+00 0.  1.
         22    1    1    2    0    0 -0.40831897878E+00 -0.92716480907E-01  0.22546536616E+01  0.22932038436E+01  0.00000000000E+00 0. -1.
</event>
<event>
 5    1  0.6776507E+001  0.1599673E+01  0.7818608E-02  0.3353718E+00
         11   -1    0    0    0    0  0.00000000000E+00  0.00000000000E+00  0.39999999674E+01  0.40000000000E+01  0.51100000000E-03 0.  1.
    9000002   -1    0    0    0    0 -0.00000000000E+00 -0.00000000000E+00  0.00000000000E+00  0.93800000000E+00  0.93800000000E+00 0.  1.
         11    1    1    2    0    0 -0.17572232824E+00  0.13417934383E-01  0.50251020281E+00  0.53251773929E+00  0.51100000000E-03 0.  1.
    9000002    1    1    2    0    0  0.10615276023E+01 -0.72020735662E-01  0.94847667527E+00  0.17063059047E+01  0.93800000000E+00 0. -1.
         22    1    1    2    0    0 -0.88580527402E+00  0.58602801279E-01  0.25490130893E+01  0.26991763561E+01  0.00000000000E+00 0.  1.
</event>
<event>
 5    1  0.6776507E+001  0.1599047E+01  0.7818608E-02  0.3354398E+00
         11   -1    0    0    0    0  0.00000000000E+00  0.00000000000E+00  0.39999999674E+01  0.40000000000E+01  0.51100000000E-03 0. -1.
    9000002   -1    0    0    0    0 -0.00000000000E+00 -0.00000000000E+00  0.00000000000E+00  0.93800000000E+00  0.93800000000E+00 0. -1.
         11    1    1    2    0    0 -0.11033316025E+00  0.72998795543E-01  0.10067643534E+01  0.10154195955E+01  0.51100000000E-03 0. -1.
    9000002    1    1    2    0    0  0.33528564714E+00 -0.33231716350E+00  0.15241921558E+00  0.10610969699E+01  0.93800000000E+00 0. -1.
         22    1    1    2    0    0 -0.22495248690E+00  0.25931836796E+00  0.28408163984E+01  0.28614834346E+01  0.00000000000E+00 0. -1.
</event>
<event>
 5    1  0.6776507E+001  0.1596035E+01  0.7818608E-02  0.3357679E+00
         11   -1    0    0    0    0  0.00000000000E+00  0.00000000000E+00  0.39999999674E+01  0.40000000000E+01  0.51100000000E-03 0. -1.
    9000002   -1    0    0    0    0 -0.00000000000E+00 -0.00000000000E+00  0.00000000000E+00  0.93800000000E+00  0.93800000000E+00 0. -1.
         11    1    1    2    0    0  0.38567767019E-01 -0.64258056691E-01  0.21302883571E+00  0.22582762557E+00  0.51100000000E-03 0. -1.
    9000002    1    1    2    0    0 -0.66850672635E+00  0.47467814911E+00  0.50349071721E+00  0.13437140658E+01  0.93800000000E+00 0. -1.
         22    1    1    2    0    0  0.62993895933E+00 -0.41042009242E+00  0.32834804144E+01  0.33684583086E+01  0.00000000000E+00 0. -1.
</event>
<event>
 5    1  0.6776507E+001  0.1581320E+01  0.7818608E-02  0.3373890E+00
         11   -1    0    0    0    0  0.00000000000E+00  0.00000000000E+00  0.39999999674E+01  0.40000000000E+01  0.51100000000E-03 0.  1.
    9000002   -1    0    0    0    0 -0.00000000000E+00 -0.00000000000E+00  0.00000000000E+00  0.93800000000E+00  0.93800000000E+00 0. -1.
         11    1    1    2    0    0 -0.15509417761E+00 -0.10682617045E+00  0.13629077764E+01  0.13758575154E+01  0.51100000000E-03 0.  1.
    9000002    1    1    2    0    0  0.74693442660E-02  0.39313559680E+00  0.11955965247E+00  0.10240849081E+01  0.93800000000E+00 0. -1.
         22    1    1    2    0    0  0.14762483334E+00 -0.28630942636E+00  0.25175325385E+01  0.25380575764E+01  0.00000000000E+00 0.  1.
</event>
<event>
 5    1  0.6776507E+001  0.1599674E+01  0.7818608E-02  0.3353717E+00
         11   -1    0    0    0    0  0.00000000000E+00  0.00000000000E+00  0.39999999674E+01  0.40000000000E+01  0.51100000000E-03 0. -1.
    9000002   -1    0    0    0    0 -0.00000000000E+00 -0.00000000000E+00  0.00000000000E+00  0.93800000000E+00  0.93800000000E+00 0.  1.
         11    1    1    2    0    0 -0.35884112254E-01  0.76816649203E-01  0.83094512030E+00  0.83525955318E+00  0.51100000000E-03 0. -1.
    9000002    1    1    2    0    0  0.16315891227E+00 -0.36597541751E+00  0.10831237131E+00  0.10257360317E+01  0.93800000000E+00 0.  1.
         22    1    1    2    0    0 -0.12727480002E+00  0.28915876831E+00  0.30607424758E+01  0.30770044152E+01  0.00000000000E+00 0. -1.
</event>
<event>
 5    1  0.6848495E+001  0.1592094E+01  0.7818608E-02  0.3361989E+00
         11   -1    0    0    0    0  0.00000000000E+00  0.00000000000E+00  0.39999999674E+01  0.40000000000E+01  0.51100000000E-03 0. -1.
    9000002   -1    0    0    0    0 -0.00000000000E+00 -0.00000000000E+00  0.00000000000E+00  0.93800000000E+00  0.93800000000E+00 0. -1.
         11    1    1    2    0    0  0.18368816587E-01 -0.51328791286E-01  0.96489475070E+00  0.96643375318E+00  0.51100000000E-03 0. -1.
    9000002    1    1    2    0    0 -0.28853190745E+00 -0.90024470544E-01  0.66922777595E-01  0.98776400272E+00  0.93800000000E+00 0. -1.
         22    1    1    2    0    0  0.27016309087E+00  0.14135326183E+00  0.29681824391E+01  0.29838022441E+01  0.00000000000E+00 0. -1.
</event>
<event>
 5    1  0.6776507E+001  0.1599646E+01  0.7818608E-02  0.3353747E+00
         11   -1    0    0    0    0  0.00000000000E+00  0.00000000000E+00  0.39999999674E+01  0.40000000000E+01  0.51100000000E-03 0. -1.
    9000002   -1    0    0    0    0 -0.00000000000E+00 -0.00000000000E+00  0.00000000000E+00  0.93800000000E+00  0.93800000000E+00 0.  1.
         11    1    1    2    0    0 -0.32849780491E-01  0.78793293185E-01  0.82357882419E+00  0.82799144434E+00  0.51100000000E-03 0. -1.
    9000002    1    1    2    0    0  0.13362300601E+00 -0.38595577877E+00  0.11267030018E+00  0.10292500024E+01  0.93800000000E+00 0.  1.
         22    1    1    2    0    0 -0.10077322552E+00  0.30716248559E+00  0.30637508430E+01  0.30807585533E+01  0.00000000000E+00 0. -1.
</event>
<event>
 5    1  0.6776507E+001  0.1599318E+01  0.7818608E-02  0.3354104E+00
         11   -1    0    0    0    0  0.00000000000E+00  0.00000000000E+00  0.39999999674E+01  0.40000000000E+01  0.51100000000E-03 0.  1.
    9000002   -1    0    0    0    0 -0.00000000000E+00 -0.00000000000E+00  0.00000000000E+00  0.93800000000E+00  0.93800000000E+00 0. -1.
         11    1    1    2    0    0  0.25047784357E-01 -0.11408955510E+00  0.13457635498E+01  0.13508233086E+01  0.51100000000E-03 0.  1.
    9000002    1    1    2    0    0 -0.13320679938E+00  0.34861495691E+00  0.93927813243E-01  0.10138751766E+01  0.93800000000E+00 0. -1.
         22    1    1    2    0    0  0.10815901502E+00 -0.23452540180E+00  0.25603086044E+01  0.25733015148E+01  0.00000000000E+00 0.  1.
</event>
<event>
 5    1  0.6776507E+001  0.1594017E+01  0.7818608E-02  0.3359882E+00
         11   -1    0    0    0    0  0.00000000000E+00  0.00000000000E+00  0.39999999674E+01  0.40000000000E+01  0.51100000000E-03 0. -1.
    9000002   -1    0    0    0    0 -0.00000000000E+00 -0.00000000000E+00  0.00000000000E+00  0.93800000000E+00  0.93800000000E+00 0. -1.
         11    1    1    2    0    0 -0.10279322506E+00  0.43832487425E-01  0.10711073985E+01  0.10769210994E+01  0.51100000000E-03 0. -1.
    9000002    1    1    2    0    0  0.33927665290E+00  0.13252193634E+00  0.93711976156E-01  0.10105922250E+01  0.93800000000E+00 0. -1.
         22    1    1    2    0    0 -0.23648342783E+00 -0.17635442376E+00  0.28351805927E+01  0.28504866756E+01  0.00000000000E+00 0. -1.
</event>
<event>
 5    1  0.6776507E+001  0.1599676E+01  0.7818608E-02  0.3353715E+00
         11   -1    0    0    0    0  0.00000000000E+00  0.00000000000E+00  0.39999999674E+01  0.40000000000E+01  0.51100000000E-03 0.  1.
    9000002   -1    0    0    0    0 -0.00000000000E+00 -0.00000000000E+00  0.00000000000E+00  0.93800000000E+00  0.93800000000E+00 0. -1.
         11    1    1    2    0    0  0.12493874582E+00  0.58465925512E-01  0.12311299819E+01  0.12388338259E+01  0.51100000000E-03 0.  1.
    9000002    1    1    2    0    0 -0.39007776973E+00 -0.18350118277E+00  0.12587295021E+00  0.10399621869E+01  0.93800000000E+00 0. -1.
         22    1    1    2    0    0  0.26513902391E+00  0.12503525726E+00  0.26429970352E+01  0.26592039872E+01  0.00000000000E+00 0.  1.
</event>
<event>
 5    1  0.9623582E+001  0.1598946E+01  0.7818608E-02  0.3354508E+00
         11   -1    0    0    0    0  0.00000000000E+00  0.00000000000E+00  0.39999999674E+01  0.40000000000E+01  0.51100000000E-03 0.  1.
    9000002   -1    0    0    0    0 -0.00000000000E+00 -0.00000000000E+00  0.00000000000E+00  0.93800000000E+00  0.93800000000E+00 0.  1.
         11    1    1    2    0    0  0.58447579598E-01 -0.62872823769E-01  0.13089897580E+01  0.13118016463E+01  0.51100000000E-03 0.  1.
    9000002    1    1    2    0    0 -0.26760625868E+00  0.18743950933E+00  0.71978999658E-01  0.99587732966E+00  0.93800000000E+00 0.  1.
         22    1    1    2    0    0  0.20915867908E+00 -0.12456668556E+00  0.26190312097E+01  0.26303210240E+01  0.00000000000E+00 0.  1.
</event>
<event>
 5    1  0.6776507E+001  0.1578049E+01  0.7818608E-02  0.3377539E+00
         11   -1    0    0    0    0  0.00000000000E+00  0.00000000000E+00  0.39999999674E+01  0.40000000000E+01  0.51100000000E-03 0.  1.
    9000002   -1    0    0    0    0 -0.00000000000E+00 -0.00000000000E+00  0.00000000000E+00  0.93800000000E+00  0.93800000000E+00 0.  1.
         11    1    1    2    0    0  0.75185086787E-01  0.91612417170E-01  0.59039580288E+00  0.60217364392E+00  0.51100000000E-03 0.  1.
    9000002    1    1    2    0    0  0.22654929441E+00 -0.18210938029E+00  0.73357227701E-01  0.98474041861E+00  0.93800000000E+00 0.  1.
         22    1    1    2    0    0 -0.30173438120E+00  0.90496963120E-01  0.33362469368E+01  0.33510859375E+01  0.00000000000E+00 0.  1.
</event>
<event>
 5    1  0.6776507E+001  0.1598659E+01  0.7818608E-02  0.3354820E+00
         11   -1    0    0    0    0  0.00000000000E+00  0.00000000000E+00  0.39999999674E+01  0.40000000000E+01  0.51100000000E-03 0. -1.
    9000002   -1    0    0    0    0 -0.00000000000E+00 -0.00000000000E+00  0.00000000000E+00  0.93800000000E+00  0.93800000000E+00 0. -1.
         11    1    1    2    0    0  0.48252548032E-01 -0.17241054489E+00  0.12489368552E+01  0.12617040992E+01  0.51100000000E-03 0. -1.
    9000002    1    1    2    0    0 -0.37204841492E-01  0.52591312451E+00  0.19212782594E+00  0.10930351853E+01  0.93800000000E+00 0. -1.
         22    1    1    2    0    0 -0.11047706539E-01 -0.35350257961E+00  0.25589352862E+01  0.25832607155E+01  0.00000000000E+00 0. -1.
</event>
<event>
 5    1  0.6776507E+001  0.1599676E+01  0.7818608E-02  0.3353715E+00
         11   -1    0    0    0    0  0.00000000000E+00  0.00000000000E+00  0.39999999674E+01  0.40000000000E+01  0.51100000000E-03 0.  1.
    9000002   -1    0    0    0    0 -0.00000000000E+00 -0.00000000000E+00  0.00000000000E+00  0.93800000000E+00  0.93800000000E+00 0. -1.
         11    1    1    2    0    0  0.84024861097E-01 -0.23655607748E-01  0.86873879817E+00  0.87311346664E+00  0.51100000000E-03 0. -1.
    9000002    1    1    2    0    0 -0.37447010693E+00  0.10841884047E+00  0.10238424735E+00  0.10209353751E+01  0.93800000000E+00 0. -1.
         22    1    1    2    0    0  0.29044524583E+00 -0.84763232720E-01  0.30288769218E+01  0.30439511583E+01  0.00000000000E+00 0.  1.
</event>
<event>
 5    1  0.6776507E+001  0.1597625E+01  0.7818608E-02  0.3355945E+00
         11   -1    0    0    0    0  0.00000000000E+00  0.00000000000E+00  0.39999999674E+01  0.40000000000E+01  0.51100000000E-03 0. -1.
    9000002   -1    0    0    0    0 -0.00000000000E+00 -0.00000000000E+00  0.00000000000E+00  0.93800000000E+00  0.93800000000E+00 0. -1.
         11    1    1    2    0    0  0.60209593408E-01  0.21473303916E-01  0.12263788080E+01  0.12280437858E+01  0.51100000000E-03 0. -1.
    9000002    1    1    2    0    0 -0.29011422229E+00 -0.19750136355E+00  0.84252773435E-01  0.10050450639E+01  0.93800000000E+00 0. -1.
         22    1    1    2    0    0  0.22990462889E+00  0.17602805963E+00  0.26893683859E+01  0.27049111504E+01  0.00000000000E+00 0. -1.
</event>
<event>
 5    1  0.6776507E+001  0.1599129E+01  0.7818608E-02  0.3354310E+00
         11   -1    0    0    0    0  0.00000000000E+00  0.00000000000E+00  0.39999999674E+01  0.40000000000E+01  0.51100000000E-03 0. -1.
    9000002   -1    0    0    0    0 -0.00000000000E+00 -0.00000000000E+00  0.00000000000E+00  0.93800000000E+00  0.93800000000E+00 0. -1.
         11    1    1    2    0    0 -0.11779099413E-01 -0.14368699159E+00  0.12067152986E+01  0.12152969891E+01  0.51100000000E-03 0. -1.
    9000002    1    1    2    0    0  0.80416469034E-01  0.52437334829E+00  0.19419335634E+00  0.10949836878E+01  0.93800000000E+00 0. -1.
         22    1    1    2    0    0 -0.68637369621E-01 -0.38068635671E+00  0.25990913124E+01  0.26277193231E+01  0.00000000000E+00 0. -1.
</event>
<event>
 5    1  0.6776507E+001  0.1599592E+01  0.7818608E-02  0.3353806E+00
         11   -1    0    0    0    0  0.00000000000E+00  0.00000000000E+00  0.39999999674E+01  0.40000000000E+01  0.51100000000E-03 0.  1.
    9000002   -1    0    0    0    0 -0.00000000000E+00 -0.00000000000E+00  0.00000000000E+00  0.93800000000E+00  0.93800000000E+00 0.  1.
         11    1    1    2    0    0  0.31569166739E-01  0.11018748595E+00  0.11445332431E+01  0.11502584492E+01  0.51100000000E-03 0.  1.
    9000002    1    1    2    0    0 -0.11595055901E+00 -0.40668608630E+00  0.12106845054E+00  0.10360210783E+01  0.93800000000E+00 0.  1.
         22    1    1    2    0    0  0.84381392273E-01  0.29649860034E+00  0.27343982737E+01  0.27517204725E+01  0.00000000000E+00 0.  1.
</event>
<event>
 5    1  0.6776507E+001  0.1595538E+01  0.7818608E-02  0.3358220E+00
         11   -1    0    0    0    0  0.00000000000E+00  0.00000000000E+00  0.39999999674E+01  0.40000000000E+01  0.51100000000E-03 0.  1.
    9000002   -1    0    0    0    0 -0.00000000000E+00 -0.00000000000E+00  0.00000000000E+00  0.93800000000E+00  0.93800000000E+00 0.  1.
         11    1    1    2    0    0  0.11114645477E+00 -0.11186353211E+00  0.93376198518E+00  0.94698399686E+00  0.51100000000E-03 0.  1.
    9000002    1    1    2    0    0 -0.48498335074E+00  0.18615370771E+00  0.18915972393E+00  0.10888009251E+01  0.93800000000E+00 0.  1.
         22    1    1    2    0    0  0.37383689598E+00 -0.74290175600E-01  0.28770782582E+01  0.29022150780E+01  0.00000000000E+00 0.  1.
</event>
<event>
 5    1  0.6776507E+001  0.1596757E+01  0.7818608E-02  0.3356890E+00
         11   -1    0    0    0    0  0.00000000000E+00  0.00000000000E+00  0.39999999674E+01  0.40000000000E+01  0.51100000000E-03 0.  1.
    9000002   -1    0    0    0    0 -0.00000000000E+00 -0.00000000000E+00  0.00000000000E+00  0.93800000000E+00  0.93800000000E+00 0. -1.
         11    1    1    2    0    0  0.43809401620E-01 -0.40720620500E-01  0.27724611298E+00  0.28362492995E+00  0.51100000000E-03 0.  1.
    9000002    1    1    2    0    0 -0.16784993193E+00  0.40570489687E+00  0.13322263021E+00  0.10442041621E+01  0.93800000000E+00 0. -1.
         22    1    1    2    0    0  0.12404053031E+00 -0.36498427637E+00  0.35895312242E+01  0.36101709079E+01  0.00000000000E+00 0.  1.
</event>
<event>
 5    1  0.6776507E+001  0.1597972E+01  0.7818608E-02  0.3355568E+00
         11   -1    0    0    0    0  0.00000000000E+00  0.00000000000E+00  0.39999999674E+01  0.40000000000E+01  0.51100000000E-03 0. -1.
    9000002   -1    0    0    0    0 -0.00000000000E+00 -0.00000000000E+00  0.00000000000E+00  0.93800000000E+00  0.93800000000E+00 0. -1.
         11    1    1    2    0    0  0.13247565654E-01  0.16757240954E-01  0.65039037690E+00  0.65074127470E+00  0.51100000000E-03 0. -1.
    9000002    1    1    2    0    0 -0.26388926161E+00 -0.22709452578E+00  0.82628319066E-01  0.10039327194E+01  0.93800000000E+00 0. -1.
         22    1    1    2    0    0  0.25064169596E+00  0.21033728482E+00  0.32669812714E+01  0.32833260059E+01  0.00000000000E+00 0. -1.
</event>
<event>
 5    1  0.6776507E+001  0.1526087E+01  0.7818608E-02  0.3437712E+00
         11   -1    0    0    0    0  0.00000000000E+00  0.00000000000E+00  0.39999999674E+01  0.40000000000E+01  0.51100000000E-03 0.  1.
    9000002   -1    0    0    0    0 -0.00000000000E+00 -0.00000000000E+00  0.00000000000E+00  0.93800000000E+00  0.93800000000E+00 0. -1.
         11    1    1    2    0    0  0.32178556604E+00 -0.13313002228E+00  0.10674866997E+01  0.11228524696E+01  0.51100000000E-03 0.  1.
    9000002    1    1    2    0    0 -0.91777027195E-01  0.48333307851E+00  0.23455173974E+00  0.10848467201E+01  0.93800000000E+00 0. -1.
         22    1    1    2    0    0 -0.23000853884E+00 -0.35020305623E+00  0.26979615279E+01  0.27303008103E+01  0.00000000000E+00 0.  1.
</event>
<event>
 5    1  0.6776507E+001  0.1579174E+01  0.7818608E-02  0.3376282E+00
         11   -1    0    0    0    0  0.00000000000E+00  0.00000000000E+00  0.39999999674E+01  0.40000000000E+01  0.51100000000E-03 0. -1.
    9000002   -1    0    0    0    0 -0.00000000000E+00 -0.00000000000E+00  0.00000000000E+00  0.93800000000E+00  0.93800000000E+00 0. -1.
         11    1    1    2    0    0 -0.20274354036E+00  0.25345049941E-01  0.58988658896E+00  0.62427058530E+00  0.51100000000E-03 0. -1.
    9000002    1    1    2    0    0  0.52812140271E+00  0.11218694863E+00  0.22038001490E+00  0.11044951238E+01  0.93800000000E+00 0. -1.
         22    1    1    2    0    0 -0.32537786236E+00 -0.13753199857E+00  0.31897333635E+01  0.32092342909E+01  0.00000000000E+00 0. -1.
</event>
<event>
 5    1  0.6776507E+001  0.1599181E+01  0.7818608E-02  0.3354253E+00
         11   -1    0    0    0    0  0.00000000000E+00  0.00000000000E+00  0.39999999674E+01  0.40000000000E+01  0.51100000000E-03 0. -1.
    9000002   -1    0    0    0    0 -0.00000000000E+00 -0.00000000000E+00  0.00000000000E+00  0.93800000000E+00  0.93800000000E+00 0. -1.
         11    1    1    2    0    0  0.83482944310E-01  0.80497035594E-01  0.11620495652E+01  0.11678221731E+01  0.51100000000E-03 0. -1.
    9000002    1    1    2    0    0 -0.30908330800E+00 -0.19335391930E+00  0.89673256711E-01  0.10103482184E+01  0.93800000000E+00 0. -1.
         22    1    1    2    0    0  0.22560036369E+00  0.11285688370E+00  0.27482771454E+01  0.27598296086E+01  0.00000000000E+00 0. -1.
</event>
<event>
 5    1  0.6776507E+001  0.1599676E+01  0.7818608E-02  0.3353715E+00
         11   -1    0    0    0    0  0.00000000000E+00  0.00000000000E+00  0.39999999674E+01  0.40000000000E+01  0.51100000000E-03 0. -1.
    9000002   -1    0    0    0    0 -0.00000000000E+00 -0.00000000000E+00  0.00000000000E+00  0.93800000000E+00  0.93800000000E+00 0.  1.
         11    1    1    2    0    0 -0.93858066536E-01 -0.10084327532E+00  0.14564979125E+01  0.14629986784E+01  0.51100000000E-03 0. -1.
    9000002    1    1    2    0    0  0.25319298101E+00  0.26836529607E+00  0.91471691731E-01  0.10120956912E+01  0.93800000000E+00 0.  1.
         22    1    1    2    0    0 -0.15933491448E+00 -0.16752202075E+00  0.24520303631E+01  0.24629056303E+01  0.00000000000E+00 0. -1.
</event>
<event>
 5    1  0.6776507E+001  0.1599370E+01  0.7818608E-02  0.3354047E+00
         11   -1    0    0    0    0  0.00000000000E+00  0.00000000000E+00  0.39999999674E+01  0.40000000000E+01  0.51100000000E-03 0.  1.
    9000002   -1    0    0    0    0 -0.00000000000E+00 -0.00000000000E+00  0.00000000000E+00  0.93800000000E+00  0.93800000000E+00 0.  1.
         11    1    1    2    0    0 -0.56398042508E-01  0.25085621842E+00  0.10420172073E+01  0.10732705637E+01  0.51100000000E-03 0.  1.
    9000002    1    1    2    0    0  0.24884948277E+00 -0.83423139824E+00  0.57344929532E+00  0.14023395399E+01  0.93800000000E+00 0.  1.
         22    1    1    2    0    0 -0.19245144026E+00  0.58337517982E+00  0.23845334648E+01  0.24623898964E+01  0.00000000000E+00 0. -1.
</event>
<event>
 5    1  0.6776507E+001  0.1599676E+01  0.7818608E-02  0.3353715E+00
         11   -1    0    0    0    0  0.00000000000E+00  0.00000000000E+00  0.39999999674E+01  0.40000000000E+01  0.51100000000E-03 0.  1.
    9000002   -1    0    0    0    0 -0.00000000000E+00 -0.00000000000E+00  0.00000000000E+00  0.93800000000E+00  0.93800000000E+00 0.  1.
         11    1    1    2    0    0 -0.46587801105E-01  0.22392261515E-01  0.49318500038E+00  0.49588662243E+00  0.51100000000E-03 0.  1.
    9000002    1    1    2    0    0  0.36573196221E+00 -0.18242955690E+00  0.11280064787E+00  0.10293728176E+01  0.93800000000E+00 0.  1.
         22    1    1    2    0    0 -0.31914416110E+00  0.16003729538E+00  0.33940143191E+01  0.34127405600E+01  0.00000000000E+00 0.  1.
</event>
<event>
 5    1  0.6776507E+001  0.1599675E+01  0.7818608E-02  0.3353717E+00
         11   -1    0    0    0    0  0.00000000000E+00  0.00000000000E+00  0.39999999674E+01  0.40000000000E+01  0.51100000000E-03 0.  1.
    9000002   -1    0    0    0    0 -0.00000000000E+00 -0.00000000000E+00  0.00000000000E+00  0.93800000000E+00  0.93800000000E+00 0. -1.
         11    1    1    2    0    0  0.44333116211E-01  0.59010829577E-01  0.35967510396E+00  0.36717045732E+00  0.51100000000E-03 0.  1.
    9000002    1    1    2    0    0 -0.44444089563E+00 -0.60045427168E+00  0.40420852203E+00  0.12654254507E+01  0.93800000000E+00 0. -1.
         22    1    1    2    0    0  0.40010777942E+00  0.54144344211E+00  0.32361163414E+01  0.33054040919E+01  0.00000000000E+00 0.  1.
</event>
<event>
 5    1  0.6776507E+001  0.1599672E+01  0.7818608E-02  0.3353720E+00
         11   -1    0    0    0    0  0.00000000000E+00  0.00000000000E+00  0.39999999674E+01  0.40000000000E+01  0.51100000000E-03 0.  1.
    9000002   -1    0    0    0    0 -0.00000000000E+00 -0.00000000000E+00  0.00000000000E+00  0.93800000000E+00  0.93800000000E+00 0. -1.
         11    1    1    2    0    0 -0.55312983614E-01 -0.27677669594E-01  0.35825823582E+00  0.36355852927E+00  0.51100000000E-03 0.  1.
    9000002    1    1    2    0    0  0.55903786030E+00  0.29324939146E+00  0.27998619899E+00  0.11647981827E+01  0.93800000000E+00 0. -1.
         22    1    1    2    0    0 -0.50372487669E+00 -0.26557172186E+00  0.33617555326E+01  0.34096432880E+01  0.00000000000E+00 0.  1.
</event>
<event>
 5    1  0.6776507E+001  0.1599632E+01  0.7818608E-02  0.3353763E+00
         11   -1    0    0    0    0  0.00000000000E+00  0.00000000000E+00  0.39999999674E+01  0.40000000000E+01  0.51100000000E-03 0.  1.
    9000002   -1    0    0    0    0 -0.00000000000E+00 -0.00000000000E+00  0.00000000000E+00  0.93800000000E+00  0.93800000000E+00 0. -1.
         11    1    1    2    0    0  0.52796969556E-01  0.12398515601E+00  0.13145772295E+01  0.13214663796E+01  0.51100000000E-03 0.  1.
    9000002    1    1    2    0    0 -0.13652702978E+00 -0.35728620572E+00  0.98498923089E-01  0.10177618093E+01  0.93800000000E+00 0. -1.
         22    1    1    2    0    0  0.83730060225E-01  0.23330104971E+00  0.25869238148E+01  0.25987718111E+01  0.00000000000E+00 0.  1.
</event>
<event>
 5    1  0.6776507E+001  0.1598390E+01  0.7818608E-02  0.3355113E+00
         11   -1    0    0    0    0  0.00000000000E+00  0.00000000000E+00  0.39999999674E+01  0.40000000000E+01  0.51100000000E-03 0. -1.
    9000002   -1    0    0    0    0 -0.00000000000E+00 -0.00000000000E+00  0.00000000000E+00  0.93800000000E+00  0.93800000000E+00 0. -1.
         11    1    1    2    0    0  0.68195859755E-01 -0.16765023362E-01  0.78826030768E+00  0.79138253398E+00  0.51100000000E-03 0. -1.
    9000002    1    1    2    0    0 -0.33431899325E+00 -0.88644411191E-01  0.81209437026E-01  0.10030284111E+01  0.93800000000E+00 0. -1.
         22    1    1    2    0    0  0.26612313349E+00  0.10540943455E+00  0.31305302227E+01  0.31435890549E+01  0.00000000000E+00 0. -1.
</event>
<event>
 5    1  0.6776507E+001  0.1599006E+01  0.7818608E-02  0.3354443E+00
         11   -1    0    0    0    0  0.00000000000E+00  0.00000000000E+00  0.39999999674E+01  0.40000000000E+01  0.51100000000E-03 0.  1.
    9000002   -1    0    0    0    0 -0.00000000000E+00 -0.00000000000E+00  0.00000000000E+00  0.93800000000E+00  0.93800000000E+00 0.  1.
         11    1    1    2    0    0  0.11430808557E+00  0.63973001154E-01  0.82933520141E+00  0.83961659150E+00  0.51100000000E-03 0.  1.
    9000002    1    1    2    0    0 -0.44906917763E+00 -0.20597649753E+00  0.16752890654E+00  0.10733123396E+01  0.93800000000E+00 0.  1.
         22    1    1    2    0    0  0.33476109206E+00  0.14200349637E+00  0.30031358594E+01  0.30250710689E+01  0.00000000000E+00 0.  1.
</event>
<event>
 5    1  0.6776507E+001  0.1598490E+01  0.7818608E-02  0.3355003E+00
         11   -1    0    0    0    0  0.00000000000E+00  0.00000000000E+00  0.39999999674E+01  0.40000000000E+01  0.51100000000E-03 0.  1.
    9000002   -1    0    0    0    0 -0.00000000000E+00 -0.00000000000E+00  0.00000000000E+00  0.93800000000E+00  0.93800000000E+00 0. -1.
         11    1    1    2    0    0 -0.99359944377E-02  0.11711442185E-01  0.18603884193E+00  0.18667242349E+00  0.51100000000E-03 0.  1.
    9000002    1    1    2    0    0  0.41540435482E+00  0.60883333979E-01  0.12021003789E+00  0.10346796662E+01  0.93800000000E+00 0. -1.
         22    1    1    2    0    0 -0.40546836038E+00 -0.72594776165E-01  0.36937510875E+01  0.37166479103E+01  0.00000000000E+00 0.  1.
</event>
<event>
 5    1  0.6776507E+001  0.1598865E+01  0.7818608E-02  0.3354596E+00
         11   -1    0    0    0    0  0.00000000000E+00  0.00000000000E+00  0.39999999674E+01  0.40000000000E+01  0.51100000000E-03 0.  1.
    9000002   -1    0    0    0    0 -0.00000000000E+00 -0.00000000000E+00  0.00000000000E+00  0.93800000000E+00  0.93800000000E+00 0.  1.
         11    1    1    2    0    0  0.24712270948E-01  0.56790271657E-01  0.49463900963E+00  0.49850159704E+00  0.51100000000E-03 0.  1.
    9000002    1    1    2    0    0 -0.29605929884E+00 -0.29787325909E+00  0.11997174805E+00  0.10347061454E+01  0.93800000000E+00 0.  1.
         22    1    1    2    0    0  0.27134702789E+00  0.24108298743E+00  0.33853892097E+01  0.34047922576E+01  0.00000000000E+00 0.  1.
</event>
<event>
 5    1  0.6776507E+001  0.1599660E+01  0.7818608E-02  0.3353732E+00
         11   -1    0    0    0    0  0.00000000000E+00  0.00000000000E+00  0.39999999674E+01  0.40000000000E+01  0.51100000000E-03 0.  1.
    9000002   -1    0    0    0    0 -0.00000000000E+00 -0.00000000000E+00  0.00000000000E+00  0.93800000000E+00  0.93800000000E+00 0.  1.
         11    1    1    2    0    0  0.40189032648E-01 -0.11586521556E+00  0.84432875497E+00  0.85318885020E+00  0.51100000000E-03 0.  1.
    9000002    1    1    2    0    0 -0.17639561709E+00  0.53666175568E+00  0.22106935175E+00  0.11170662075E+01  0.93800000000E+00 0.  1.
         22    1    1    2    0    0  0.13620658444E+00 -0.42079654012E+00  0.29346018606E+01  0.29677449423E+01  0.00000000000E+00 0.  1.
</event>
<event>
 5    1  0.6776507E+001  0.1586369E+01  0.7818608E-02  0.3368292E+00
         11   -1    0    0    0    0  0.00000000000E+00  0.00000000000E+00  0.39999999674E+01  0.40000000000E+01  0.51100000000E-03 0. -1.
    9000002   -1    0    0    0    0 -0.00000000000E+00 -0.00000000000E+00  0.00000000000E+00  0.93800000000E+00  0.93800000000E+00 0. -1.
         11    1    1    2    0    0 -0.65389164306E-01  0.15406618859E-01  0.69278797647E+00  0.69603774911E+00  0.51100000000E-03 0. -1.
    9000002    1    1    2    0    0 -0.68805633848E-03 -0.54946466864E+00  0.22117430647E+00  0.11093574579E+01  0.93800000000E+00 0. -1.
         22    1    1    2    0    0  0.66077220644E-01  0.53405804978E+00  0.30860376844E+01  0.31326047930E+01  0.00000000000E+00 0. -1.
</event>
<event>
 5    1  0.6776507E+001  0.1599677E+01  0.7818608E-02  0.3353714E+00
         11   -1    0    0    0    0  0.00000000000E+00  0.00000000000E+00  0.39999999674E+01  0.40000000000E+01  0.51100000000E-03 0. -1.
    9000002   -1    0    0    0    0 -0.00000000000E+00 -0.00000000000E+00  0.00000000000E+00  0.93800000000E+00  0.93800000000E+00 0. -1.
         11    1    1    2    0    0  0.10451848960E+00 -0.51455764899E-01  0.86966246599E+00  0.87743083847E+00  0.51100000000E-03 0. -1.
    9000002    1    1    2    0    0 -0.45826897478E+00  0.22370818950E+00  0.17832475668E+00  0.10824507038E+01  0.93800000000E+00 0. -1.
         22    1    1    2    0    0  0.35375048518E+00 -0.17225242460E+00  0.29520127447E+01  0.29781184577E+01  0.00000000000E+00 0. -1.
</event>
<event>
 5    1  0.6776507E+001  0.1599677E+01  0.7818608E-02  0.3353714E+00
         11   -1    0    0    0    0  0.00000000000E+00  0.00000000000E+00  0.39999999674E+01  0.40000000000E+01  0.51100000000E-03 0.  1.
    9000002   -1    0    0    0    0 -0.00000000000E+00 -0.00000000000E+00  0.00000000000E+00  0.93800000000E+00  0.93800000000E+00 0.  1.
         11    1    1    2    0    0 -0.12330814597E+00 -0.34887231903E+00  0.12672045729E+01  0.13201229050E+01  0.51100000000E-03 0. -1.
    9000002    1    1    2    0    0  0.31902931142E+00  0.90227578779E+00  0.71997902351E+00  0.15212150055E+01  0.93800000000E+00 0.  1.
         22    1    1    2    0    0 -0.19572116545E+00 -0.55340346876E+00  0.20128163710E+01  0.20966620894E+01  0.00000000000E+00 0.  1.
</event>
<event>
 5    1  0.6776507E+001  0.1599664E+01  0.7818608E-02  0.3353728E+00
         11   -1    0    0    0    0  0.00000000000E+00  0.00000000000E+00  0.39999999674E+01  0.40000000000E+01  0.51100000000E-03 0.  1.
    9000002   -1    0    0    0    0 -0.00000000000E+00 -0.00000000000E+00  0.00000000000E+00  0.93800000000E+00  0.93800000000E+00 0.  1.
         11    1    1    2    0    0 -0.12132456137E+00 -0.10963717710E+00  0.14806857938E+01  0.14896881018E+01  0.51100000000E-03 0.  1.
    9000002    1    1    2    0    0  0.30747160346E+00  0.29149338396E+00  0.12147384869E+00  0.10363913719E+01  0.93800000000E+00 0.  1.
         22    1    1    2    0    0 -0.18614704209E+00 -0.18185620686E+00  0.23978403249E+01  0.24119205263E+01  0.00000000000E+00 0.  1.
</event>
<event>
 5    1  0.6776507E+001  0.1598587E+01  0.7818608E-02  0.3354899E+00
         11   -1    0    0    0    0  0.00000000000E+00  0.00000000000E+00  0.39999999674E+01  0.40000000000E+01  0.51100000000E-03 0. -1.
    9000002   -1    0    0    0    0 -0.00000000000E+00 -0.00000000000E+00  0.00000000000E+00  0.93800000000E+00  0.93800000000E+00 0.  1.
         11    1    1    2    0    0 -0.22602527752E+00  0.17624277049E-01  0.13635708383E+01  0.13822893088E+01  0.51100000000E-03 0. -1.
    9000002    1    1    2    0    0  0.53371607730E+00 -0.27576782474E-02  0.19717144318E+00  0.10970784083E+01  0.93800000000E+00 0.  1.
         22    1    1    2    0    0 -0.30769079979E+00 -0.14866598802E-01  0.24392576859E+01  0.24586322829E+01  0.00000000000E+00 0. -1.
</event>
<event>
 5    1  0.1465975E+002  0.1559295E+01  0.7818608E-02  0.3398764E+00
         11   -1    0    0    0    0  0.00000000000E+00  0.00000000000E+00  0.39999999674E+01  0.40000000000E+01  0.51100000000E-03 0.  1.
    9000002   -1    0    0    0    0 -0.00000000000E+00 -0.00000000000E+00  0.00000000000E+00  0.93800000000E+00  0.93800000000E+00 0.  1.
         11    1    1    2    0    0  0.14363601613E+00  0.12872636683E+00  0.10344874309E+01  0.10523147288E+01  0.51100000000E-03 0.  1.
    9000002    1    1    2    0    0  0.88842286307E-01  0.11708653958E-01  0.35320373732E-01  0.94293243301E+00  0.93800000000E+00 0.  1.
         22    1    1    2    0    0 -0.23247830244E+00 -0.14043502079E+00  0.29301921627E+01  0.29427528381E+01  0.00000000000E+00 0.  1.
</event>
<event>
 5    1  0.6776507E+001  0.1595297E+01  0.7818608E-02  0.3358483E+00
         11   -1    0    0    0    0  0.00000000000E+00  0.00000000000E+00  0.39999999674E+01  0.40000000000E+01  0.51100000000E-03 0.  1.
    9000002   -1    0    0    0    0 -0.00000000000E+00 -0.00000000000E+00  0.00000000000E+00  0.93800000000E+00  0.93800000000E+00 0. -1.
         11    1    1    2    0    0  0.17103122734E-01 -0.23657096956E-01  0.18036191623E+00  0.18270976162E+00  0.51100000000E-03 0.  1.
    9000002    1    1    2    0    0 -0.30911249857E+00 -0.20956253924E+00  0.97353046160E-01  0.10142921720E+01  0.93800000000E+00 0. -1.
         22    1    1    2    0    0  0.29200937584E+00  0.23321963620E+00  0.37222850050E+01  0.37409980664E+01  0.00000000000E+00 0.  1.
</event>
<event>
 5    1  0.6776507E+001  0.1595693E+01  0.7818608E-02  0.3358051E+00
         11   -1    0    0    0    0  0.00000000000E+00  0.00000000000E+00  0.39999999674E+01  0.40000000000E+01  0.51100000000E-03 0. -1.
    9000002   -1    0    0    0    0 -0.00000000000E+00 -0.00000000000E+00  0.00000000000E+00  0.93800000000E+00  0.93800000000E+00 0. -1.
         11    1    1    2    0    0 -0.39797812485E-01 -0.58836963964E-01  0.12108193510E+01  0.12129012393E+01  0.51100000000E-03 0. -1.
    9000002    1    1    2    0    0  0.24832191343E-01  0.39099739839E+00  0.10673122652E+00  0.10221209116E+01  0.93800000000E+00 0. -1.
         22    1    1    2    0    0  0.14965621143E-01 -0.33216043442E+00  0.26824493898E+01  0.27029778491E+01  0.00000000000E+00 0. -1.
</event>
<event>
 5    1  0.6776507E+001  0.1579203E+01  0.7818608E-02  0.3376250E+00
         11   -1    0    0    0    0  0.00000000000E+00  0.00000000000E+00  0.39999999674E+01  0.40000000000E+01  0.51100000000E-03 0.  1.
    9000002   -1    0    0    0    0 -0.00000000000E+00 -0.00000000000E+00  0.00000000000E+00  0.93800000000E+00  0.93800000000E+00 0.  1.
         11    1    1    2    0    0 -0.21201850818E+00  0.50305682052E-01  0.13309020549E+01  0.13486226493E+01  0.51100000000E-03 0.  1.
    9000002    1    1    2    0    0  0.28185663837E+00 -0.48260441974E+00  0.23587455212E+00  0.11170635590E+01  0.93800000000E+00 0.  1.
         22    1    1    2    0    0 -0.69838130186E-01  0.43229873768E+00  0.24332233604E+01  0.24723137917E+01  0.00000000000E+00 0. -1.
</event>
<event>
 5    1  0.6776507E+001  0.1599675E+01  0.7818608E-02  0.3353717E+00
         11   -1    0    0    0    0  0.00000000000E+00  0.00000000000E+00  0.39999999674E+01  0.40000000000E+01  0.51100000000E-03 0.  1.
    9000002   -1    0    0    0    0 -0.00000000000E+00 -0.00000000000E+00  0.00000000000E+00  0.93800000000E+00  0.93800000000E+00 0. -1.
         11    1    1    2    0    0 -0.51618264653E-01  0.19636287457E-01  0.47927774054E+00  0.48244941987E+00  0.51100000000E-03 0.  1.
    9000002    1    1    2    0    0  0.42209184093E+00 -0.16513744366E+00  0.13959526982E+00  0.10510769414E+01  0.93800000000E+00 0. -1.
         22    1    1    2    0    0 -0.37047357628E+00  0.14550115620E+00  0.33811269570E+01  0.34044736387E+01  0.00000000000E+00 0.  1.
</event>
<event>
 5    1  0.6776507E+001  0.1597464E+01  0.7818608E-02  0.3356120E+00
         11   -1    0    0    0    0  0.00000000000E+00  0.00000000000E+00  0.39999999674E+01  0.40000000000E+01  0.51100000000E-03 0.  1.
    9000002   -1    0    0    0    0 -0.00000000000E+00 -0.00000000000E+00  0.00000000000E+00  0.93800000000E+00  0.93800000000E+00 0.  1.
         11    1    1    2    0    0  0.69843570050E-01 -0.27967089175E-01  0.33930518934E+00  0.34754647889E+00  0.51100000000E-03 0.  1.
    9000002    1    1    2    0    0 -0.86976610810E+00 -0.17872697980E-01  0.57530016234E+00  0.14027212100E+01  0.93800000000E+00 0.  1.
         22    1    1    2    0    0  0.79992253805E+00  0.45839787155E-01  0.30853946157E+01  0.31877323111E+01  0.00000000000E+00 0.  1.
</event>
<event>
 5    1  0.6776507E+001  0.1599661E+01  0.7818608E-02  0.3353732E+00
         11   -1    0    0    0    0  0.00000000000E+00  0.00000000000E+00  0.39999999674E+01  0.40000000000E+01  0.51100000000E-03 0. -1.
    9000002   -1    0    0    0    0 -0.00000000000E+00 -0.00000000000E+00  0.00000000000E+00  0.93800000000E+00  0.93800000000E+00 0. -1.
         11    1    1    2    0    0 -0.63368649761E-01 -0.10666713597E+00  0.93965871504E+00  0.94781444678E+00  0.51100000000E-03 0. -1.
    9000002    1    1    2    0    0  0.26298679558E+00  0.44900678205E+00  0.18602249794E+00  0.10886769561E+01  0.93800000000E+00 0. -1.
         22    1    1    2    0    0 -0.19961814582E+00 -0.34233964609E+00  0.28743187544E+01  0.29015085971E+01  0.00000000000E+00 0. -1.
</event>
<event>
 5    1  0.6776507E+001  0.1472432E+01  0.7818608E-02  0.3504634E+00
         11   -1    0    0    0    0  0.00000000000E+00  0.00000000000E+00  0.39999999674E+01  0.40000000000E+01  0.51100000000E-03 0.  1.
    9000002   -1    0    0    0    0 -0.00000000000E+00 -0.00000000000E+00  0.00000000000E+00  0.93800000000E+00  0.93800000000E+00 0. -1.
         11    1    1    2    0    0 -0.22176528151E+00  0.90761223106E-01  0.14344994273E+01  0.14543748855E+01  0.51100000000E-03 0.  1.
    9000002    1    1    2    0    0 -0.46304595407E+00  0.85505329479E-01  0.27290975856E+00  0.10844567549E+01  0.93800000000E+00 0. -1.
         22    1    1    2    0    0  0.68481123559E+00 -0.17626655259E+00  0.22925907815E+01  0.23991683596E+01  0.00000000000E+00 0. -1.
</event>
<event>
 5    1  0.6776507E+001  0.1599298E+01  0.7818608E-02  0.3354126E+00
         11   -1    0    0    0    0  0.00000000000E+00  0.00000000000E+00  0.39999999674E+01  0.40000000000E+01  0.51100000000E-03 0. -1.
    9000002   -1    0    0    0    0 -0.00000000000E+00 -0.00000000000E+00  0.00000000000E+00  0.93800000000E+00  0.93800000000E+00 0. -1.
         11    1    1    2    0    0 -0.14632261288E-01  0.95216755948E-02  0.31180314855E+00  0.31229189862E+00  0.51100000000E-03 0. -1.
    9000002    1    1    2    0    0  0.34287338807E+00 -0.11024572101E+00  0.87382598893E-01  0.10085613506E+01  0.93800000000E+00 0. -1.
         22    1    1    2    0    0 -0.32824112678E+00  0.10072404541E+00  0.36008142199E+01  0.36171467508E+01  0.00000000000E+00 0. -1.
</event>
<event>
 5    1  0.6776507E+001  0.1599677E+01  0.7818608E-02  0.3353714E+00
         11   -1    0    0    0    0  0.00000000000E+00  0.00000000000E+00  0.39999999674E+01  0.40000000000E+01  0.51100000000E-03 0. -1.
    9000002   -1    0    0    0    0 -0.00000000000E+00 -0.00000000000E+00  0.00000000000E+00  0.93800000000E+00  0.93800000000E+00 0.  1.
         11    1    1    2    0    0 -0.22175508994E-01  0.11732293114E+00  0.12543898236E+01  0.12600597264E+01  0.51100000000E-03 0. -1.
    9000002    1    1    2    0    0  0.69439467578E-01 -0.36523606845E+00  0.92908135409E-01  0.10132596641E+01  0.93800000000E+00 0.  1.
         22    1    1    2    0    0 -0.47263958584E-01  0.24791313730E+00  0.26527020084E+01  0.26646806095E+01  0.00000000000E+00 0. -1.
</event>
<event>
 5    1  0.6776507E+001  0.1598215E+01  0.7818608E-02  0.3355303E+00
         11   -1    0    0    0    0  0.00000000000E+00  0.00000000000E+00  0.39999999674E+01  0.40000000000E+01  0.51100000000E-03 0.  1.
    9000002   -1    0    0    0    0 -0.00000000000E+00 -0.00000000000E+00  0.00000000000E+00  0.93800000000E+00  0.93800000000E+00 0.  1.
         11    1    1    2    0    0  0.17547743851E+00 -0.31230598950E-02  0.11760097621E+01  0.11890337702E+01  0.51100000000E-03 0.  1.
    9000002    1    1    2    0    0 -0.50634908969E+00 -0.11271282713E+00  0.18614440022E+00  0.10879279938E+01  0.93800000000E+00 0.  1.
         22    1    1    2    0    0  0.33087165118E+00  0.11583588703E+00  0.26378458051E+01  0.26610382360E+01  0.00000000000E+00 0. -1.
</event>
<event>
 5    1  0.6776507E+001  0.1599677E+01  0.7818608E-02  0.3353714E+00
         11   -1    0    0    0    0  0.00000000000E+00  0.00000000000E+00  0.39999999674E+01  0.40000000000E+01  0.51100000000E-03 0.  1.
    9000002   -1    0    0    0    0 -0.00000000000E+00 -0.00000000000E+00  0.00000000000E+00  0.93800000000E+00  0.93800000000E+00 0.  1.
         11    1    1    2    0    0 -0.42452479742E-01 -0.11375674523E+00  0.81323299102E+00  0.82224751074E+00  0.51100000000E-03 0. -1.
    9000002    1    1    2    0    0  0.19671567155E+00  0.52980624464E+00  0.22125132245E+00  0.11172232812E+01  0.93800000000E+00 0.  1.
         22    1    1    2    0    0 -0.15426319181E+00 -0.41604949941E+00  0.29655156539E+01  0.29985292081E+01  0.00000000000E+00 0.  1.
</event>
<event>
 5    1  0.6776507E+001  0.1599660E+01  0.7818608E-02  0.3353733E+00
         11   -1    0    0    0    0  0.00000000000E+00  0.00000000000E+00  0.39999999674E+01  0.40000000000E+01  0.51100000000E-03 0. -1.
    9000002   -1    0    0    0    0 -0.00000000000E+00 -0.00000000000E+00  0.00000000000E+00  0.93800000000E+00  0.93800000000E+00 0.  1.
         11    1    1    2    0    0 -0.70739005862E-01 -0.37367518008E-01  0.90919104916E+00  0.91270420364E+00  0.51100000000E-03 0. -1.
    9000002    1    1    2    0    0  0.31235803504E+00  0.17735074449E+00  0.86613012660E-01  0.10081501092E+01  0.93800000000E+00 0.  1.
         22    1    1    2    0    0 -0.24161902918E+00 -0.13998322648E+00  0.30041959055E+01  0.30171456872E+01  0.00000000000E+00 0. -1.
</event>
<event>
 5    1  0.6776507E+001  0.1599395E+01  0.7818608E-02  0.3354020E+00
         11   -1    0    0    0    0  0.00000000000E+00  0.00000000000E+00  0.39999999674E+01  0.40000000000E+01  0.51100000000E-03 0.  1.
    9000002   -1    0    0    0    0 -0.00000000000E+00 -0.00000000000E+00  0.00000000000E+00  0.93800000000E+00  0.93800000000E+00 0. -1.
         11    1    1    2    0    0 -0.14192109796E+00  0.10757192905E+00  0.13278028368E+01  0.13396917379E+01  0.51100000000E-03 0.  1.
    9000002    1    1    2    0    0  0.43706463290E+00 -0.26217931382E+00  0.17837136760E+00  0.10823233485E+01  0.93800000000E+00 0. -1.
         22    1    1    2    0    0 -0.29514353494E+00  0.15460738477E+00  0.24938257630E+01  0.25159849136E+01  0.00000000000E+00 0.  1.
</event>
<event>
 5    1  0.6776507E+001  0.1597963E+01  0.7818608E-02  0.3355578E+00
         11   -1    0    0    0    0  0.00000000000E+00  0.00000000000E+00  0.39999999674E+01  0.40000000000E+01  0.51100000000E-03 0.  1.
    9000002   -1    0    0    0    0 -0.00000000000E+00 -0.00000000000E+00  0.00000000000E+00  0.93800000000E+00  0.93800000000E+00 0.  1.
         11    1    1    2    0    0 -0.69209230651E-01  0.54789352930E-01  0.50781960805E+00  0.51543457998E+00  0.51100000000E-03 0.  1.
    9000002    1    1    2    0    0  0.26895723668E+00 -0.38642525992E+00  0.15253282762E+00  0.10605530351E+01  0.93800000000E+00 0.  1.
         22    1    1    2    0    0 -0.19974800603E+00  0.33163590699E+00  0.33396475317E+01  0.33620123850E+01  0.00000000000E+00 0.  1.
</event>
<event>
 5    1  0.6776507E+001  0.1599604E+01  0.7818608E-02  0.3353794E+00
         11   -1    0    0    0    0  0.00000000000E+00  0.00000000000E+00  0.39999999674E+01  0.40000000000E+01  0.51100000000E-03 0. -1.
    9000002   -1    0    0    0    0 -0.00000000000E+00 -0.00000000000E+00  0.00000000000E+00  0.93800000000E+00  0.93800000000E+00 0. -1.
         11    1    1    2    0    0  0.25329110307E-02  0.10185871044E+00  0.90265237790E+00  0.90838493437E+00  0.51100000000E-03 0. -1.
    9000002    1    1    2    0    0  0.14902019924E-01 -0.46212608181E+00  0.14553128052E+00  0.10558437097E+01  0.93800000000E+00 0. -1.
         22    1    1    2    0    0 -0.17434930955E-01  0.36026737137E+00  0.29518163089E+01  0.29737713559E+01  0.00000000000E+00 0. -1.
</event>
<event>
 5    1  0.6776507E+001  0.1569104E+01  0.7818608E-02  0.3387595E+00
         11   -1    0    0    0    0  0.00000000000E+00  0.00000000000E+00  0.39999999674E+01  0.40000000000E+01  0.51100000000E-03 0.  1.
    9000002   -1    0    0    0    0 -0.00000000000E+00 -0.00000000000E+00  0.00000000000E+00  0.93800000000E+00  0.93800000000E+00 0. -1.
         11    1    1    2    0    0 -0.57117503583E-01 -0.11502837523E+00  0.25945236811E+00  0.28949909976E+00  0.51100000000E-03 0.  1.
    9000002    1    1    2    0    0  0.40806004986E+00  0.15136518291E+00  0.15496496536E+00  0.10456015318E+01  0.93800000000E+00 0. -1.
         22    1    1    2    0    0 -0.35094254628E+00 -0.36336807679E-01  0.35855826339E+01  0.36028993684E+01  0.00000000000E+00 0.  1.
</event>
<event>
 5    1  0.6776507E+001  0.1501796E+01  0.7818608E-02  0.3467371E+00
         11   -1    0    0    0    0  0.00000000000E+00  0.00000000000E+00  0.39999999674E+01  0.40000000000E+01  0.51100000000E-03 0. -1.
    9000002   -1    0    0    0    0 -0.00000000000E+00 -0.00000000000E+00  0.00000000000E+00  0.93800000000E+00  0.93800000000E+00 0. -1.
         11    1    1    2    0    0  0.90606000183E-01 -0.41528340123E-01  0.13098066065E-01  0.10052796008E+00  0.51100000000E-03 0. -1.
    9000002    1    1    2    0    0 -0.58809515792E+00 -0.14167033019E+00  0.36107481611E+00  0.11730922470E+01  0.93800000000E+00 0. -1.
         22    1    1    2    0    0  0.49748915773E+00  0.18319867031E+00  0.36258270852E+01  0.36643797929E+01  0.00000000000E+00 0. -1.
</event>
<event>
 5    1  0.6776507E+001  0.1599677E+01  0.7818608E-02  0.3353714E+00
         11   -1    0    0    0    0  0.00000000000E+00  0.00000000000E+00  0.39999999674E+01  0.40000000000E+01  0.51100000000E-03 0.  1.
    9000002   -1    0    0    0    0 -0.00000000000E+00 -0.00000000000E+00  0.00000000000E+00  0.93800000000E+00  0.93800000000E+00 0.  1.
         11    1    1    2    0    0  0.34835957610E-01  0.22639670726E-01  0.42557683923E+00  0.42760028747E+00  0.51100000000E-03 0. -1.
    9000002    1    1    2    0    0 -0.31888021295E+00 -0.20959795986E+00  0.97995522175E-01  0.10173804683E+01  0.93800000000E+00 0.  1.
         22    1    1    2    0    0  0.28404425534E+00  0.18695828914E+00  0.34764276059E+01  0.34930192442E+01  0.00000000000E+00 0.  1.
</event>
<event>
 5    1  0.6776507E+001  0.1598161E+01  0.7818608E-02  0.3355362E+00
         11   -1    0    0    0    0  0.00000000000E+00  0.00000000000E+00  0.39999999674E+01  0.40000000000E+01  0.51100000000E-03 0. -1.
    9000002   -1    0    0    0    0 -0.00000000000E+00 -0.00000000000E+00  0.00000000000E+00  0.93800000000E+00  0.93800000000E+00 0.  1.
         11    1    1    2    0    0 -0.12382888078E+00  0.17681260878E+00  0.13799453480E+01  0.13967267861E+01  0.51100000000E-03 0. -1.
    9000002    1    1    2    0    0  0.43269654280E+00 -0.40402295635E+00  0.24559749967E+00  0.11360558874E+01  0.93800000000E+00 0.  1.
         22    1    1    2    0    0 -0.30886766202E+00  0.22721034757E+00  0.23744571197E+01  0.24052173266E+01  0.00000000000E+00 0. -1.
</event>
<event>
 5    1  0.6776507E+001  0.1599677E+01  0.7818608E-02  0.3353714E+00
         11   -1    0    0    0    0  0.00000000000E+00  0.00000000000E+00  0.39999999674E+01  0.40000000000E+01  0.51100000000E-03 0. -1.
    9000002   -1    0    0    0    0 -0.00000000000E+00 -0.00000000000E+00  0.00000000000E+00  0.93800000000E+00  0.93800000000E+00 0. -1.
         11    1    1    2    0    0  0.73235061569E-01 -0.39509094800E-01  0.88110477821E+00  0.88502555563E+00  0.51100000000E-03 0. -1.
    9000002    1    1    2    0    0 -0.32306958596E+00  0.17520271089E+00  0.90746086768E-01  0.10115081807E+01  0.93800000000E+00 0. -1.
         22    1    1    2    0    0  0.24983452439E+00 -0.13569361609E+00  0.30281491024E+01  0.30414662637E+01  0.00000000000E+00 0. -1.
</event>
<event>
 5    1  0.6776507E+001  0.1599673E+01  0.7818608E-02  0.3353719E+00
         11   -1    0    0    0    0  0.00000000000E+00  0.00000000000E+00  0.39999999674E+01  0.40000000000E+01  0.51100000000E-03 0.  1.
    9000002   -1    0    0    0    0 -0.00000000000E+00 -0.00000000000E+00  0.00000000000E+00  0.93800000000E+00  0.93800000000E+00 0.  1.
         11    1    1    2    0    0 -0.11524098292E+00  0.23008498642E-01  0.74492583584E+00  0.75413834088E+00  0.51100000000E-03 0.  1.
    9000002    1    1    2    0    0  0.57764169191E+00 -0.10707447525E+00  0.24017027893E+00  0.11325460831E+01  0.93800000000E+00 0.  1.
         22    1    1    2    0    0 -0.46240070900E+00  0.84065976608E-01  0.30149038526E+01  0.30513155760E+01  0.00000000000E+00 0.  1.
</event>
<event>
 5    1  0.6776507E+001  0.1599580E+01  0.7818608E-02  0.3353819E+00
         11   -1    0    0    0    0  0.00000000000E+00  0.00000000000E+00  0.39999999674E+01  0.40000000000E+01  0.51100000000E-03 0. -1.
    9000002   -1    0    0    0    0 -0.00000000000E+00 -0.00000000000E+00  0.00000000000E+00  0.93800000000E+00  0.93800000000E+00 0.  1.
         11    1    1    2    0    0 -0.48870814570E-01  0.28687378349E-01  0.51358991230E+00  0.51670705563E+00  0.51100000000E-03 0. -1.
    9000002    1    1    2    0    0  0.36559639545E+00 -0.15697222884E+00  0.10682833180E+00  0.10244790371E+01  0.93800000000E+00 0.  1.
         22    1    1    2    0    0 -0.31672558088E+00  0.12828485049E+00  0.33795817233E+01  0.33968139073E+01  0.00000000000E+00 0. -1.
</event>
<event>
 5    1  0.6776507E+001  0.1597058E+01  0.7818608E-02  0.3356563E+00
         11   -1    0    0    0    0  0.00000000000E+00  0.00000000000E+00  0.39999999674E+01  0.40000000000E+01  0.51100000000E-03 0. -1.
    9000002   -1    0    0    0    0 -0.00000000000E+00 -0.00000000000E+00  0.00000000000E+00  0.93800000000E+00  0.93800000000E+00 0.  1.
         11    1    1    2    0    0  0.45301148168E-01  0.58835017173E-01  0.27333606400E+00  0.28324303747E+00  0.51100000000E-03 0. -1.
    9000002    1    1    2    0    0 -0.84424148789E+00 -0.42816232968E+00  0.70523448445E+00  0.15077355035E+01  0.93800000000E+00 0.  1.
         22    1    1    2    0    0  0.79894033972E+00  0.36932731251E+00  0.30214294189E+01  0.31470214590E+01  0.00000000000E+00 0. -1.
</event>
<event>
 5    1  0.6776507E+001  0.1593543E+01  0.7818608E-02  0.3360402E+00
         11   -1    0    0    0    0  0.00000000000E+00  0.00000000000E+00  0.39999999674E+01  0.40000000000E+01  0.51100000000E-03 0. -1.
    9000002   -1    0    0    0    0 -0.00000000000E+00 -0.00000000000E+00  0.00000000000E+00  0.93800000000E+00  0.93800000000E+00 0. -1.
         11    1    1    2    0    0 -0.72472220828E-02 -0.23657858105E-01  0.41415478890E+00  0.41489356077E+00  0.51100000000E-03 0. -1.
    9000002    1    1    2    0    0 -0.46061411251E+00  0.92161521956E-01  0.15572023251E+00  0.10605432087E+01  0.93800000000E+00 0. -1.
         22    1    1    2    0    0  0.46786133459E+00 -0.68503663851E-01  0.34301249460E+01  0.34625632305E+01  0.00000000000E+00 0. -1.
</event>
<event>
 5    1  0.6776507E+001  0.1599598E+01  0.7818608E-02  0.3353800E+00
         11   -1    0    0    0    0  0.00000000000E+00  0.00000000000E+00  0.39999999674E+01  0.40000000000E+01  0.51100000000E-03 0.  1.
    9000002   -1    0    0    0    0 -0.00000000000E+00 -0.00000000000E+00  0.00000000000E+00  0.93800000000E+00  0.93800000000E+00 0.  1.
         11    1    1    2    0    0  0.22592445334E-01 -0.27484600328E-02  0.14988146275E+00  0.15160041760E+00  0.51100000000E-03 0.  1.
    9000002    1    1    2    0    0 -0.47312482064E+00  0.74873544394E-01  0.15660519000E+00  0.10648109358E+01  0.93800000000E+00 0.  1.
         22    1    1    2    0    0  0.45053237531E+00 -0.72125084361E-01  0.36935133146E+01  0.37215886466E+01  0.00000000000E+00 0.  1.
</event>
<event>
 5    1  0.6776507E+001  0.1588952E+01  0.7818608E-02  0.3365442E+00
         11   -1    0    0    0    0  0.00000000000E+00  0.00000000000E+00  0.39999999674E+01  0.40000000000E+01  0.51100000000E-03 0.  1.
    9000002   -1    0    0    0    0 -0.00000000000E+00 -0.00000000000E+00  0.00000000000E+00  0.93800000000E+00  0.93800000000E+00 0.  1.
         11    1    1    2    0    0  0.57654986387E-01 -0.48027456718E-01  0.51831446691E+00  0.52371832294E+00  0.51100000000E-03 0.  1.
    9000002    1    1    2    0    0  0.19362199663E+00  0.25637152475E+00  0.77538692566E-01  0.99452103302E+00  0.93800000000E+00 0.  1.
         22    1    1    2    0    0 -0.25127698301E+00 -0.20834406803E+00  0.34041468079E+01  0.34197606440E+01  0.00000000000E+00 0.  1.
</event>
<event>
 5    1  0.6776507E+001  0.1573460E+01  0.7818608E-02  0.3382683E+00
         11   -1    0    0    0    0  0.00000000000E+00  0.00000000000E+00  0.39999999674E+01  0.40000000000E+01  0.51100000000E-03 0. -1.
    9000002   -1    0    0    0    0 -0.00000000000E+00 -0.00000000000E+00  0.00000000000E+00  0.93800000000E+00  0.93800000000E+00 0.  1.
         11    1    1    2    0    0  0.11946724947E+00 -0.13090049815E+00  0.49321637736E+00  0.52408970618E+00  0.51100000000E-03 0. -1.
    9000002    1    1    2    0    0 -0.53959072828E+00  0.52022448647E-01  0.22765728214E+00  0.11070394425E+01  0.93800000000E+00 0.  1.
         22    1    1    2    0    0  0.42012347882E+00  0.78878049501E-01  0.32791263079E+01  0.33068708513E+01  0.00000000000E+00 0. -1.
</event>
<event>
 5    1  0.6776507E+001  0.1598533E+01  0.7818608E-02  0.3354958E+00
         11   -1    0    0    0    0  0.00000000000E+00  0.00000000000E+00  0.39999999674E+01  0.40000000000E+01  0.51100000000E-03 0.  1.
    9000002   -1    0    0    0    0 -0.00000000000E+00 -0.00000000000E+00  0.00000000000E+00  0.93800000000E+00  0.93800000000E+00 0.  1.
         11    1    1    2    0    0  0.22332082266E+00  0.11349570074E+00  0.13942699250E+01  0.14165953370E+01  0.51100000000E-03 0.  1.
    9000002    1    1    2    0    0 -0.50616094070E+00 -0.26307923640E+00  0.22675991029E+00  0.11210145581E+01  0.93800000000E+00 0.  1.
         22    1    1    2    0    0  0.28284011803E+00  0.14958353567E+00  0.23789701321E+01  0.24003901050E+01  0.00000000000E+00 0.  1.
</event>
<event>
 5    1  0.6776507E+001  0.1599192E+01  0.7818608E-02  0.3354241E+00
         11   -1    0    0    0    0  0.00000000000E+00  0.00000000000E+00  0.39999999674E+01  0.40000000000E+01  0.51100000000E-03 0.  1.
    9000002   -1    0    0    0    0 -0.00000000000E+00 -0.00000000000E+00  0.00000000000E+00  0.93800000000E+00  0.93800000000E+00 0.  1.
         11    1    1    2    0    0 -0.15145119214E+00 -0.73455619435E-01  0.13402663048E+01  0.13507950328E+01  0.51100000000E-03 0.  1.
    9000002    1    1    2    0    0  0.40728768016E+00  0.14575054276E+00  0.12718821503E+00  0.10407436366E+01  0.93800000000E+00 0.  1.
         22    1    1    2    0    0 -0.25583648802E+00 -0.72294923322E-01  0.25325454475E+01  0.25464613306E+01  0.00000000000E+00 0.  1.
</event>
<event>
 5    1  0.6776507E+001  0.1599652E+01  0.7818608E-02  0.3353741E+00
         11   -1    0    0    0    0  0.00000000000E+00  0.00000000000E+00  0.39999999674E+01  0.40000000000E+01  0.51100000000E-03 0. -1.
    9000002   -1    0    0    0    0 -0.00000000000E+00 -0.00000000000E+00  0.00000000000E+00  0.93800000000E+00  0.93800000000E+00 0. -1.
         11    1    1    2    0    0  0.19248110540E-01 -0.56088618404E-01  0.57603151965E+00  0.57907598432E+00  0.51100000000E-03 0. -1.
    9000002    1    1    2    0    0 -0.15818847154E+00  0.37467965928E+00  0.11168886763E+00  0.10284584789E+01  0.93800000000E+00 0. -1.
         22    1    1    2    0    0  0.13894036100E+00 -0.31859104087E+00  0.33122795801E+01  0.33304655368E+01  0.00000000000E+00 0. -1.
</event>
<event>
 5    1  0.6776507E+001  0.1599677E+01  0.7818608E-02  0.3353714E+00
         11   -1    0    0    0    0  0.00000000000E+00  0.00000000000E+00  0.39999999674E+01  0.40000000000E+01  0.51100000000E-03 0.  1.
    9000002   -1    0    0    0    0 -0.00000000000E+00 -0.00000000000E+00  0.00000000000E+00  0.93800000000E+00  0.93800000000E+00 0. -1.
         11    1    1    2    0    0  0.91246357950E-01 -0.85968824901E-01  0.10866943768E+01  0.10939019455E+01  0.51100000000E-03 0. -1.
    9000002    1    1    2    0    0 -0.32393582301E+00  0.30516987178E+00  0.13442372963E+00  0.10468891093E+01  0.93800000000E+00 0. -1.
         22    1    1    2    0    0  0.23268946506E+00 -0.21920104688E+00  0.27788818609E+01  0.27972089452E+01  0.00000000000E+00 0.  1.
</event>
<event>
 5    1  0.6776507E+001  0.1599661E+01  0.7818608E-02  0.3353732E+00
         11   -1    0    0    0    0  0.00000000000E+00  0.00000000000E+00  0.39999999674E+01  0.40000000000E+01  0.51100000000E-03 0.  1.
    9000002   -1    0    0    0    0 -0.00000000000E+00 -0.00000000000E+00  0.00000000000E+00  0.93800000000E+00  0.93800000000E+00 0.  1.
         11    1    1    2    0    0 -0.66660767248E-01 -0.97603712981E-02  0.68945395985E+00  0.69273800719E+00  0.51100000000E-03 0.  1.
    9000002    1    1    2    0    0  0.36161736755E+00  0.68586272093E-01  0.91034618192E-01  0.10117324246E+01  0.93800000000E+00 0.  1.
         22    1    1    2    0    0 -0.29495660030E+00 -0.58825900794E-01  0.32195113893E+01  0.32335295682E+01  0.00000000000E+00 0.  1.
</event>
<event>
 5    1  0.6776507E+001  0.1599676E+01  0.7818608E-02  0.3353715E+00
         11   -1    0    0    0    0  0.00000000000E+00  0.00000000000E+00  0.39999999674E+01  0.40000000000E+01  0.51100000000E-03 0.  1.
    9000002   -1    0    0    0    0 -0.00000000000E+00 -0.00000000000E+00  0.00000000000E+00  0.93800000000E+00  0.93800000000E+00 0. -1.
         11    1    1    2    0    0  0.15039609182E+00  0.22358757763E-01  0.11253548557E+01  0.11355803410E+01  0.51100000000E-03 0.  1.
    9000002    1    1    2    0    0 -0.50938088296E+00 -0.78894996783E-01  0.18236445242E+00  0.10857228458E+01  0.93800000000E+00 0. -1.
         22    1    1    2    0    0  0.35898479115E+00  0.56536239020E-01  0.26922806593E+01  0.27166968132E+01  0.00000000000E+00 0.  1.
</event>
<event>
 5    1  0.6776507E+001  0.1598542E+01  0.7818608E-02  0.3354947E+00
         11   -1    0    0    0    0  0.00000000000E+00  0.00000000000E+00  0.39999999674E+01  0.40000000000E+01  0.51100000000E-03 0. -1.
    9000002   -1    0    0    0    0 -0.00000000000E+00 -0.00000000000E+00  0.00000000000E+00  0.93800000000E+00  0.93800000000E+00 0.  1.
         11    1    1    2    0    0  0.26030282634E-01  0.83094748876E-01  0.12148354124E+01  0.12179522376E+01  0.51100000000E-03 0. -1.
    9000002    1    1    2    0    0 -0.66684072104E-01 -0.38616021299E+00  0.10441631174E+00  0.10219164554E+01  0.93800000000E+00 0.  1.
         22    1    1    2    0    0  0.40653789470E-01  0.30306546411E+00  0.26807482433E+01  0.26981313070E+01  0.00000000000E+00 0. -1.
</event>
<event>
 5    1  0.6983284E+001  0.1559401E+01  0.7818608E-02  0.3398643E+00
         11   -1    0    0    0    0  0.00000000000E+00  0.00000000000E+00  0.39999999674E+01  0.40000000000E+01  0.51100000000E-03 0. -1.
    9000002   -1    0    0    0    0 -0.00000000000E+00 -0.00000000000E+00  0.00000000000E+00  0.93800000000E+00  0.93800000000E+00 0. -1.
         11    1    1    2    0    0 -0.14771352098E+00  0.15692355381E+00  0.13836644802E+01  0.14003470787E+01  0.51100000000E-03 0. -1.
    9000002    1    1    2    0    0  0.76812486511E-01  0.11208970191E+00  0.42413137034E-01  0.94873976071E+00  0.93800000000E+00 0. -1.
         22    1    1    2    0    0  0.70901034471E-01 -0.26901325572E+00  0.25739223501E+01  0.25889131606E+01  0.00000000000E+00 0. -1.
</event>
<event>
 5    1  0.6776507E+001  0.1599676E+01  0.7818608E-02  0.3353715E+00
         11   -1    0    0    0    0  0.00000000000E+00  0.00000000000E+00  0.39999999674E+01  0.40000000000E+01  0.51100000000E-03 0.  1.
    9000002   -1    0    0    0    0 -0.00000000000E+00 -0.00000000000E+00  0.00000000000E+00  0.93800000000E+00  0.93800000000E+00 0.  1.
         11    1    1    2    0    0 -0.41950471806E-01 -0.10754710234E+00  0.88852403249E+00  0.89599187426E+00  0.51100000000E-03 0.  1.
    9000002    1    1    2    0    0  0.18199067311E+00  0.46691073292E+00  0.17194324173E+00  0.10772811685E+01  0.93800000000E+00 0.  1.
         22    1    1    2    0    0 -0.14004020130E+00 -0.35936363059E+00  0.29395326931E+01  0.29647269572E+01  0.00000000000E+00 0.  1.
</event>
<event>
 5    1  0.6776507E+001  0.1594610E+01  0.7818608E-02  0.3359234E+00
         11   -1    0    0    0    0  0.00000000000E+00  0.00000000000E+00  0.39999999674E+01  0.40000000000E+01  0.51100000000E-03 0.  1.
    9000002   -1    0    0    0    0 -0.00000000000E+00 -0.00000000000E+00  0.00000000000E+00  0.93800000000E+00  0.93800000000E+00 0.  1.
         11    1    1    2    0    0 -0.29961589534E-01  0.54211122911E-01  0.13200595561E+01  0.13215120263E+01  0.51100000000E-03 0.  1.
    9000002    1    1    2    0    0 -0.44688592205E-01 -0.36041632871E+00  0.92694090071E-01  0.10101154363E+01  0.93800000000E+00 0.  1.
         22    1    1    2    0    0  0.74650181739E-01  0.30620520580E+00  0.25872463211E+01  0.26063725375E+01  0.00000000000E+00 0.  1.
</event>
<event>
 5    1  0.6776507E+001  0.1599428E+01  0.7818608E-02  0.3353985E+00
         11   -1    0    0    0    0  0.00000000000E+00  0.00000000000E+00  0.39999999674E+01  0.40000000000E+01  0.51100000000E-03 0. -1.
    9000002   -1    0    0    0    0 -0.00000000000E+00 -0.00000000000E+00  0.00000000000E+00  0.93800000000E+00  0.93800000000E+00 0.  1.
         11    1    1    2    0    0 -0.11069347365E-01  0.89150325204E-02  0.20813337398E+00  0.20861872097E+00  0.51100000000E-03 0. -1.
    9000002    1    1    2    0    0  0.35962465171E+00 -0.11681304401E+00  0.96382018900E-01  0.10159274930E+01  0.93800000000E+00 0.  1.
         22    1    1    2    0    0 -0.34855530435E+00  0.10789801149E+00  0.36954845745E+01  0.37134537861E+01  0.00000000000E+00 0. -1.
</event>
<event>
 5    1  0.6776507E+001  0.1599223E+01  0.7818608E-02  0.3354207E+00
         11   -1    0    0    0    0  0.00000000000E+00  0.00000000000E+00  0.39999999674E+01  0.40000000000E+01  0.51100000000E-03 0.  1.
    9000002   -1    0    0    0    0 -0.00000000000E+00 -0.00000000000E+00  0.00000000000E+00  0.93800000000E+00  0.93800000000E+00 0. -1.
         11    1    1    2    0    0  0.44890834642E-01 -0.71039701010E-01  0.79986588441E+00  0.80426831364E+00  0.51100000000E-03 0.  1.
    9000002    1    1    2    0    0 -0.13044265240E+00  0.39471812413E+00  0.11719201131E+00  0.10326643456E+01  0.93800000000E+00 0. -1.
         22    1    1    2    0    0  0.85551817761E-01 -0.32367842312E+00  0.30829420716E+01  0.31010673408E+01  0.00000000000E+00 0.  1.
</event>
<event>
 5    1  0.6776507E+001  0.1599666E+01  0.7818608E-02  0.3353726E+00
         11   -1    0    0    0    0  0.00000000000E+00  0.00000000000E+00  0.39999999674E+01  0.40000000000E+01  0.51100000000E-03 0. -1.
    9000002   -1    0    0    0    0 -0.00000000000E+00 -0.00000000000E+00  0.00000000000E+00  0.93800000000E+00  0.93800000000E+00 0. -1.
         11    1    1    2    0    0 -0.92597865166E-01 -0.22780876964E-01  0.80479037981E+00  0.81042035361E+00  0.51100000000E-03 0. -1.
    9000002    1    1    2    0    0  0.44888618717E+00  0.12377332670E+00  0.14761693075E+00  0.10575695739E+01  0.93800000000E+00 0. -1.
         22    1    1    2    0    0 -0.35628832200E+00 -0.10099244973E+00  0.30475926568E+01  0.30700100725E+01  0.00000000000E+00 0. -1.
</event>
<event>
 5    1  0.6776507E+001  0.1597522E+01  0.7818608E-02  0.3356057E+00
         11   -1    0    0    0    0  0.00000000000E+00  0.00000000000E+00  0.39999999674E+01  0.40000000000E+01  0.51100000000E-03 0. -1.
    9000002   -1    0    0    0    0 -0.00000000000E+00 -0.00000000000E+00  0.00000000000E+00  0.93800000000E+00  0.93800000000E+00 0. -1.
         11    1    1    2    0    0  0.41135008505E-01  0.17852790005E-01  0.39782664550E+00  0.40034624018E+00  0.51100000000E-03 0. -1.
    9000002    1    1    2    0    0 -0.22196688851E+00 -0.45001242186E+00  0.17435575483E+00  0.10779723599E+01  0.93800000000E+00 0. -1.
         22    1    1    2    0    0  0.18083188001E+00  0.43215963185E+00  0.34278175670E+01  0.34596813999E+01  0.00000000000E+00 0. -1.
</event>
<event>
 5    1  0.6776507E+001  0.1590236E+01  0.7818608E-02  0.3364030E+00
         11   -1    0    0    0    0  0.00000000000E+00  0.00000000000E+00  0.39999999674E+01  0.40000000000E+01  0.51100000000E-03 0. -1.
    9000002   -1    0    0    0    0 -0.00000000000E+00 -0.00000000000E+00  0.00000000000E+00  0.93800000000E+00  0.93800000000E+00 0.  1.
         11    1    1    2    0    0  0.36295063522E-01 -0.28341658879E-01  0.77468198648E+00  0.77604962635E+00  0.51100000000E-03 0. -1.
    9000002    1    1    2    0    0 -0.15998863139E+00 -0.32684478899E+00  0.96638842171E-01  0.10107457366E+01  0.93800000000E+00 0.  1.
         22    1    1    2    0    0  0.12369356787E+00  0.35518644787E+00  0.31286791387E+01  0.31512046370E+01  0.00000000000E+00 0. -1.
</event>
<event>
 5    1  0.6776507E+001  0.1599670E+01  0.7818608E-02  0.3353722E+00
         11   -1    0    0    0    0  0.00000000000E+00  0.00000000000E+00  0.39999999674E+01  0.40000000000E+01  0.51100000000E-03 0.  1.
    9000002   -1    0    0    0    0 -0.00000000000E+00 -0.00000000000E+00  0.00000000000E+00  0.93800000000E+00  0.93800000000E+00 0. -1.
         11    1    1    2    0    0 -0.77087648336E-01  0.67416611189E-01  0.66098530697E+00  0.66887169333E+00  0.51100000000E-03 0.  1.
    9000002    1    1    2    0    0  0.42707393429E+00 -0.39055667314E+00  0.23265083778E+00  0.11264533158E+01  0.93800000000E+00 0. -1.
         22    1    1    2    0    0 -0.34998628596E+00  0.32314006196E+00  0.31063638226E+01  0.31426749909E+01  0.00000000000E+00 0.  1.
</event>
<event>
 5    1  0.6776507E+001  0.1599158E+01  0.7818608E-02  0.3354278E+00
         11   -1    0    0    0    0  0.00000000000E+00  0.00000000000E+00  0.39999999674E+01  0.40000000000E+01  0.51100000000E-03 0. -1.
    9000002   -1    0    0    0    0 -0.00000000000E+00 -0.00000000000E+00  0.00000000000E+00  0.93800000000E+00  0.93800000000E+00 0.  1.
         11    1    1    2    0    0 -0.96067923169E-02 -0.63852391883E-01  0.31811671551E+00  0.32460425785E+00  0.51100000000E-03 0. -1.
    9000002    1    1    2    0    0  0.14359135813E-01  0.59931802598E+00  0.25123357015E+00  0.11412057605E+01  0.93800000000E+00 0.  1.
         22    1    1    2    0    0 -0.47523434964E-02 -0.53546563409E+00  0.34306496817E+01  0.34721899816E+01  0.00000000000E+00 0. -1.
</event>
<event>
 5    1  0.6776507E+001  0.1599637E+01  0.7818608E-02  0.3353757E+00
         11   -1    0    0    0    0  0.00000000000E+00  0.00000000000E+00  0.39999999674E+01  0.40000000000E+01  0.51100000000E-03 0. -1.
    9000002   -1    0    0    0    0 -0.00000000000E+00 -0.00000000000E+00  0.00000000000E+00  0.93800000000E+00  0.93800000000E+00 0. -1.
         11    1    1    2    0    0  0.20474400631E-01  0.41426297607E-01  0.32276993292E+00  0.32606138982E+00  0.51100000000E-03 0. -1.
    9000002    1    1    2    0    0 -0.20125455110E+00 -0.46256697037E+00  0.17436725568E+00  0.10792217271E+01  0.93800000000E+00 0. -1.
         22    1    1    2    0    0  0.18078015047E+00  0.42114067276E+00  0.35028627788E+01  0.35327168831E+01  0.00000000000E+00 0. -1.
</event>
<event>
 5    1  0.6776507E+001  0.1599522E+01  0.7818608E-02  0.3353882E+00
         11   -1    0    0    0    0  0.00000000000E+00  0.00000000000E+00  0.39999999674E+01  0.40000000000E+01  0.51100000000E-03 0. -1.
    9000002   -1    0    0    0    0 -0.00000000000E+00 -0.00000000000E+00  0.00000000000E+00  0.93800000000E+00  0.93800000000E+00 0.  1.
         11    1    1    2    0    0  0.25569078169E-01  0.13069661677E+00  0.12074728817E+01  0.12147947993E+01  0.51100000000E-03 0. -1.
    9000002    1    1    2    0    0 -0.10892756894E+00 -0.38525147095E+00  0.10824828658E+00  0.10255952431E+01  0.93800000000E+00 0.  1.
         22    1    1    2    0    0  0.83358490768E-01  0.25455485418E+00  0.26842787991E+01  0.26976099576E+01  0.00000000000E+00 0. -1.
</event>
<event>
 5    1  0.6776507E+001  0.1598237E+01  0.7818608E-02  0.3355279E+00
         11   -1    0    0    0    0  0.00000000000E+00  0.00000000000E+00  0.39999999674E+01  0.40000000000E+01  0.51100000000E-03 0. -1.
    9000002   -1    0    0    0    0 -0.00000000000E+00 -0.00000000000E+00  0.00000000000E+00  0.93800000000E+00  0.93800000000E+00 0.  1.
         11    1    1    2    0    0 -0.22917046799E-02 -0.12183591549E-01  0.43928776471E+00  0.43946295994E+00  0.51100000000E-03 0. -1.
    9000002    1    1    2    0    0  0.24219403661E+00  0.23957982906E+00  0.78891981272E-01  0.10010616318E+01  0.93800000000E+00 0.  1.
         22    1    1    2    0    0 -0.23990233193E+00 -0.22739623752E+00  0.34818202214E+01  0.34974754083E+01  0.00000000000E+00 0.  1.
</event>
<event>
 5    1  0.6776507E+001  0.1594672E+01  0.7818608E-02  0.3359166E+00
         11   -1    0    0    0    0  0.00000000000E+00  0.00000000000E+00  0.39999999674E+01  0.40000000000E+01  0.51100000000E-03 0. -1.
    9000002   -1    0    0    0    0 -0.00000000000E+00 -0.00000000000E+00  0.00000000000E+00  0.93800000000E+00  0.93800000000E+00 0.  1.
         11    1    1    2    0    0  0.23706732094E-01 -0.30915822037E-01  0.80650864124E+00  0.80744922238E+00  0.51100000000E-03 0. -1.
    9000002    1    1    2    0    0  0.18102547585E+00  0.30547181512E+00  0.88641315814E-01  0.10068686784E+01  0.93800000000E+00 0.  1.
         22    1    1    2    0    0 -0.20473220794E+00 -0.27455599309E+00  0.31048500103E+01  0.31236820992E+01  0.00000000000E+00 0. -1.
</event>
<event>
 5    1  0.6776507E+001  0.1599665E+01  0.7818608E-02  0.3353727E+00
         11   -1    0    0    0    0  0.00000000000E+00  0.00000000000E+00  0.39999999674E+01  0.40000000000E+01  0.51100000000E-03 0. -1.
    9000002   -1    0    0    0    0 -0.00000000000E+00 -0.00000000000E+00  0.00000000000E+00  0.93800000000E+00  0.93800000000E+00 0. -1.
         11    1    1    2    0    0  0.16962678921E+00  0.12671251687E+00  0.97190959462E+00  0.99470489633E+00  0.51100000000E-03 0. -1.
    9000002    1    1    2    0    0 -0.61902529003E+00 -0.45270610852E+00  0.42859513261E+00  0.12851742754E+01  0.93800000000E+00 0. -1.
         22    1    1    2    0    0  0.44939850082E+00  0.32599359165E+00  0.25994952401E+01  0.26581208283E+01  0.00000000000E+00 0. -1.
</event>
<event>
 5    1  0.6776507E+001  0.1599674E+01  0.7818608E-02  0.3353717E+00
         11   -1    0    0    0    0  0.00000000000E+00  0.00000000000E+00  0.39999999674E+01  0.40000000000E+01  0.51100000000E-03 0. -1.
    9000002   -1    0    0    0    0 -0.00000000000E+00 -0.00000000000E+00  0.00000000000E+00  0.93800000000E+00  0.93800000000E+00 0. -1.
         11    1    1    2    0    0 -0.84556830658E-02  0.23565400332E-01  0.21618856379E+00  0.21763405732E+00  0.51100000000E-03 0. -1.
    9000002    1    1    2    0    0  0.13751321933E+00 -0.42539425393E+00  0.13569258845E+00  0.10479153760E+01  0.93800000000E+00 0. -1.
         22    1    1    2    0    0 -0.12905753626E+00  0.40182885360E+00  0.36481188151E+01  0.36724505666E+01  0.00000000000E+00 0. -1.
</event>
<event>
 5    1  0.6776507E+001  0.1599557E+01  0.7818608E-02  0.3353845E+00
         11   -1    0    0    0    0  0.00000000000E+00  0.00000000000E+00  0.39999999674E+01  0.40000000000E+01  0.51100000000E-03 0. -1.
    9000002   -1    0    0    0    0 -0.00000000000E+00 -0.00000000000E+00  0.00000000000E+00  0.93800000000E+00  0.93800000000E+00 0. -1.
         11    1    1    2    0    0  0.72469238362E-01 -0.32900362003E-01  0.70019522301E+00  0.70470407674E+00  0.51100000000E-03 0. -1.
    9000002    1    1    2    0    0 -0.35280331574E+00  0.20983023309E+00  0.11391228832E+00  0.10302033371E+01  0.93800000000E+00 0. -1.
         22    1    1    2    0    0  0.28033407738E+00 -0.17692987108E+00  0.31858924560E+01  0.32030925862E+01  0.00000000000E+00 0. -1.
</event>
<event>
 5    1  0.6776507E+001  0.1590814E+01  0.7818608E-02  0.3363394E+00
         11   -1    0    0    0    0  0.00000000000E+00  0.00000000000E+00  0.39999999674E+01  0.40000000000E+01  0.51100000000E-03 0. -1.
    9000002   -1    0    0    0    0 -0.00000000000E+00 -0.00000000000E+00  0.00000000000E+00  0.93800000000E+00  0.93800000000E+00 0. -1.
         11    1    1    2    0    0  0.19724995024E+00 -0.15464611893E-01  0.91963666963E+00  0.94067984051E+00  0.51100000000E-03 0. -1.
    9000002    1    1    2    0    0 -0.49569461030E+00 -0.18246277170E+00  0.20017245707E+00  0.10949515160E+01  0.93800000000E+00 0. -1.
         22    1    1    2    0    0  0.29844466006E+00  0.19792738359E+00  0.28801908407E+01  0.29023686435E+01  0.00000000000E+00 0. -1.
</event>
<event>
 5    1  0.6776507E+001  0.1491180E+01  0.7818608E-02  0.3480660E+00
         11   -1    0    0    0    0  0.00000000000E+00  0.00000000000E+00  0.39999999674E+01  0.40000000000E+01  0.51100000000E-03 0.  1.
    9000002   -1    0    0    0    0 -0.00000000000E+00 -0.00000000000E+00  0.00000000000E+00  0.93800000000E+00  0.93800000000E+00 0.  1.
         11    1    1    2    0    0  0.15458480172E+00  0.23639572155E+00  0.68673304874E+00  0.74255096757E+00  0.51100000000E-03 0.  1.
    9000002    1    1    2    0    0  0.15991994383E+00  0.42769729688E-01  0.10333148487E+00  0.95808404327E+00  0.93800000000E+00 0.  1.
         22    1    1    2    0    0 -0.31450474555E+00 -0.27916545124E+00  0.32099354338E+01  0.32373649892E+01  0.00000000000E+00 0.  1.
</event>
<event>
 5    1  0.6776507E+001  0.1597749E+01  0.7818608E-02  0.3355810E+00
         11   -1    0    0    0    0  0.00000000000E+00  0.00000000000E+00  0.39999999674E+01  0.40000000000E+01  0.51100000000E-03 0.  1.
    9000002   -1    0    0    0    0 -0.00000000000E+00 -0.00000000000E+00  0.00000000000E+00  0.93800000000E+00  0.93800000000E+00 0. -1.
         11    1    1    2    0    0 -0.16018596009E+00 -0.87688055399E-01  0.11990747862E+01  0.12129012082E+01  0.51100000000E-03 0.  1.
    9000002    1    1    2    0    0  0.38117657277E+00  0.20118592962E+00  0.12747152285E+00  0.10401270822E+01  0.93800000000E+00 0. -1.
         22    1    1    2    0    0 -0.22099061267E+00 -0.11349787422E+00  0.26734536583E+01  0.26849717096E+01  0.00000000000E+00 0.  1.
</event>
<event>
 5    1  0.6776507E+001  0.1598383E+01  0.7818608E-02  0.3355121E+00
         11   -1    0    0    0    0  0.00000000000E+00  0.00000000000E+00  0.39999999674E+01  0.40000000000E+01  0.51100000000E-03 0.  1.
    9000002   -1    0    0    0    0 -0.00000000000E+00 -0.00000000000E+00  0.00000000000E+00  0.93800000000E+00  0.93800000000E+00 0.  1.
         11    1    1    2    0    0  0.11503671546E+00  0.56034621864E-02  0.14271325450E+01  0.14317724703E+01  0.51100000000E-03 0.  1.
    9000002    1    1    2    0    0 -0.33861840797E+00  0.96687451805E-01  0.84214559483E-01  0.10054585927E+01  0.93800000000E+00 0.  1.
         22    1    1    2    0    0  0.22358169251E+00 -0.10229091399E+00  0.24886528629E+01  0.25007689370E+01  0.00000000000E+00 0.  1.
</event>
<event>
 5    1  0.6776507E+001  0.1599297E+01  0.7818608E-02  0.3354127E+00
         11   -1    0    0    0    0  0.00000000000E+00  0.00000000000E+00  0.39999999674E+01  0.40000000000E+01  0.51100000000E-03 0. -1.
    9000002   -1    0    0    0    0 -0.00000000000E+00 -0.00000000000E+00  0.00000000000E+00  0.93800000000E+00  0.93800000000E+00 0.  1.
         11    1    1    2    0    0 -0.39454740778E-02 -0.45181769989E-02  0.22044604183E-01  0.22851835455E-01  0.51100000000E-03 0. -1.
    9000002    1    1    2    0    0  0.25872691304E+00  0.34486200711E+00  0.12622101204E+00  0.10400217129E+01  0.93800000000E+00 0.  1.
         22    1    1    2    0    0 -0.25478143896E+00 -0.34034383011E+00  0.38517343511E+01  0.38751264516E+01  0.00000000000E+00 0. -1.
</event>
<event>
 5    1  0.6776507E+001  0.1520814E+01  0.7818608E-02  0.3444064E+00
         11   -1    0    0    0    0  0.00000000000E+00  0.00000000000E+00  0.39999999674E+01  0.40000000000E+01  0.51100000000E-03 0. -1.
    9000002   -1    0    0    0    0 -0.00000000000E+00 -0.00000000000E+00  0.00000000000E+00  0.93800000000E+00  0.93800000000E+00 0.  1.
         11    1    1    2    0    0 -0.39520812980E+00  0.27481130660E-01  0.14248948411E+01  0.14789422733E+01  0.51100000000E-03 0. -1.
    9000002    1    1    2    0    0  0.20559401316E+00  0.10437841251E+00  0.97634315836E-01  0.97084510138E+00  0.93800000000E+00 0.  1.
         22    1    1    2    0    0  0.18961411664E+00 -0.13185954317E+00  0.24774708104E+01  0.24882126253E+01  0.00000000000E+00 0. -1.
</event>
<event>
 5    1  0.6776507E+001  0.1599034E+01  0.7818608E-02  0.3354413E+00
         11   -1    0    0    0    0  0.00000000000E+00  0.00000000000E+00  0.39999999674E+01  0.40000000000E+01  0.51100000000E-03 0. -1.
    9000002   -1    0    0    0    0 -0.00000000000E+00 -0.00000000000E+00  0.00000000000E+00  0.93800000000E+00  0.93800000000E+00 0. -1.
         11    1    1    2    0    0  0.11817661077E+00  0.12382081657E+00  0.30900639676E+00  0.35324569397E+00  0.51100000000E-03 0. -1.
    9000002    1    1    2    0    0 -0.91682934443E+00 -0.82121996111E+00  0.15224029271E+01  0.21708369224E+01  0.93800000000E+00 0. -1.
         22    1    1    2    0    0  0.79865273366E+00  0.69739914454E+00  0.21685906435E+01  0.24139173836E+01  0.00000000000E+00 0. -1.
</event>
<event>
 5    1  0.6776507E+001  0.1599677E+01  0.7818608E-02  0.3353714E+00
         11   -1    0    0    0    0  0.00000000000E+00  0.00000000000E+00  0.39999999674E+01  0.40000000000E+01  0.51100000000E-03 0.  1.
    9000002   -1    0    0    0    0 -0.00000000000E+00 -0.00000000000E+00  0.00000000000E+00  0.93800000000E+00  0.93800000000E+00 0.  1.
         11    1    1    2    0    0  0.19213720492E+00  0.87878768238E-01  0.13910074938E+01  0.14069617949E+01  0.51100000000E-03 0.  1.
    9000002    1    1    2    0    0 -0.52204384891E+00 -0.23979550348E+00  0.22904739592E+00  0.11235383275E+01  0.93800000000E+00 0.  1.
         22    1    1    2    0    0  0.32990664400E+00  0.15191673525E+00  0.23799450777E+01  0.24074998776E+01  0.00000000000E+00 0.  1.
</event>
<event>
 5    1  0.6776507E+001  0.1597795E+01  0.7818608E-02  0.3355760E+00
         11   -1    0    0    0    0  0.00000000000E+00  0.00000000000E+00  0.39999999674E+01  0.40000000000E+01  0.51100000000E-03 0.  1.
    9000002   -1    0    0    0    0 -0.00000000000E+00 -0.00000000000E+00  0.00000000000E+00  0.93800000000E+00  0.93800000000E+00 0. -1.
         11    1    1    2    0    0 -0.39473057310E-01  0.37133678259E-01  0.63485670028E+00  0.63716585229E+00  0.51100000000E-03 0.  1.
    9000002    1    1    2    0    0  0.47033678099E+00 -0.19228035994E+00  0.17869742876E+00  0.10816492941E+01  0.93800000000E+00 0. -1.
         22    1    1    2    0    0 -0.43086372368E+00  0.15514668168E+00  0.31864458383E+01  0.32191848536E+01  0.00000000000E+00 0.  1.
</event>
<event>
 5    1  0.6776507E+001  0.1599552E+01  0.7818608E-02  0.3353850E+00
         11   -1    0    0    0    0  0.00000000000E+00  0.00000000000E+00  0.39999999674E+01  0.40000000000E+01  0.51100000000E-03 0.  1.
    9000002   -1    0    0    0    0 -0.00000000000E+00 -0.00000000000E+00  0.00000000000E+00  0.93800000000E+00  0.93800000000E+00 0.  1.
         11    1    1    2    0    0 -0.16750470918E-01  0.18223145815E-01  0.20124854585E+00  0.20276562738E+00  0.51100000000E-03 0.  1.
    9000002    1    1    2    0    0  0.32200422701E+00 -0.23717279399E+00  0.10798417951E+00  0.10253985759E+01  0.93800000000E+00 0.  1.
         22    1    1    2    0    0 -0.30525375609E+00  0.21894964817E+00  0.36907672420E+01  0.37098357967E+01  0.00000000000E+00 0.  1.
</event>
<event>
 5    1  0.6776507E+001  0.1599390E+01  0.7818608E-02  0.3354026E+00
         11   -1    0    0    0    0  0.00000000000E+00  0.00000000000E+00  0.39999999674E+01  0.40000000000E+01  0.51100000000E-03 0.  1.
    9000002   -1    0    0    0    0 -0.00000000000E+00 -0.00000000000E+00  0.00000000000E+00  0.93800000000E+00  0.93800000000E+00 0.  1.
         11    1    1    2    0    0  0.71191136056E-02  0.67411194976E-02  0.70771328988E-01  0.71449048967E-01  0.51100000000E-03 0.  1.
    9000002    1    1    2    0    0 -0.11360246370E+00 -0.48192644738E+00  0.16794590839E+00  0.10738754344E+01  0.93800000000E+00 0.  1.
         22    1    1    2    0    0  0.10648335009E+00  0.47518532788E+00  0.37612827300E+01  0.37926755166E+01  0.00000000000E+00 0.  1.
</event>
<event>
 5    1  0.6776507E+001  0.1474059E+01  0.7818608E-02  0.3502527E+00
         11   -1    0    0    0    0  0.00000000000E+00  0.00000000000E+00  0.39999999674E+01  0.40000000000E+01  0.51100000000E-03 0. -1.
    9000002   -1    0    0    0    0 -0.00000000000E+00 -0.00000000000E+00  0.00000000000E+00  0.93800000000E+00  0.93800000000E+00 0. -1.
         11    1    1    2    0    0  0.25125902761E+00  0.49610051505E-01  0.37410108341E+00  0.45336975847E+00  0.51100000000E-03 0. -1.
    9000002    1    1    2    0    0  0.30044436298E-01  0.10047910536E+00  0.10538722497E+00  0.94971005362E+00  0.93800000000E+00 0. -1.
         22    1    1    2    0    0 -0.28130346391E+00 -0.15008915687E+00  0.35205116590E+01  0.35349201879E+01  0.00000000000E+00 0. -1.
</event>
<event>
 5    1  0.6776507E+001  0.1599099E+01  0.7818608E-02  0.3354342E+00
         11   -1    0    0    0    0  0.00000000000E+00  0.00000000000E+00  0.39999999674E+01  0.40000000000E+01  0.51100000000E-03 0. -1.
    9000002   -1    0    0    0    0 -0.00000000000E+00 -0.00000000000E+00  0.00000000000E+00  0.93800000000E+00  0.93800000000E+00 0.  1.
         11    1    1    2    0    0  0.11321377640E+00  0.42929892465E-01  0.12746613319E+01  0.12803991983E+01  0.51100000000E-03 0. -1.
    9000002    1    1    2    0    0 -0.41760561948E+00 -0.91864377750E-01  0.12427124583E+00  0.10383259892E+01  0.93800000000E+00 0.  1.
         22    1    1    2    0    0  0.30439184308E+00  0.48934485285E-01  0.26010673896E+01  0.26192748125E+01  0.00000000000E+00 0. -1.
</event>
<event>
 5    1  0.6776507E+001  0.1597883E+01  0.7818608E-02  0.3355665E+00
         11   -1    0    0    0    0  0.00000000000E+00  0.00000000000E+00  0.39999999674E+01  0.40000000000E+01  0.51100000000E-03 0.  1.
    9000002   -1    0    0    0    0 -0.00000000000E+00 -0.00000000000E+00  0.00000000000E+00  0.93800000000E+00  0.93800000000E+00 0.  1.
         11    1    1    2    0    0  0.27651304452E-01  0.35712526479E-01  0.89619544228E+00  0.89733299899E+00  0.51100000000E-03 0.  1.
    9000002    1    1    2    0    0 -0.23988956665E+00 -0.29944711163E+00  0.10057474711E+00  0.10184178203E+01  0.93800000000E+00 0.  1.
         22    1    1    2    0    0  0.21223826220E+00  0.26373458515E+00  0.30032297780E+01  0.30222491808E+01  0.00000000000E+00 0.  1.
</event>
<event>
 5    1  0.6776507E+001  0.1466943E+01  0.7818608E-02  0.3511779E+00
         11   -1    0    0    0    0  0.00000000000E+00  0.00000000000E+00  0.39999999674E+01  0.40000000000E+01  0.51100000000E-03 0. -1.
    9000002   -1    0    0    0    0 -0.00000000000E+00 -0.00000000000E+00  0.00000000000E+00  0.93800000000E+00  0.93800000000E+00 0.  1.
         11    1    1    2    0    0 -0.13273156884E+00  0.44174099885E+00  0.12051614076E+01  0.12904135225E+01  0.51100000000E-03 0. -1.
    9000002    1    1    2    0    0  0.86570360793E-02 -0.17216178572E+00  0.12564745844E+00  0.96194901557E+00  0.93800000000E+00 0.  1.
         22    1    1    2    0    0  0.12407453276E+00 -0.26957921313E+00  0.26691911013E+01  0.26856374620E+01  0.00000000000E+00 0. -1.
</event>
<event>
 5    1  0.6776507E+001  0.1599674E+01  0.7818608E-02  0.3353717E+00
         11   -1    0    0    0    0  0.00000000000E+00  0.00000000000E+00  0.39999999674E+01  0.40000000000E+01  0.51100000000E-03 0.  1.
    9000002   -1    0    0    0    0 -0.00000000000E+00 -0.00000000000E+00  0.00000000000E+00  0.93800000000E+00  0.93800000000E+00 0.  1.
         11    1    1    2    0    0 -0.16189015047E+00  0.12955919045E+00  0.14340756815E+01  0.14489883802E+01  0.51100000000E-03 0.  1.
    9000002    1    1    2    0    0  0.42339822701E+00 -0.34181865591E+00  0.20429814660E+00  0.11034889147E+01  0.93800000000E+00 0.  1.
         22    1    1    2    0    0 -0.26150807654E+00  0.21225946546E+00  0.23616261392E+01  0.23855227051E+01  0.00000000000E+00 0.  1.
</event>
<event>
 5    1  0.6776507E+001  0.1599638E+01  0.7818608E-02  0.3353756E+00
         11   -1    0    0    0    0  0.00000000000E+00  0.00000000000E+00  0.39999999674E+01  0.40000000000E+01  0.51100000000E-03 0.  1.
    9000002   -1    0    0    0    0 -0.00000000000E+00 -0.00000000000E+00  0.00000000000E+00  0.93800000000E+00  0.93800000000E+00 0. -1.
         11    1    1    2    0    0  0.67262829740E-01 -0.45601539821E-01  0.63397631303E+00  0.63916352783E+00  0.51100000000E-03 0.  1.
    9000002    1    1    2    0    0 -0.38219081202E+00  0.29842765977E+00  0.16059346257E+00  0.10680651409E+01  0.93800000000E+00 0. -1.
         22    1    1    2    0    0  0.31492798228E+00 -0.25282611995E+00  0.32054301918E+01  0.32307713313E+01  0.00000000000E+00 0.  1.
</event>
<event>
 5    1  0.6776507E+001  0.1599197E+01  0.7818608E-02  0.3354236E+00
         11   -1    0    0    0    0  0.00000000000E+00  0.00000000000E+00  0.39999999674E+01  0.40000000000E+01  0.51100000000E-03 0. -1.
    9000002   -1    0    0    0    0 -0.00000000000E+00 -0.00000000000E+00  0.00000000000E+00  0.93800000000E+00  0.93800000000E+00 0. -1.
         11    1    1    2    0    0 -0.29357607519E+00  0.27442277783E-01  0.88659025523E+00  0.93433534254E+00  0.51100000000E-03 0. -1.
    9000002    1    1    2    0    0  0.10452064643E+01 -0.17238339019E+00  0.93824945399E+00  0.16977422137E+01  0.93800000000E+00 0. -1.
         22    1    1    2    0    0 -0.75163038915E+00  0.14494111241E+00  0.21751602581E+01  0.23059224437E+01  0.00000000000E+00 0. -1.
</event>
<event>
 5    1  0.6776507E+001  0.1599494E+01  0.7818608E-02  0.3353912E+00
         11   -1    0    0    0    0  0.00000000000E+00  0.00000000000E+00  0.39999999674E+01  0.40000000000E+01  0.51100000000E-03 0. -1.
    9000002   -1    0    0    0    0 -0.00000000000E+00 -0.00000000000E+00  0.00000000000E+00  0.93800000000E+00  0.93800000000E+00 0.  1.
         11    1    1    2    0    0  0.53862628831E-01 -0.31212645457E+00  0.12811664580E+01  0.13197393154E+01  0.51100000000E-03 0. -1.
    9000002    1    1    2    0    0 -0.16609730365E+00  0.86679595921E+00  0.59208781413E+00  0.14175103276E+01  0.93800000000E+00 0.  1.
         22    1    1    2    0    0  0.11223467482E+00 -0.55466950465E+00  0.21267456953E+01  0.22007503570E+01  0.00000000000E+00 0. -1.
</event>
<event>
 5    1  0.6776507E+001  0.1581534E+01  0.7818608E-02  0.3373653E+00
         11   -1    0    0    0    0  0.00000000000E+00  0.00000000000E+00  0.39999999674E+01  0.40000000000E+01  0.51100000000E-03 0. -1.
    9000002   -1    0    0    0    0 -0.00000000000E+00 -0.00000000000E+00  0.00000000000E+00  0.93800000000E+00  0.93800000000E+00 0.  1.
         11    1    1    2    0    0  0.18328360222E+00 -0.24120599150E+00  0.13912339819E+01  0.14238347736E+01  0.51100000000E-03 0. -1.
    9000002    1    1    2    0    0 -0.94447239913E-01  0.52042821701E+00  0.20946055378E+00  0.10970339711E+01  0.93800000000E+00 0.  1.
         22    1    1    2    0    0 -0.88836362302E-01 -0.27922222551E+00  0.23993054317E+01  0.24171312552E+01  0.00000000000E+00 0. -1.
</event>
<event>
 5    1  0.6776507E+001  0.1519343E+01  0.7818608E-02  0.3445844E+00
         11   -1    0    0    0    0  0.00000000000E+00  0.00000000000E+00  0.39999999674E+01  0.40000000000E+01  0.51100000000E-03 0.  1.
    9000002   -1    0    0    0    0 -0.00000000000E+00 -0.00000000000E+00  0.00000000000E+00  0.93800000000E+00  0.93800000000E+00 0.  1.
         11    1    1    2    0    0  0.85404414717E-01 -0.21412010373E+00  0.63120595141E+00  0.67198403783E+00  0.51100000000E-03 0.  1.
    9000002    1    1    2    0    0  0.11172556681E+00 -0.10099594210E+00  0.76809770563E-01  0.95311411880E+00  0.93800000000E+00 0.  1.
         22    1    1    2    0    0 -0.19712998153E+00  0.31511604584E+00  0.32919842454E+01  0.33129018434E+01  0.00000000000E+00 0.  1.
</event>
<event>
 5    1  0.6776507E+001  0.1537397E+01  0.7818608E-02  0.3424245E+00
         11   -1    0    0    0    0  0.00000000000E+00  0.00000000000E+00  0.39999999674E+01  0.40000000000E+01  0.51100000000E-03 0. -1.
    9000002   -1    0    0    0    0 -0.00000000000E+00 -0.00000000000E+00  0.00000000000E+00  0.93800000000E+00  0.93800000000E+00 0. -1.
         11    1    1    2    0    0 -0.23055464378E+00  0.52720677887E-01  0.68422982929E+00  0.72395140311E+00  0.51100000000E-03 0. -1.
    9000002    1    1    2    0    0 -0.74008526581E-03 -0.31700519280E+00  0.11808667148E+00  0.99713655132E+00  0.93800000000E+00 0. -1.
         22    1    1    2    0    0  0.23129472905E+00  0.26428451492E+00  0.31976834666E+01  0.32169120456E+01  0.00000000000E+00 0. -1.
</event>
<event>
 5    1  0.6776507E+001  0.1543305E+01  0.7818608E-02  0.3417295E+00
         11   -1    0    0    0    0  0.00000000000E+00  0.00000000000E+00  0.39999999674E+01  0.40000000000E+01  0.51100000000E-03 0. -1.
    9000002   -1    0    0    0    0 -0.00000000000E+00 -0.00000000000E+00  0.00000000000E+00  0.93800000000E+00  0.93800000000E+00 0. -1.
         11    1    1    2    0    0  0.17995133556E+00  0.54166124026E-01  0.85401419908E+00  0.87444666248E+00  0.51100000000E-03 0. -1.
    9000002    1    1    2    0    0  0.22678722207E+00  0.74434827168E-02  0.78101320478E-01  0.96821054827E+00  0.93800000000E+00 0. -1.
         22    1    1    2    0    0 -0.40673855763E+00 -0.61609606743E-01  0.30678844478E+01  0.30953427892E+01  0.00000000000E+00 0. -1.
</event>
<event>
 5    1  0.6776507E+001  0.1598956E+01  0.7818608E-02  0.3354497E+00
         11   -1    0    0    0    0  0.00000000000E+00  0.00000000000E+00  0.39999999674E+01  0.40000000000E+01  0.51100000000E-03 0. -1.
    9000002   -1    0    0    0    0 -0.00000000000E+00 -0.00000000000E+00  0.00000000000E+00  0.93800000000E+00  0.93800000000E+00 0. -1.
         11    1    1    2    0    0 -0.78615308408E-01 -0.59809589031E-01  0.76110299019E+00  0.76748653177E+00  0.51100000000E-03 0. -1.
    9000002    1    1    2    0    0  0.38144977150E+00  0.17521438118E+00  0.11977249728E+00  0.10345982112E+01  0.93800000000E+00 0. -1.
         22    1    1    2    0    0 -0.30283446309E+00 -0.11540479215E+00  0.31191244799E+01  0.31359152570E+01  0.00000000000E+00 0. -1.
</event>
<event>
 5    1  0.6776507E+001  0.1599325E+01  0.7818608E-02  0.3354097E+00
         11   -1    0    0    0    0  0.00000000000E+00  0.00000000000E+00  0.39999999674E+01  0.40000000000E+01  0.51100000000E-03 0.  1.
    9000002   -1    0    0    0    0 -0.00000000000E+00 -0.00000000000E+00  0.00000000000E+00  0.93800000000E+00  0.93800000000E+00 0.  1.
         11    1    1    2    0    0  0.22756621405E-01 -0.10317966903E-02  0.34638660133E+00  0.34713522887E+00  0.51100000000E-03 0.  1.
    9000002    1    1    2    0    0 -0.35134406851E+00 -0.98497165745E-01  0.89711349765E-01  0.10104634939E+01  0.93800000000E+00 0.  1.
         22    1    1    2    0    0  0.32858744710E+00  0.99528962435E-01  0.35639020163E+01  0.35804012773E+01  0.00000000000E+00 0.  1.
</event>
<event>
 5    1  0.6776507E+001  0.1594393E+01  0.7818608E-02  0.3359472E+00
         11   -1    0    0    0    0  0.00000000000E+00  0.00000000000E+00  0.39999999674E+01  0.40000000000E+01  0.51100000000E-03 0. -1.
    9000002   -1    0    0    0    0 -0.00000000000E+00 -0.00000000000E+00  0.00000000000E+00  0.93800000000E+00  0.93800000000E+00 0.  1.
         11    1    1    2    0    0  0.34148067710E-01  0.39305055316E-01  0.10870612201E+01  0.10883075555E+01  0.51100000000E-03 0. -1.
    9000002    1    1    2    0    0  0.12891488772E+00 -0.27087122533E+00  0.64180984814E-01  0.98689080845E+00  0.93800000000E+00 0.  1.
         22    1    1    2    0    0 -0.16306295543E+00  0.23156617001E+00  0.28487577624E+01  0.28628016361E+01  0.00000000000E+00 0. -1.
</event>
<event>
 5    1  0.6776507E+001  0.1486440E+01  0.7818608E-02  0.3486659E+00
         11   -1    0    0    0    0  0.00000000000E+00  0.00000000000E+00  0.39999999674E+01  0.40000000000E+01  0.51100000000E-03 0. -1.
    9000002   -1    0    0    0    0 -0.00000000000E+00 -0.00000000000E+00  0.00000000000E+00  0.93800000000E+00  0.93800000000E+00 0. -1.
         11    1    1    2    0    0 -0.12551720149E-01  0.30907796133E+00  0.59211898005E+00  0.66805080609E+00  0.51100000000E-03 0. -1.
    9000002    1    1    2    0    0  0.23183418993E+00 -0.77679354438E-01  0.13164675599E+00  0.97824130054E+00  0.93800000000E+00 0. -1.
         22    1    1    2    0    0 -0.21928246978E+00 -0.23139860689E+00  0.32762342313E+01  0.32917078934E+01  0.00000000000E+00 0. -1.
</event>
<event>
 5    1  0.6776507E+001  0.1577408E+01  0.7818608E-02  0.3378255E+00
         11   -1    0    0    0    0  0.00000000000E+00  0.00000000000E+00  0.39999999674E+01  0.40000000000E+01  0.51100000000E-03 0.  1.
    9000002   -1    0    0    0    0 -0.00000000000E+00 -0.00000000000E+00  0.00000000000E+00  0.93800000000E+00  0.93800000000E+00 0.  1.
         11    1    1    2    0    0 -0.98504249781E-02 -0.22746957637E-01  0.13784503197E-01  0.28367738778E-01  0.51100000000E-03 0.  1.
    9000002    1    1    2    0    0 -0.29564545675E+00 -0.16413006006E+00  0.94593456190E-01  0.10015671893E+01  0.93800000000E+00 0.  1.
         22    1    1    2    0    0  0.30549588173E+00  0.18687701770E+00  0.38916220080E+01  0.39080650719E+01  0.00000000000E+00 0.  1.
</event>
<event>
 5    1  0.6776507E+001  0.1599672E+01  0.7818608E-02  0.3353720E+00
         11   -1    0    0    0    0  0.00000000000E+00  0.00000000000E+00  0.39999999674E+01  0.40000000000E+01  0.51100000000E-03 0.  1.
    9000002   -1    0    0    0    0 -0.00000000000E+00 -0.00000000000E+00  0.00000000000E+00  0.93800000000E+00  0.93800000000E+00 0.  1.
         11    1    1    2    0    0  0.66261710949E-01  0.38337208971E-01  0.79261609585E+00  0.79630452244E+00  0.51100000000E-03 0.  1.
    9000002    1    1    2    0    0 -0.33614276266E+00 -0.18401834643E+00  0.98852894603E-01  0.10180720031E+01  0.93800000000E+00 0.  1.
         22    1    1    2    0    0  0.26988105171E+00  0.14568113745E+00  0.31085309769E+01  0.31236234745E+01  0.00000000000E+00 0.  1.
</event>
<event>
 5    1  0.6776507E+001  0.1599672E+01  0.7818608E-02  0.3353720E+00
         11   -1    0    0    0    0  0.00000000000E+00  0.00000000000E+00  0.39999999674E+01  0.40000000000E+01  0.51100000000E-03 0.  1.
    9000002   -1    0    0    0    0 -0.00000000000E+00 -0.00000000000E+00  0.00000000000E+00  0.93800000000E+00  0.93800000000E+00 0. -1.
         11    1    1    2    0    0  0.91285139320E-02 -0.98197930806E-01  0.10501260994E+01  0.10547470072E+01  0.51100000000E-03 0.  1.
    9000002    1    1    2    0    0 -0.32029736810E-01  0.37426619936E+00  0.94893165675E-01  0.10148644269E+01  0.93800000000E+00 0. -1.
         22    1    1    2    0    0  0.22901222878E-01 -0.27606826856E+00  0.28549807023E+01  0.28683885659E+01  0.00000000000E+00 0.  1.
</event>
<event>
 5    1  0.6776507E+001  0.1599668E+01  0.7818608E-02  0.3353724E+00
         11   -1    0    0    0    0  0.00000000000E+00  0.00000000000E+00  0.39999999674E+01  0.40000000000E+01  0.51100000000E-03 0. -1.
    9000002   -1    0    0    0    0 -0.00000000000E+00 -0.00000000000E+00  0.00000000000E+00  0.93800000000E+00  0.93800000000E+00 0. -1.
         11    1    1    2    0    0 -0.13334582345E+00 -0.30617345723E+00  0.11780075510E+01  0.12244285793E+01  0.51100000000E-03 0. -1.
    9000002    1    1    2    0    0  0.36702231047E+00  0.86610440185E+00  0.69000012261E+00  0.14969256429E+01  0.93800000000E+00 0. -1.
         22    1    1    2    0    0 -0.23367648702E+00 -0.55993094463E+00  0.21319922938E+01  0.22166457778E+01  0.00000000000E+00 0. -1.
</event>
<event>
 5    1  0.6776507E+001  0.1599640E+01  0.7818608E-02  0.3353754E+00
         11   -1    0    0    0    0  0.00000000000E+00  0.00000000000E+00  0.39999999674E+01  0.40000000000E+01  0.51100000000E-03 0.  1.
    9000002   -1    0    0    0    0 -0.00000000000E+00 -0.00000000000E+00  0.00000000000E+00  0.93800000000E+00  0.93800000000E+00 0.  1.
         11    1    1    2    0    0  0.47143027297E-01 -0.15714295517E+00  0.84169460453E+00  0.85753509654E+00  0.51100000000E-03 0.  1.
    9000002    1    1    2    0    0 -0.22304782413E+00  0.66249089106E+00  0.34917183525E+00  0.12208232809E+01  0.93800000000E+00 0.  1.
         22    1    1    2    0    0  0.17590479684E+00 -0.50534793589E+00  0.28091335276E+01  0.28596416226E+01  0.00000000000E+00 0.  1.
</event>
<event>
 5    1  0.6776507E+001  0.1597869E+01  0.7818608E-02  0.3355679E+00
         11   -1    0    0    0    0  0.00000000000E+00  0.00000000000E+00  0.39999999674E+01  0.40000000000E+01  0.51100000000E-03 0.  1.
    9000002   -1    0    0    0    0 -0.00000000000E+00 -0.00000000000E+00  0.00000000000E+00  0.93800000000E+00  0.93800000000E+00 0. -1.
         11    1    1    2    0    0 -0.17959215217E-01  0.54423929498E-02  0.30606385903E+00  0.30663903857E+00  0.51100000000E-03 0.  1.
    9000002    1    1    2    0    0  0.45179073576E+00 -0.32676861608E+00  0.21676679188E+00  0.11125306465E+01  0.93800000000E+00 0. -1.
         22    1    1    2    0    0 -0.43383152054E+00  0.32132622313E+00  0.34771693165E+01  0.35188303149E+01  0.00000000000E+00 0.  1.
</event>
<event>
 5    1  0.6776507E+001  0.1599676E+01  0.7818608E-02  0.3353716E+00
         11   -1    0    0    0    0  0.00000000000E+00  0.00000000000E+00  0.39999999674E+01  0.40000000000E+01  0.51100000000E-03 0. -1.
    9000002   -1    0    0    0    0 -0.00000000000E+00 -0.00000000000E+00  0.00000000000E+00  0.93800000000E+00  0.93800000000E+00 0. -1.
         11    1    1    2    0    0 -0.87566855362E-01 -0.75069196861E-02  0.89290893386E+00  0.89722401511E+00  0.51100000000E-03 0. -1.
    9000002    1    1    2    0    0  0.37909793258E+00  0.36544370134E-01  0.97607273950E-01  0.10170653437E+01  0.93800000000E+00 0. -1.
         22    1    1    2    0    0 -0.29153107722E+00 -0.29037450448E-01  0.30094837595E+01  0.30237106412E+01  0.00000000000E+00 0. -1.
</event>
<event>
 5    1  0.6776507E+001  0.1599493E+01  0.7818608E-02  0.3353914E+00
         11   -1    0    0    0    0  0.00000000000E+00  0.00000000000E+00  0.39999999674E+01  0.40000000000E+01  0.51100000000E-03 0.  1.
    9000002   -1    0    0    0    0 -0.00000000000E+00 -0.00000000000E+00  0.00000000000E+00  0.93800000000E+00  0.93800000000E+00 0. -1.
         11    1    1    2    0    0 -0.79870378619E-01 -0.12224255208E+00  0.11710547490E+01  0.11801237245E+01  0.51100000000E-03 0.  1.
    9000002    1    1    2    0    0  0.26644834310E+00  0.35397902897E+00  0.13334383516E+00  0.10459065211E+01  0.93800000000E+00 0. -1.
         22    1    1    2    0    0 -0.18657796448E+00 -0.23173647689E+00  0.26956013832E+01  0.27119697544E+01  0.00000000000E+00 0.  1.
</event>
<event>
 5    1  0.6776507E+001  0.1577214E+01  0.7818608E-02  0.3378472E+00
         11   -1    0    0    0    0  0.00000000000E+00  0.00000000000E+00  0.39999999674E+01  0.40000000000E+01  0.51100000000E-03 0. -1.
    9000002   -1    0    0    0    0 -0.00000000000E+00 -0.00000000000E+00  0.00000000000E+00  0.93800000000E+00  0.93800000000E+00 0.  1.
         11    1    1    2    0    0 -0.91163549956E-01  0.81378191092E-01  0.99745665492E+00  0.10049145448E+01  0.51100000000E-03 0. -1.
    9000002    1    1    2    0    0  0.53258334794E-01  0.21661647009E+00  0.50164098586E-01  0.96546340279E+00  0.93800000000E+00 0.  1.
         22    1    1    2    0    0  0.37905215162E-01 -0.29799466119E+00  0.29523792139E+01  0.29676220524E+01  0.00000000000E+00 0. -1.
</event>
