<event>
 5    1  0.6440325E+001  0.1572718E+01  0.7818608E-02  0.3383517E+00
         11   -1    0    0    0    0  0.00000000000E+00  0.00000000000E+00  0.39999999674E+01  0.40000000000E+01  0.51100000000E-03 0.  1.
    9000002   -1    0    0    0    0 -0.00000000000E+00 -0.00000000000E+00  0.00000000000E+00  0.93800000000E+00  0.93800000000E+00 0.  1.
         11    1    1    2    0    0 -0.26221671151E+00 -0.11748803254E+00  0.11071701107E+01  0.11438474359E+01  0.51100000000E-03 0.  1.
    9000002    1    1    2    0    0  0.51760992599E+00 -0.87006429355E-01  0.21468217089E+00  0.10960942426E+01  0.93800000000E+00 0.  1.
         22    1    1    2    0    0 -0.25539321448E+00  0.20449446190E+00  0.26781476858E+01  0.26980583214E+01  0.00000000000E+00 0.  1.
</event>
<event>
 5    1  0.1349458E+002  0.1555063E+01  0.7818608E-02  0.3403629E+00
         11   -1    0    0    0    0  0.00000000000E+00  0.00000000000E+00  0.39999999674E+01  0.40000000000E+01  0.51100000000E-03 0.  1.
    9000002   -1    0    0    0    0 -0.00000000000E+00 -0.00000000000E+00  0.00000000000E+00  0.93800000000E+00  0.93800000000E+00 0.  1.
         11    1    1    2    0    0 -0.16028036382E+00 -0.12598315085E+00  0.14011736236E+01  0.14159270228E+01  0.51100000000E-03 0.  1.
    9000002    1    1    2    0    0 -0.96219536217E-01 -0.56587237576E-01  0.41595604404E-01  0.94553398083E+00  0.93800000000E+00 0.  1.
         22    1    1    2    0    0  0.25649990003E+00  0.18257038843E+00  0.25572307393E+01  0.25765389963E+01  0.00000000000E+00 0.  1.
</event>
<event>
 5    1  0.6440325E+001  0.1596683E+01  0.7818608E-02  0.3356972E+00
         11   -1    0    0    0    0  0.00000000000E+00  0.00000000000E+00  0.39999999674E+01  0.40000000000E+01  0.51100000000E-03 0.  1.
    9000002   -1    0    0    0    0 -0.00000000000E+00 -0.00000000000E+00  0.00000000000E+00  0.93800000000E+00  0.93800000000E+00 0. -1.
         11    1    1    2    0    0  0.18339209112E-01 -0.13353410522E+00  0.79237748809E+00  0.80375993219E+00  0.51100000000E-03 0.  1.
    9000002    1    1    2    0    0  0.10338575631E+00  0.47290511389E+00  0.16265527045E+00  0.10680021528E+01  0.93800000000E+00 0. -1.
         22    1    1    2    0    0 -0.12172496542E+00 -0.33937100866E+00  0.30449672088E+01  0.30662379150E+01  0.00000000000E+00 0.  1.
</event>
<event>
 5    1  0.6440325E+001  0.1595512E+01  0.7818608E-02  0.3358249E+00
         11   -1    0    0    0    0  0.00000000000E+00  0.00000000000E+00  0.39999999674E+01  0.40000000000E+01  0.51100000000E-03 0. -1.
    9000002   -1    0    0    0    0 -0.00000000000E+00 -0.00000000000E+00  0.00000000000E+00  0.93800000000E+00  0.93800000000E+00 0. -1.
         11    1    1    2    0    0  0.98294587241E-01  0.15386522003E+00  0.10083669484E+01  0.10247636291E+01  0.51100000000E-03 0. -1.
    9000002    1    1    2    0    0 -0.27042761808E+00 -0.34837643259E+00  0.13550738785E+00  0.10453245848E+01  0.93800000000E+00 0. -1.
         22    1    1    2    0    0  0.17213303084E+00  0.19451121256E+00  0.28561256311E+01  0.28679117861E+01  0.00000000000E+00 0. -1.
</event>
<event>
 5    1  0.6440325E+001  0.1599551E+01  0.7818608E-02  0.3353851E+00
         11   -1    0    0    0    0  0.00000000000E+00  0.00000000000E+00  0.39999999674E+01  0.40000000000E+01  0.51100000000E-03 0. -1.
    9000002   -1    0    0    0    0 -0.00000000000E+00 -0.00000000000E+00  0.00000000000E+00  0.93800000000E+00  0.93800000000E+00 0. -1.
         11    1    1    2    0    0 -0.78983377657E-01 -0.96939606454E-01  0.11345503480E+01  0.11414203496E+01  0.51100000000E-03 0. -1.
    9000002    1    1    2    0    0  0.29819892012E+00  0.30020555815E+00  0.12124823866E+00  0.10361424171E+01  0.93800000000E+00 0. -1.
         22    1    1    2    0    0 -0.21921554246E+00 -0.20326595170E+00  0.27442013807E+01  0.27604372333E+01  0.00000000000E+00 0. -1.
</event>
<event>
 5    1  0.6545933E+001  0.1593498E+01  0.7818608E-02  0.3360451E+00
         11   -1    0    0    0    0  0.00000000000E+00  0.00000000000E+00  0.39999999674E+01  0.40000000000E+01  0.51100000000E-03 0.  1.
    9000002   -1    0    0    0    0 -0.00000000000E+00 -0.00000000000E+00  0.00000000000E+00  0.93800000000E+00  0.93800000000E+00 0. -1.
         11    1    1    2    0    0  0.34266732934E-01 -0.10909127478E+00  0.13619737623E+01  0.13667654903E+01  0.51100000000E-03 0.  1.
    9000002    1    1    2    0    0  0.15248704848E+00  0.24907907476E+00  0.61690735498E-01  0.98434873510E+00  0.93800000000E+00 0. -1.
         22    1    1    2    0    0 -0.18675378142E+00 -0.13998779998E+00  0.25763354696E+01  0.25868857746E+01  0.00000000000E+00 0.  1.
</event>
<event>
 5    1  0.6440325E+001  0.1589209E+01  0.7818608E-02  0.3365159E+00
         11   -1    0    0    0    0  0.00000000000E+00  0.00000000000E+00  0.39999999674E+01  0.40000000000E+01  0.51100000000E-03 0.  1.
    9000002   -1    0    0    0    0 -0.00000000000E+00 -0.00000000000E+00  0.00000000000E+00  0.93800000000E+00  0.93800000000E+00 0.  1.
         11    1    1    2    0    0 -0.62947120629E-01 -0.21900637705E-01  0.94625201574E-01  0.11574181535E+00  0.51100000000E-03 0.  1.
    9000002    1    1    2    0    0  0.71345073572E+00  0.47726992095E+00  0.56951401168E+00  0.13931937192E+01  0.93800000000E+00 0.  1.
         22    1    1    2    0    0 -0.65050361509E+00 -0.45536928324E+00  0.33358607541E+01  0.34290644654E+01  0.00000000000E+00 0.  1.
</event>
<event>
 5    1  0.6440325E+001  0.1599669E+01  0.7818608E-02  0.3353723E+00
         11   -1    0    0    0    0  0.00000000000E+00  0.00000000000E+00  0.39999999674E+01  0.40000000000E+01  0.51100000000E-03 0. -1.
    9000002   -1    0    0    0    0 -0.00000000000E+00 -0.00000000000E+00  0.00000000000E+00  0.93800000000E+00  0.93800000000E+00 0. -1.
         11    1    1    2    0    0  0.70588048011E-01 -0.97164825360E-01  0.10500542835E+01  0.10569001539E+01  0.51100000000E-03 0. -1.
    9000002    1    1    2    0    0 -0.26603614877E+00  0.34870154795E+00  0.13044389296E+00  0.10436606782E+01  0.93800000000E+00 0. -1.
         22    1    1    2    0    0  0.19544810076E+00 -0.25153672259E+00  0.28195017909E+01  0.28374391679E+01  0.00000000000E+00 0. -1.
</event>
<event>
 5    1  0.7436347E+001  0.1568028E+01  0.7818608E-02  0.3388813E+00
         11   -1    0    0    0    0  0.00000000000E+00  0.00000000000E+00  0.39999999674E+01  0.40000000000E+01  0.51100000000E-03 0. -1.
    9000002   -1    0    0    0    0 -0.00000000000E+00 -0.00000000000E+00  0.00000000000E+00  0.93800000000E+00  0.93800000000E+00 0.  1.
         11    1    1    2    0    0  0.11557998185E+00 -0.13471767192E+00  0.12058800434E+01  0.12188742854E+01  0.51100000000E-03 0. -1.
    9000002    1    1    2    0    0  0.17395081908E+00  0.10660046966E+00  0.51700538631E-01  0.96132174285E+00  0.93800000000E+00 0.  1.
         22    1    1    2    0    0 -0.28953080093E+00  0.28117202264E-01  0.27424193853E+01  0.27578039718E+01  0.00000000000E+00 0. -1.
</event>
<event>
 5    1  0.6440325E+001  0.1598802E+01  0.7818608E-02  0.3354665E+00
         11   -1    0    0    0    0  0.00000000000E+00  0.00000000000E+00  0.39999999674E+01  0.40000000000E+01  0.51100000000E-03 0.  1.
    9000002   -1    0    0    0    0 -0.00000000000E+00 -0.00000000000E+00  0.00000000000E+00  0.93800000000E+00  0.93800000000E+00 0.  1.
         11    1    1    2    0    0  0.25631298601E-01  0.12718849460E+00  0.12995715647E+01  0.13060323080E+01  0.51100000000E-03 0.  1.
    9000002    1    1    2    0    0 -0.17663569819E+00 -0.37082371551E+00  0.11469190949E+00  0.10303924650E+01  0.93800000000E+00 0.  1.
         22    1    1    2    0    0  0.15100439958E+00  0.24363522090E+00  0.25857364932E+01  0.26015752270E+01  0.00000000000E+00 0.  1.
</event>
<event>
 5    1  0.6440325E+001  0.1599641E+01  0.7818608E-02  0.3353753E+00
         11   -1    0    0    0    0  0.00000000000E+00  0.00000000000E+00  0.39999999674E+01  0.40000000000E+01  0.51100000000E-03 0.  1.
    9000002   -1    0    0    0    0 -0.00000000000E+00 -0.00000000000E+00  0.00000000000E+00  0.93800000000E+00  0.93800000000E+00 0.  1.
         11    1    1    2    0    0  0.65785672187E-02  0.28486023880E-01  0.25376469019E+00  0.25544375156E+00  0.51100000000E-03 0.  1.
    9000002    1    1    2    0    0 -0.77002641731E-01 -0.38795982334E+00  0.10549330379E+00  0.10234329819E+01  0.93800000000E+00 0.  1.
         22    1    1    2    0    0  0.70424074512E-01  0.35947379946E+00  0.36407419734E+01  0.36591232665E+01  0.00000000000E+00 0.  1.
</event>
<event>
 5    1  0.6440325E+001  0.1599474E+01  0.7818608E-02  0.3353935E+00
         11   -1    0    0    0    0  0.00000000000E+00  0.00000000000E+00  0.39999999674E+01  0.40000000000E+01  0.51100000000E-03 0.  1.
    9000002   -1    0    0    0    0 -0.00000000000E+00 -0.00000000000E+00  0.00000000000E+00  0.93800000000E+00  0.93800000000E+00 0. -1.
         11    1    1    2    0    0 -0.18678206606E+00 -0.61367893816E-01  0.85934011979E+00  0.88154368082E+00  0.51100000000E-03 0.  1.
    9000002    1    1    2    0    0  0.80328709329E+00  0.27949668090E+00  0.54293743351E+00  0.13776841458E+01  0.93800000000E+00 0. -1.
         22    1    1    2    0    0 -0.61650502723E+00 -0.21812878708E+00  0.25977224141E+01  0.26787721734E+01  0.00000000000E+00 0.  1.
</event>
<event>
 5    1  0.6440325E+001  0.1599110E+01  0.7818608E-02  0.3354330E+00
         11   -1    0    0    0    0  0.00000000000E+00  0.00000000000E+00  0.39999999674E+01  0.40000000000E+01  0.51100000000E-03 0.  1.
    9000002   -1    0    0    0    0 -0.00000000000E+00 -0.00000000000E+00  0.00000000000E+00  0.93800000000E+00  0.93800000000E+00 0.  1.
         11    1    1    2    0    0  0.58295028524E-01  0.50422583005E-01  0.54170013526E+00  0.54715632582E+00  0.51100000000E-03 0.  1.
    9000002    1    1    2    0    0 -0.28766705478E+00 -0.30155029524E+00  0.11788980285E+00  0.10331635498E+01  0.93800000000E+00 0.  1.
         22    1    1    2    0    0  0.22937202626E+00  0.25112771223E+00  0.33404100293E+01  0.33576801244E+01  0.00000000000E+00 0.  1.
</event>
<event>
 5    1  0.6440325E+001  0.1597648E+01  0.7818608E-02  0.3355920E+00
         11   -1    0    0    0    0  0.00000000000E+00  0.00000000000E+00  0.39999999674E+01  0.40000000000E+01  0.51100000000E-03 0.  1.
    9000002   -1    0    0    0    0 -0.00000000000E+00 -0.00000000000E+00  0.00000000000E+00  0.93800000000E+00  0.93800000000E+00 0. -1.
         11    1    1    2    0    0  0.18098003647E-01  0.72614173620E-01  0.30441595062E+00  0.31347996437E+00  0.51100000000E-03 0.  1.
    9000002    1    1    2    0    0  0.67686455680E-01 -0.65514560471E+00  0.30891028184E+00  0.11870411879E+01  0.93800000000E+00 0. -1.
         22    1    1    2    0    0 -0.85784459327E-01  0.58253143108E+00  0.33866737349E+01  0.34374788477E+01  0.00000000000E+00 0.  1.
</event>
<event>
 5    1  0.6440325E+001  0.1568338E+01  0.7818608E-02  0.3388462E+00
         11   -1    0    0    0    0  0.00000000000E+00  0.00000000000E+00  0.39999999674E+01  0.40000000000E+01  0.51100000000E-03 0.  1.
    9000002   -1    0    0    0    0 -0.00000000000E+00 -0.00000000000E+00  0.00000000000E+00  0.93800000000E+00  0.93800000000E+00 0. -1.
         11    1    1    2    0    0 -0.12029335568E+00 -0.45202129440E-01  0.13072863695E+01  0.13135873161E+01  0.51100000000E-03 0.  1.
    9000002    1    1    2    0    0 -0.13566616265E+00 -0.20625015088E+00  0.64786854045E-01  0.97210378504E+00  0.93800000000E+00 0. -1.
         22    1    1    2    0    0  0.25595951834E+00  0.25145228032E+00  0.26279267438E+01  0.26523088989E+01  0.00000000000E+00 0.  1.
</event>
<event>
 5    1  0.6440325E+001  0.1599676E+01  0.7818608E-02  0.3353715E+00
         11   -1    0    0    0    0  0.00000000000E+00  0.00000000000E+00  0.39999999674E+01  0.40000000000E+01  0.51100000000E-03 0. -1.
    9000002   -1    0    0    0    0 -0.00000000000E+00 -0.00000000000E+00  0.00000000000E+00  0.93800000000E+00  0.93800000000E+00 0.  1.
         11    1    1    2    0    0 -0.28182634868E-01  0.40322422856E-01  0.52252616320E+00  0.52483712811E+00  0.51100000000E-03 0. -1.
    9000002    1    1    2    0    0  0.20922843646E+00 -0.30468189404E+00  0.91801758520E-01  0.10123631552E+01  0.93800000000E+00 0.  1.
         22    1    1    2    0    0 -0.18104580159E+00  0.26435947118E+00  0.33856720456E+01  0.34007997167E+01  0.00000000000E+00 0. -1.
</event>
<event>
 5    1  0.6440325E+001  0.1564262E+01  0.7818608E-02  0.3393090E+00
         11   -1    0    0    0    0  0.00000000000E+00  0.00000000000E+00  0.39999999674E+01  0.40000000000E+01  0.51100000000E-03 0. -1.
    9000002   -1    0    0    0    0 -0.00000000000E+00 -0.00000000000E+00  0.00000000000E+00  0.93800000000E+00  0.93800000000E+00 0. -1.
         11    1    1    2    0    0  0.49957638037E-01 -0.98510891079E-01  0.29426598088E+00  0.31431336256E+00  0.51100000000E-03 0. -1.
    9000002    1    1    2    0    0  0.26778840167E+00  0.55408600685E-02  0.75524031945E-01  0.97841157424E+00  0.93800000000E+00 0. -1.
         22    1    1    2    0    0 -0.31774603970E+00  0.92970031011E-01  0.36302099545E+01  0.36452750632E+01  0.00000000000E+00 0. -1.
</event>
<event>
 5    1  0.6440325E+001  0.1599677E+01  0.7818608E-02  0.3353714E+00
         11   -1    0    0    0    0  0.00000000000E+00  0.00000000000E+00  0.39999999674E+01  0.40000000000E+01  0.51100000000E-03 0.  1.
    9000002   -1    0    0    0    0 -0.00000000000E+00 -0.00000000000E+00  0.00000000000E+00  0.93800000000E+00  0.93800000000E+00 0.  1.
         11    1    1    2    0    0 -0.88462455070E-01 -0.45007560752E-01  0.91587519493E+00  0.92123771107E+00  0.51100000000E-03 0.  1.
    9000002    1    1    2    0    0  0.37568974213E+00  0.19285805009E+00  0.12064824206E+00  0.10357301811E+01  0.93800000000E+00 0.  1.
         22    1    1    2    0    0 -0.28722728706E+00 -0.14785048934E+00  0.29634765304E+01  0.29810321078E+01  0.00000000000E+00 0.  1.
</event>
<event>
 5    1  0.6440325E+001  0.1506945E+01  0.7818608E-02  0.3460998E+00
         11   -1    0    0    0    0  0.00000000000E+00  0.00000000000E+00  0.39999999674E+01  0.40000000000E+01  0.51100000000E-03 0. -1.
    9000002   -1    0    0    0    0 -0.00000000000E+00 -0.00000000000E+00  0.00000000000E+00  0.93800000000E+00  0.93800000000E+00 0.  1.
         11    1    1    2    0    0  0.77605206153E-01  0.23602904398E+00  0.55413673357E+00  0.60728910598E+00  0.51100000000E-03 0. -1.
    9000002    1    1    2    0    0 -0.15620473361E-01  0.82163207831E-01  0.75444693364E-01  0.94473842606E+00  0.93800000000E+00 0.  1.
         22    1    1    2    0    0 -0.61984732792E-01 -0.31819225181E+00  0.33704185404E+01  0.33859724680E+01  0.00000000000E+00 0. -1.
</event>
<event>
 5    1  0.6440325E+001  0.1595979E+01  0.7818608E-02  0.3357739E+00
         11   -1    0    0    0    0  0.00000000000E+00  0.00000000000E+00  0.39999999674E+01  0.40000000000E+01  0.51100000000E-03 0.  1.
    9000002   -1    0    0    0    0 -0.00000000000E+00 -0.00000000000E+00  0.00000000000E+00  0.93800000000E+00  0.93800000000E+00 0. -1.
         11    1    1    2    0    0 -0.28142312781E-01 -0.71258781321E-01  0.13403443122E+01  0.13425322864E+01  0.51100000000E-03 0.  1.
    9000002    1    1    2    0    0  0.26890126839E+00  0.12640358200E+00  0.61776241161E-01  0.98587324827E+00  0.93800000000E+00 0. -1.
         22    1    1    2    0    0 -0.24075895561E+00 -0.55144800682E-01  0.25978794140E+01  0.26095944654E+01  0.00000000000E+00 0.  1.
</event>
<event>
 5    1  0.6440325E+001  0.1597998E+01  0.7818608E-02  0.3355539E+00
         11   -1    0    0    0    0  0.00000000000E+00  0.00000000000E+00  0.39999999674E+01  0.40000000000E+01  0.51100000000E-03 0. -1.
    9000002   -1    0    0    0    0 -0.00000000000E+00 -0.00000000000E+00  0.00000000000E+00  0.93800000000E+00  0.93800000000E+00 0.  1.
         11    1    1    2    0    0  0.11370983212E+00  0.17838792647E-01  0.52563466145E+00  0.53808940417E+00  0.51100000000E-03 0. -1.
    9000002    1    1    2    0    0 -0.57518522298E+00 -0.60926097655E-01  0.23399918867E+00  0.11265654222E+01  0.93800000000E+00 0.  1.
         22    1    1    2    0    0  0.46147539087E+00  0.43087305008E-01  0.32403661172E+01  0.32733451737E+01  0.00000000000E+00 0. -1.
</event>
<event>
 5    1  0.6440325E+001  0.1598959E+01  0.7818608E-02  0.3354494E+00
         11   -1    0    0    0    0  0.00000000000E+00  0.00000000000E+00  0.39999999674E+01  0.40000000000E+01  0.51100000000E-03 0.  1.
    9000002   -1    0    0    0    0 -0.00000000000E+00 -0.00000000000E+00  0.00000000000E+00  0.93800000000E+00  0.93800000000E+00 0. -1.
         11    1    1    2    0    0 -0.39629992287E-01 -0.56751608959E-01  0.62186042487E+00  0.62570115115E+00  0.51100000000E-03 0.  1.
    9000002    1    1    2    0    0  0.10078415039E+00  0.35375399300E+00  0.91487861018E-01  0.10116883716E+01  0.93800000000E+00 0. -1.
         22    1    1    2    0    0 -0.61154158099E-01 -0.29700238404E+00  0.32866516815E+01  0.33006104772E+01  0.00000000000E+00 0.  1.
</event>
<event>
 5    1  0.6440325E+001  0.1599671E+01  0.7818608E-02  0.3353721E+00
         11   -1    0    0    0    0  0.00000000000E+00  0.00000000000E+00  0.39999999674E+01  0.40000000000E+01  0.51100000000E-03 0.  1.
    9000002   -1    0    0    0    0 -0.00000000000E+00 -0.00000000000E+00  0.00000000000E+00  0.93800000000E+00  0.93800000000E+00 0.  1.
         11    1    1    2    0    0 -0.10345628914E-01 -0.53277026787E-02  0.10266929204E+00  0.10332792993E+00  0.51100000000E-03 0.  1.
    9000002    1    1    2    0    0  0.36399715514E+00  0.18805497993E+00  0.11337212687E+00  0.10298329202E+01  0.93800000000E+00 0.  1.
         22    1    1    2    0    0 -0.35365152623E+00 -0.18272727725E+00  0.37839585484E+01  0.38048391498E+01  0.00000000000E+00 0.  1.
</event>
<event>
 5    1  0.6440325E+001  0.1598977E+01  0.7818608E-02  0.3354475E+00
         11   -1    0    0    0    0  0.00000000000E+00  0.00000000000E+00  0.39999999674E+01  0.40000000000E+01  0.51100000000E-03 0. -1.
    9000002   -1    0    0    0    0 -0.00000000000E+00 -0.00000000000E+00  0.00000000000E+00  0.93800000000E+00  0.93800000000E+00 0.  1.
         11    1    1    2    0    0 -0.64015956322E-01 -0.99349187200E-02  0.10608754695E+01  0.10628517151E+01  0.51100000000E-03 0. -1.
    9000002    1    1    2    0    0  0.34139191458E+00  0.39953754692E-01  0.79725024054E-01  0.10021700561E+01  0.93800000000E+00 0.  1.
         22    1    1    2    0    0 -0.27737595826E+00 -0.30018835972E-01  0.28593994738E+01  0.28729782288E+01  0.00000000000E+00 0. -1.
</event>
<event>
 5    1  0.7299136E+001  0.1526617E+01  0.7818608E-02  0.3437076E+00
         11   -1    0    0    0    0  0.00000000000E+00  0.00000000000E+00  0.39999999674E+01  0.40000000000E+01  0.51100000000E-03 0.  1.
    9000002   -1    0    0    0    0 -0.00000000000E+00 -0.00000000000E+00  0.00000000000E+00  0.93800000000E+00  0.93800000000E+00 0. -1.
         11    1    1    2    0    0 -0.11310725399E+00  0.23371026764E+00  0.75852894947E+00  0.80173572230E+00  0.51100000000E-03 0.  1.
    9000002    1    1    2    0    0  0.17719148927E+00  0.66921592068E-01  0.80422735309E-01  0.96030575324E+00  0.93800000000E+00 0. -1.
         22    1    1    2    0    0 -0.64084235281E-01 -0.30063185971E+00  0.31610482826E+01  0.31759585245E+01  0.00000000000E+00 0.  1.
</event>
<event>
 5    1  0.6585760E+001  0.1598469E+01  0.7818608E-02  0.3355026E+00
         11   -1    0    0    0    0  0.00000000000E+00  0.00000000000E+00  0.39999999674E+01  0.40000000000E+01  0.51100000000E-03 0. -1.
    9000002   -1    0    0    0    0 -0.00000000000E+00 -0.00000000000E+00  0.00000000000E+00  0.93800000000E+00  0.93800000000E+00 0.  1.
         11    1    1    2    0    0  0.34704582648E-01  0.19359123803E-01  0.90756682161E+00  0.90843655835E+00  0.51100000000E-03 0. -1.
    9000002    1    1    2    0    0 -0.26035325766E+00 -0.18999010404E+00  0.70406790978E-01  0.99432448156E+00  0.93800000000E+00 0.  1.
         22    1    1    2    0    0  0.22564867502E+00  0.17063098024E+00  0.30220263548E+01  0.30352389601E+01  0.00000000000E+00 0. -1.
</event>
<event>
 5    1  0.6440325E+001  0.1599336E+01  0.7818608E-02  0.3354085E+00
         11   -1    0    0    0    0  0.00000000000E+00  0.00000000000E+00  0.39999999674E+01  0.40000000000E+01  0.51100000000E-03 0.  1.
    9000002   -1    0    0    0    0 -0.00000000000E+00 -0.00000000000E+00  0.00000000000E+00  0.93800000000E+00  0.93800000000E+00 0.  1.
         11    1    1    2    0    0  0.31152497988E-01  0.18361552838E+00  0.14592957349E+01  0.14711320278E+01  0.51100000000E-03 0.  1.
    9000002    1    1    2    0    0 -0.34288867728E-01 -0.45458036068E+00  0.14156681613E+00  0.10524752701E+01  0.93800000000E+00 0.  1.
         22    1    1    2    0    0  0.31363697403E-02  0.27096483230E+00  0.23991374163E+01  0.24143927020E+01  0.00000000000E+00 0.  1.
</event>
<event>
 5    1  0.6440325E+001  0.1599634E+01  0.7818608E-02  0.3353760E+00
         11   -1    0    0    0    0  0.00000000000E+00  0.00000000000E+00  0.39999999674E+01  0.40000000000E+01  0.51100000000E-03 0.  1.
    9000002   -1    0    0    0    0 -0.00000000000E+00 -0.00000000000E+00  0.00000000000E+00  0.93800000000E+00  0.93800000000E+00 0. -1.
         11    1    1    2    0    0 -0.13106439256E+00 -0.53824848358E-01  0.12122251560E+01  0.12204773981E+01  0.51100000000E-03 0.  1.
    9000002    1    1    2    0    0  0.41042213724E+00  0.19353404784E+00  0.13996013182E+00  0.10513489416E+01  0.93800000000E+00 0. -1.
         22    1    1    2    0    0 -0.27935774468E+00 -0.13970919948E+00  0.26478146796E+01  0.26661736604E+01  0.00000000000E+00 0.  1.
</event>
<event>
 5    1  0.6440325E+001  0.1579411E+01  0.7818608E-02  0.3376018E+00
         11   -1    0    0    0    0  0.00000000000E+00  0.00000000000E+00  0.39999999674E+01  0.40000000000E+01  0.51100000000E-03 0.  1.
    9000002   -1    0    0    0    0 -0.00000000000E+00 -0.00000000000E+00  0.00000000000E+00  0.93800000000E+00  0.93800000000E+00 0. -1.
         11    1    1    2    0    0  0.65484571349E-01 -0.16152725466E-01  0.11270579534E+01  0.11290744134E+01  0.51100000000E-03 0.  1.
    9000002    1    1    2    0    0  0.30853333601E+00 -0.40914022584E-02  0.79675597293E-01  0.99065723628E+00  0.93800000000E+00 0. -1.
         22    1    1    2    0    0 -0.37401790735E+00  0.20244127724E-01  0.27932664167E+01  0.28182683503E+01  0.00000000000E+00 0. -1.
</event>
<event>
 5    1  0.6440325E+001  0.1599666E+01  0.7818608E-02  0.3353727E+00
         11   -1    0    0    0    0  0.00000000000E+00  0.00000000000E+00  0.39999999674E+01  0.40000000000E+01  0.51100000000E-03 0.  1.
    9000002   -1    0    0    0    0 -0.00000000000E+00 -0.00000000000E+00  0.00000000000E+00  0.93800000000E+00  0.93800000000E+00 0.  1.
         11    1    1    2    0    0  0.21494871676E-01 -0.18954890995E-02  0.16507162403E+00  0.16647679889E+00  0.51100000000E-03 0.  1.
    9000002    1    1    2    0    0 -0.47636371667E+00  0.72397551660E-01  0.15846632022E+00  0.10663579937E+01  0.93800000000E+00 0.  1.
         22    1    1    2    0    0  0.45486884500E+00 -0.70502062560E-01  0.36764620231E+01  0.37051652074E+01  0.00000000000E+00 0.  1.
</event>
<event>
 5    1  0.6440325E+001  0.1596169E+01  0.7818608E-02  0.3357532E+00
         11   -1    0    0    0    0  0.00000000000E+00  0.00000000000E+00  0.39999999674E+01  0.40000000000E+01  0.51100000000E-03 0. -1.
    9000002   -1    0    0    0    0 -0.00000000000E+00 -0.00000000000E+00  0.00000000000E+00  0.93800000000E+00  0.93800000000E+00 0. -1.
         11    1    1    2    0    0 -0.40289107026E-01 -0.53863576388E-01  0.21632503470E+00  0.22654200221E+00  0.51100000000E-03 0. -1.
    9000002    1    1    2    0    0  0.54517068695E+00  0.35534262892E+00  0.30258647868E+00  0.11810512431E+01  0.93800000000E+00 0. -1.
         22    1    1    2    0    0 -0.50488157993E+00 -0.30147905253E+00  0.34810884540E+01  0.35304067546E+01  0.00000000000E+00 0. -1.
</event>
<event>
 5    1  0.6440325E+001  0.1587563E+01  0.7818608E-02  0.3366974E+00
         11   -1    0    0    0    0  0.00000000000E+00  0.00000000000E+00  0.39999999674E+01  0.40000000000E+01  0.51100000000E-03 0.  1.
    9000002   -1    0    0    0    0 -0.00000000000E+00 -0.00000000000E+00  0.00000000000E+00  0.93800000000E+00  0.93800000000E+00 0.  1.
         11    1    1    2    0    0 -0.87794497986E-01 -0.12894248981E+00  0.53206993774E+00  0.55446615706E+00  0.51100000000E-03 0.  1.
    9000002    1    1    2    0    0  0.31075390341E+00  0.34197201984E+00  0.15591887882E+00  0.10571979699E+01  0.93800000000E+00 0.  1.
         22    1    1    2    0    0 -0.22295940542E+00 -0.21302953004E+00  0.33120111508E+01  0.33263358730E+01  0.00000000000E+00 0.  1.
</event>
<event>
 5    1  0.6440325E+001  0.1599677E+01  0.7818608E-02  0.3353714E+00
         11   -1    0    0    0    0  0.00000000000E+00  0.00000000000E+00  0.39999999674E+01  0.40000000000E+01  0.51100000000E-03 0. -1.
    9000002   -1    0    0    0    0 -0.00000000000E+00 -0.00000000000E+00  0.00000000000E+00  0.93800000000E+00  0.93800000000E+00 0. -1.
         11    1    1    2    0    0  0.39028130225E-02  0.14256023343E+00  0.14272178896E+01  0.14343255619E+01  0.51100000000E-03 0. -1.
    9000002    1    1    2    0    0 -0.11574796065E-01 -0.39111680960E+00  0.10315967207E+00  0.10215636312E+01  0.93800000000E+00 0. -1.
         22    1    1    2    0    0  0.76719830423E-02  0.24855657617E+00  0.24696224057E+01  0.24821108069E+01  0.00000000000E+00 0. -1.
</event>
<event>
 5    1  0.6440325E+001  0.1599677E+01  0.7818608E-02  0.3353714E+00
         11   -1    0    0    0    0  0.00000000000E+00  0.00000000000E+00  0.39999999674E+01  0.40000000000E+01  0.51100000000E-03 0.  1.
    9000002   -1    0    0    0    0 -0.00000000000E+00 -0.00000000000E+00  0.00000000000E+00  0.93800000000E+00  0.93800000000E+00 0. -1.
         11    1    1    2    0    0 -0.26753742569E+00  0.42703954590E-01  0.11902045473E+01  0.12206502478E+01  0.51100000000E-03 0. -1.
    9000002    1    1    2    0    0  0.79223596178E+00 -0.12622367304E+00  0.47442662824E+00  0.13223066438E+01  0.93800000000E+00 0. -1.
         22    1    1    2    0    0 -0.52469853610E+00  0.83519718446E-01  0.23353687918E+01  0.23950431083E+01  0.00000000000E+00 0.  1.
</event>
<event>
 5    1  0.6440325E+001  0.1599281E+01  0.7818608E-02  0.3354144E+00
         11   -1    0    0    0    0  0.00000000000E+00  0.00000000000E+00  0.39999999674E+01  0.40000000000E+01  0.51100000000E-03 0. -1.
    9000002   -1    0    0    0    0 -0.00000000000E+00 -0.00000000000E+00  0.00000000000E+00  0.93800000000E+00  0.93800000000E+00 0. -1.
         11    1    1    2    0    0 -0.17440946475E-01  0.17003460853E-01  0.34704675554E+00  0.34790087086E+00  0.51100000000E-03 0. -1.
    9000002    1    1    2    0    0  0.13217995129E+00 -0.33118949733E+00  0.85643681304E-01  0.10071429207E+01  0.93800000000E+00 0. -1.
         22    1    1    2    0    0 -0.11473900482E+00  0.31418603647E+00  0.35673095305E+01  0.35829562084E+01  0.00000000000E+00 0. -1.
</event>
<event>
 5    1  0.1225618E+002  0.1560597E+01  0.7818608E-02  0.3397273E+00
         11   -1    0    0    0    0  0.00000000000E+00  0.00000000000E+00  0.39999999674E+01  0.40000000000E+01  0.51100000000E-03 0.  1.
    9000002   -1    0    0    0    0 -0.00000000000E+00 -0.00000000000E+00  0.00000000000E+00  0.93800000000E+00  0.93800000000E+00 0. -1.
         11    1    1    2    0    0 -0.22387509562E+00 -0.21367167114E-01  0.13096102058E+01  0.13287798036E+01  0.51100000000E-03 0.  1.
    9000002    1    1    2    0    0  0.15048842447E-02  0.11387699921E+00  0.37721901396E-01  0.94564114624E+00  0.93800000000E+00 0. -1.
         22    1    1    2    0    0  0.22237021137E+00 -0.92509832092E-01  0.26526678602E+01  0.26635790502E+01  0.00000000000E+00 0.  1.
</event>
<event>
 5    1  0.6440325E+001  0.1564782E+01  0.7818608E-02  0.3392497E+00
         11   -1    0    0    0    0  0.00000000000E+00  0.00000000000E+00  0.39999999674E+01  0.40000000000E+01  0.51100000000E-03 0. -1.
    9000002   -1    0    0    0    0 -0.00000000000E+00 -0.00000000000E+00  0.00000000000E+00  0.93800000000E+00  0.93800000000E+00 0.  1.
         11    1    1    2    0    0  0.18060764750E+00  0.14811211393E-01  0.13724211322E+01  0.13843332400E+01  0.51100000000E-03 0. -1.
    9000002    1    1    2    0    0  0.78046389449E-01  0.10556912601E+00  0.37460617646E-01  0.94788363059E+00  0.93800000000E+00 0.  1.
         22    1    1    2    0    0 -0.25865403695E+00 -0.12038033740E+00  0.25901182175E+01  0.26057831294E+01  0.00000000000E+00 0. -1.
</event>
<event>
 5    1  0.6440325E+001  0.1599660E+01  0.7818608E-02  0.3353733E+00
         11   -1    0    0    0    0  0.00000000000E+00  0.00000000000E+00  0.39999999674E+01  0.40000000000E+01  0.51100000000E-03 0. -1.
    9000002   -1    0    0    0    0 -0.00000000000E+00 -0.00000000000E+00  0.00000000000E+00  0.93800000000E+00  0.93800000000E+00 0.  1.
         11    1    1    2    0    0  0.14461257272E-01 -0.31275319412E-01  0.32922865174E+00  0.33102724935E+00  0.51100000000E-03 0. -1.
    9000002    1    1    2    0    0 -0.18932125780E+00  0.39415204500E+00  0.12963425995E+00  0.10429992400E+01  0.93800000000E+00 0.  1.
         22    1    1    2    0    0  0.17486000052E+00 -0.36287672559E+00  0.35411370557E+01  0.35639735107E+01  0.00000000000E+00 0. -1.
</event>
<event>
 5    1  0.6440325E+001  0.1568502E+01  0.7818608E-02  0.3388276E+00
         11   -1    0    0    0    0  0.00000000000E+00  0.00000000000E+00  0.39999999674E+01  0.40000000000E+01  0.51100000000E-03 0.  1.
    9000002   -1    0    0    0    0 -0.00000000000E+00 -0.00000000000E+00  0.00000000000E+00  0.93800000000E+00  0.93800000000E+00 0.  1.
         11    1    1    2    0    0  0.63547126443E-01  0.20178711316E+00  0.85141789710E+00  0.87730779829E+00  0.51100000000E-03 0.  1.
    9000002    1    1    2    0    0  0.22515058847E+00 -0.30051765286E+00  0.12078883320E+00  0.10175645382E+01  0.93800000000E+00 0.  1.
         22    1    1    2    0    0 -0.28869771491E+00  0.98730539693E-01  0.30277932371E+01  0.30431276635E+01  0.00000000000E+00 0.  1.
</event>
<event>
 5    1  0.6440325E+001  0.1596548E+01  0.7818608E-02  0.3357118E+00
         11   -1    0    0    0    0  0.00000000000E+00  0.00000000000E+00  0.39999999674E+01  0.40000000000E+01  0.51100000000E-03 0.  1.
    9000002   -1    0    0    0    0 -0.00000000000E+00 -0.00000000000E+00  0.00000000000E+00  0.93800000000E+00  0.93800000000E+00 0.  1.
         11    1    1    2    0    0 -0.50798146967E-01 -0.11550548284E+00  0.79541347974E+00  0.80536006431E+00  0.51100000000E-03 0.  1.
    9000002    1    1    2    0    0 -0.15396623483E-01  0.51204601400E+00  0.18287804251E+00  0.10843046412E+01  0.93800000000E+00 0.  1.
         22    1    1    2    0    0  0.66194770449E-01 -0.39654053116E+00  0.30217084451E+01  0.30483352945E+01  0.00000000000E+00 0.  1.
</event>
<event>
 5    1  0.6440325E+001  0.1504723E+01  0.7818608E-02  0.3463743E+00
         11   -1    0    0    0    0  0.00000000000E+00  0.00000000000E+00  0.39999999674E+01  0.40000000000E+01  0.51100000000E-03 0.  1.
    9000002   -1    0    0    0    0 -0.00000000000E+00 -0.00000000000E+00  0.00000000000E+00  0.93800000000E+00  0.93800000000E+00 0.  1.
         11    1    1    2    0    0 -0.35232401943E+00 -0.72306992566E-01  0.74179827512E+00  0.82439399436E+00  0.51100000000E-03 0.  1.
    9000002    1    1    2    0    0 -0.14647017266E+00 -0.80432100156E+00  0.86173780082E+00  0.15135461084E+01  0.93800000000E+00 0.  1.
         22    1    1    2    0    0  0.49879419209E+00  0.87662799412E+00  0.23964638914E+01  0.26000598972E+01  0.00000000000E+00 0.  1.
</event>
<event>
 5    1  0.6440325E+001  0.1595697E+01  0.7818608E-02  0.3358047E+00
         11   -1    0    0    0    0  0.00000000000E+00  0.00000000000E+00  0.39999999674E+01  0.40000000000E+01  0.51100000000E-03 0.  1.
    9000002   -1    0    0    0    0 -0.00000000000E+00 -0.00000000000E+00  0.00000000000E+00  0.93800000000E+00  0.93800000000E+00 0.  1.
         11    1    1    2    0    0 -0.31103976626E-01  0.77454177669E-01  0.44761235155E+00  0.45532810739E+00  0.51100000000E-03 0.  1.
    9000002    1    1    2    0    0 -0.51097683531E-01 -0.39750352943E+00  0.11167256583E+00  0.10261261088E+01  0.93800000000E+00 0.  1.
         22    1    1    2    0    0  0.82201660157E-01  0.32004935176E+00  0.34407150500E+01  0.34565457838E+01  0.00000000000E+00 0.  1.
</event>
<event>
 5    1  0.6440325E+001  0.1599667E+01  0.7818608E-02  0.3353725E+00
         11   -1    0    0    0    0  0.00000000000E+00  0.00000000000E+00  0.39999999674E+01  0.40000000000E+01  0.51100000000E-03 0. -1.
    9000002   -1    0    0    0    0 -0.00000000000E+00 -0.00000000000E+00  0.00000000000E+00  0.93800000000E+00  0.93800000000E+00 0.  1.
         11    1    1    2    0    0  0.15648849247E+00 -0.88620911736E-01  0.13269625672E+01  0.13390938093E+01  0.51100000000E-03 0. -1.
    9000002    1    1    2    0    0 -0.45544371102E+00  0.26274245445E+00  0.19011159020E+00  0.10919931264E+01  0.93800000000E+00 0.  1.
         22    1    1    2    0    0  0.29895521855E+00 -0.17412154271E+00  0.24829258100E+01  0.25069130644E+01  0.00000000000E+00 0. -1.
</event>
<event>
 5    1  0.6440325E+001  0.1592949E+01  0.7818608E-02  0.3361052E+00
         11   -1    0    0    0    0  0.00000000000E+00  0.00000000000E+00  0.39999999674E+01  0.40000000000E+01  0.51100000000E-03 0. -1.
    9000002   -1    0    0    0    0 -0.00000000000E+00 -0.00000000000E+00  0.00000000000E+00  0.93800000000E+00  0.93800000000E+00 0. -1.
         11    1    1    2    0    0 -0.96110433714E-01 -0.12434236513E+00  0.70946429007E+00  0.72666228692E+00  0.51100000000E-03 0. -1.
    9000002    1    1    2    0    0  0.20792425770E+00  0.39721100583E+00  0.14231500533E+00  0.10493362859E+01  0.93800000000E+00 0. -1.
         22    1    1    2    0    0 -0.11181382398E+00 -0.27286864070E+00  0.31482206720E+01  0.31620014272E+01  0.00000000000E+00 0. -1.
</event>
<event>
 5    1  0.6440325E+001  0.1599671E+01  0.7818608E-02  0.3353721E+00
         11   -1    0    0    0    0  0.00000000000E+00  0.00000000000E+00  0.39999999674E+01  0.40000000000E+01  0.51100000000E-03 0. -1.
    9000002   -1    0    0    0    0 -0.00000000000E+00 -0.00000000000E+00  0.00000000000E+00  0.93800000000E+00  0.93800000000E+00 0.  1.
         11    1    1    2    0    0 -0.19881886079E-01  0.13687211091E+00  0.10060592778E+01  0.10155219327E+01  0.51100000000E-03 0. -1.
    9000002    1    1    2    0    0  0.73376683328E-01 -0.50952304749E+00  0.18187077926E+00  0.10853197013E+01  0.93800000000E+00 0.  1.
         22    1    1    2    0    0 -0.53494797249E-01  0.37265093658E+00  0.28120699103E+01  0.28371583661E+01  0.00000000000E+00 0. -1.
</event>
<event>
 5    1  0.6440325E+001  0.1599608E+01  0.7818608E-02  0.3353789E+00
         11   -1    0    0    0    0  0.00000000000E+00  0.00000000000E+00  0.39999999674E+01  0.40000000000E+01  0.51100000000E-03 0. -1.
    9000002   -1    0    0    0    0 -0.00000000000E+00 -0.00000000000E+00  0.00000000000E+00  0.93800000000E+00  0.93800000000E+00 0. -1.
         11    1    1    2    0    0 -0.10400405019E+00  0.50193158105E-01  0.10494055764E+01  0.10557407449E+01  0.51100000000E-03 0. -1.
    9000002    1    1    2    0    0  0.35493166950E+00 -0.19888946779E+00  0.11181303802E+00  0.10285327734E+01  0.93800000000E+00 0. -1.
         22    1    1    2    0    0 -0.25092761931E+00  0.14869630968E+00  0.28387813529E+01  0.28537264817E+01  0.00000000000E+00 0. -1.
</event>
<event>
 5    1  0.6440325E+001  0.1599627E+01  0.7818608E-02  0.3353768E+00
         11   -1    0    0    0    0  0.00000000000E+00  0.00000000000E+00  0.39999999674E+01  0.40000000000E+01  0.51100000000E-03 0. -1.
    9000002   -1    0    0    0    0 -0.00000000000E+00 -0.00000000000E+00  0.00000000000E+00  0.93800000000E+00  0.93800000000E+00 0.  1.
         11    1    1    2    0    0 -0.14998139986E+00 -0.15192574309E+00  0.14254458989E+01  0.14413438602E+01  0.51100000000E-03 0. -1.
    9000002    1    1    2    0    0  0.41449793143E+00  0.38890575491E+00  0.22398089891E+00  0.11194050493E+01  0.93800000000E+00 0.  1.
         22    1    1    2    0    0 -0.26451653157E+00 -0.23698001182E+00  0.23505731696E+01  0.23772510904E+01  0.00000000000E+00 0. -1.
</event>
<event>
 5    1  0.6440325E+001  0.1524411E+01  0.7818608E-02  0.3439726E+00
         11   -1    0    0    0    0  0.00000000000E+00  0.00000000000E+00  0.39999999674E+01  0.40000000000E+01  0.51100000000E-03 0. -1.
    9000002   -1    0    0    0    0 -0.00000000000E+00 -0.00000000000E+00  0.00000000000E+00  0.93800000000E+00  0.93800000000E+00 0.  1.
         11    1    1    2    0    0 -0.44609510085E+00 -0.28864304773E+00  0.79912351313E+00  0.95964279728E+00  0.51100000000E-03 0. -1.
    9000002    1    1    2    0    0  0.59075673989E+00  0.77099701709E+00  0.89933473471E+00  0.16223676806E+01  0.93800000000E+00 0.  1.
         22    1    1    2    0    0 -0.14466163904E+00 -0.48235396935E+00  0.23015417195E+01  0.23559895221E+01  0.00000000000E+00 0. -1.
</event>
<event>
 5    1  0.6440325E+001  0.1599676E+01  0.7818608E-02  0.3353715E+00
         11   -1    0    0    0    0  0.00000000000E+00  0.00000000000E+00  0.39999999674E+01  0.40000000000E+01  0.51100000000E-03 0. -1.
    9000002   -1    0    0    0    0 -0.00000000000E+00 -0.00000000000E+00  0.00000000000E+00  0.93800000000E+00  0.93800000000E+00 0. -1.
         11    1    1    2    0    0 -0.11907582427E+00  0.16008317831E-01  0.84510205755E+00  0.85360006266E+00  0.51100000000E-03 0. -1.
    9000002    1    1    2    0    0  0.53789724950E+00 -0.70592252919E-01  0.20299907093E+00  0.11024379075E+01  0.93800000000E+00 0. -1.
         22    1    1    2    0    0 -0.41882142523E+00  0.54583935087E-01  0.29518988389E+01  0.29819620298E+01  0.00000000000E+00 0. -1.
</event>
<event>
 5    1  0.6440325E+001  0.1599673E+01  0.7818608E-02  0.3353718E+00
         11   -1    0    0    0    0  0.00000000000E+00  0.00000000000E+00  0.39999999674E+01  0.40000000000E+01  0.51100000000E-03 0.  1.
    9000002   -1    0    0    0    0 -0.00000000000E+00 -0.00000000000E+00  0.00000000000E+00  0.93800000000E+00  0.93800000000E+00 0. -1.
         11    1    1    2    0    0  0.77611544746E-01 -0.14621166801E-01  0.63426268423E+00  0.63916096887E+00  0.51100000000E-03 0.  1.
    9000002    1    1    2    0    0 -0.46091456108E+00  0.88337097453E-01  0.15002815811E+00  0.10595273114E+01  0.93800000000E+00 0. -1.
         22    1    1    2    0    0  0.38330301634E+00 -0.73715930652E-01  0.32157091250E+01  0.32393117197E+01  0.00000000000E+00 0.  1.
</event>
<event>
 5    1  0.6440325E+001  0.1575633E+01  0.7818608E-02  0.3380242E+00
         11   -1    0    0    0    0  0.00000000000E+00  0.00000000000E+00  0.39999999674E+01  0.40000000000E+01  0.51100000000E-03 0. -1.
    9000002   -1    0    0    0    0 -0.00000000000E+00 -0.00000000000E+00  0.00000000000E+00  0.93800000000E+00  0.93800000000E+00 0. -1.
         11    1    1    2    0    0  0.19918970062E+00 -0.15933572847E+00  0.93492269444E+00  0.96909499891E+00  0.51100000000E-03 0. -1.
    9000002    1    1    2    0    0 -0.64072530527E+00  0.16355176796E-02  0.31453518543E+00  0.11786890916E+01  0.93800000000E+00 0. -1.
         22    1    1    2    0    0  0.44153560465E+00  0.15770021079E+00  0.27505420875E+01  0.27902159095E+01  0.00000000000E+00 0. -1.
</event>
<event>
 5    1  0.6440325E+001  0.1599658E+01  0.7818608E-02  0.3353735E+00
         11   -1    0    0    0    0  0.00000000000E+00  0.00000000000E+00  0.39999999674E+01  0.40000000000E+01  0.51100000000E-03 0. -1.
    9000002   -1    0    0    0    0 -0.00000000000E+00 -0.00000000000E+00  0.00000000000E+00  0.93800000000E+00  0.93800000000E+00 0. -1.
         11    1    1    2    0    0  0.18142221465E+00 -0.51128584603E-02  0.11491956919E+01  0.11634393670E+01  0.51100000000E-03 0. -1.
    9000002    1    1    2    0    0 -0.59497633549E+00  0.10504571963E-02  0.24673939185E+00  0.11378586339E+01  0.93800000000E+00 0. -1.
         22    1    1    2    0    0  0.41355412084E+00  0.40624012640E-02  0.26040648836E+01  0.26367019991E+01  0.00000000000E+00 0. -1.
</event>
<event>
 5    1  0.6440325E+001  0.1575501E+01  0.7818608E-02  0.3380391E+00
         11   -1    0    0    0    0  0.00000000000E+00  0.00000000000E+00  0.39999999674E+01  0.40000000000E+01  0.51100000000E-03 0. -1.
    9000002   -1    0    0    0    0 -0.00000000000E+00 -0.00000000000E+00  0.00000000000E+00  0.93800000000E+00  0.93800000000E+00 0. -1.
         11    1    1    2    0    0 -0.44109754031E-01 -0.68081503467E-01  0.33074358652E+00  0.34054712253E+00  0.51100000000E-03 0. -1.
    9000002    1    1    2    0    0 -0.21873276016E+00 -0.18099227558E+00  0.72703289422E-01  0.98271663896E+00  0.93800000000E+00 0. -1.
         22    1    1    2    0    0  0.26284251419E+00  0.24907377905E+00  0.35965530914E+01  0.36147362385E+01  0.00000000000E+00 0. -1.
</event>
<event>
 5    1  0.6440325E+001  0.1599646E+01  0.7818608E-02  0.3353748E+00
         11   -1    0    0    0    0  0.00000000000E+00  0.00000000000E+00  0.39999999674E+01  0.40000000000E+01  0.51100000000E-03 0. -1.
    9000002   -1    0    0    0    0 -0.00000000000E+00 -0.00000000000E+00  0.00000000000E+00  0.93800000000E+00  0.93800000000E+00 0.  1.
         11    1    1    2    0    0 -0.18355311498E+00  0.66749955898E-01  0.14351826645E+01  0.14484118352E+01  0.51100000000E-03 0. -1.
    9000002    1    1    2    0    0  0.48727190387E+00 -0.19447705106E+00  0.18926206358E+00  0.10912925183E+01  0.93800000000E+00 0.  1.
         22    1    1    2    0    0 -0.30371878889E+00  0.12772709517E+00  0.23755552393E+01  0.23982956466E+01  0.00000000000E+00 0. -1.
</event>
<event>
 5    1  0.6440325E+001  0.1471853E+01  0.7818608E-02  0.3505385E+00
         11   -1    0    0    0    0  0.00000000000E+00  0.00000000000E+00  0.39999999674E+01  0.40000000000E+01  0.51100000000E-03 0.  1.
    9000002   -1    0    0    0    0 -0.00000000000E+00 -0.00000000000E+00  0.00000000000E+00  0.93800000000E+00  0.93800000000E+00 0.  1.
         11    1    1    2    0    0  0.15391763580E+00  0.34325713341E+00  0.84927431882E+00  0.92886125335E+00  0.51100000000E-03 0.  1.
    9000002    1    1    2    0    0  0.46204757592E-01 -0.10338191763E+00  0.10861797443E+00  0.95103341944E+00  0.93800000000E+00 0.  1.
         22    1    1    2    0    0 -0.20012239339E+00 -0.23987521578E+00  0.30421076741E+01  0.30581053272E+01  0.00000000000E+00 0.  1.
</event>
<event>
 5    1  0.6440325E+001  0.1597445E+01  0.7818608E-02  0.3356141E+00
         11   -1    0    0    0    0  0.00000000000E+00  0.00000000000E+00  0.39999999674E+01  0.40000000000E+01  0.51100000000E-03 0. -1.
    9000002   -1    0    0    0    0 -0.00000000000E+00 -0.00000000000E+00  0.00000000000E+00  0.93800000000E+00  0.93800000000E+00 0.  1.
         11    1    1    2    0    0  0.13884656825E-01 -0.20394508804E-01  0.20007081026E+00  0.20158697856E+00  0.51100000000E-03 0. -1.
    9000002    1    1    2    0    0 -0.35390287491E+00 -0.84028553935E-01  0.90666080299E-01  0.10101348330E+01  0.93800000000E+00 0.  1.
         22    1    1    2    0    0  0.34001821809E+00  0.10442306274E+00  0.37092630768E+01  0.37262781884E+01  0.00000000000E+00 0. -1.
</event>
<event>
 5    1  0.6732877E+001  0.1599585E+01  0.7818608E-02  0.3353814E+00
         11   -1    0    0    0    0  0.00000000000E+00  0.00000000000E+00  0.39999999674E+01  0.40000000000E+01  0.51100000000E-03 0.  1.
    9000002   -1    0    0    0    0 -0.00000000000E+00 -0.00000000000E+00  0.00000000000E+00  0.93800000000E+00  0.93800000000E+00 0.  1.
         11    1    1    2    0    0 -0.11743724445E+00  0.10534196567E+00  0.13952820631E+01  0.14041726150E+01  0.51100000000E-03 0.  1.
    9000002    1    1    2    0    0  0.34705470054E+00 -0.31159931947E+00  0.14819729876E+00  0.10579922213E+01  0.93800000000E+00 0.  1.
         22    1    1    2    0    0 -0.22961745608E+00  0.20625735379E+00  0.24565206055E+01  0.24758351637E+01  0.00000000000E+00 0. -1.
</event>
<event>
 5    1  0.6440325E+001  0.1599672E+01  0.7818608E-02  0.3353719E+00
         11   -1    0    0    0    0  0.00000000000E+00  0.00000000000E+00  0.39999999674E+01  0.40000000000E+01  0.51100000000E-03 0.  1.
    9000002   -1    0    0    0    0 -0.00000000000E+00 -0.00000000000E+00  0.00000000000E+00  0.93800000000E+00  0.93800000000E+00 0.  1.
         11    1    1    2    0    0 -0.18326490265E-02  0.43472959266E-02  0.54389389768E-01  0.54596011069E-01  0.51100000000E-03 0. -1.
    9000002    1    1    2    0    0  0.11857292929E+00 -0.33377373572E+00  0.84168257476E-01  0.10061772914E+01  0.93800000000E+00 0.  1.
         22    1    1    2    0    0 -0.11674028026E+00  0.32942643979E+00  0.38614423201E+01  0.38772266975E+01  0.00000000000E+00 0.  1.
</event>
<event>
 5    1  0.6440325E+001  0.1596209E+01  0.7818608E-02  0.3357488E+00
         11   -1    0    0    0    0  0.00000000000E+00  0.00000000000E+00  0.39999999674E+01  0.40000000000E+01  0.51100000000E-03 0. -1.
    9000002   -1    0    0    0    0 -0.00000000000E+00 -0.00000000000E+00  0.00000000000E+00  0.93800000000E+00  0.93800000000E+00 0. -1.
         11    1    1    2    0    0  0.13535606110E+00 -0.49513767004E-01  0.11417136672E+01  0.11507750586E+01  0.51100000000E-03 0. -1.
    9000002    1    1    2    0    0 -0.45753108605E+00 -0.51289737516E-01  0.14721389585E+00  0.10552162162E+01  0.93800000000E+00 0. -1.
         22    1    1    2    0    0  0.32217502496E+00  0.10080350452E+00  0.27110724043E+01  0.27320087252E+01  0.00000000000E+00 0. -1.
</event>
<event>
 5    1  0.6440325E+001  0.1547605E+01  0.7818608E-02  0.3412271E+00
         11   -1    0    0    0    0  0.00000000000E+00  0.00000000000E+00  0.39999999674E+01  0.40000000000E+01  0.51100000000E-03 0. -1.
    9000002   -1    0    0    0    0 -0.00000000000E+00 -0.00000000000E+00  0.00000000000E+00  0.93800000000E+00  0.93800000000E+00 0.  1.
         11    1    1    2    0    0 -0.47874905766E-01  0.23478923027E+00  0.11534298192E+01  0.11780571286E+01  0.51100000000E-03 0. -1.
    9000002    1    1    2    0    0 -0.13359469490E+00 -0.11621534128E-02  0.51078602105E-01  0.94884240878E+00  0.93800000000E+00 0.  1.
         22    1    1    2    0    0  0.18146960067E+00 -0.23362707685E+00  0.27954915460E+01  0.28111004626E+01  0.00000000000E+00 0. -1.
</event>
<event>
 5    1  0.6440325E+001  0.1599599E+01  0.7818608E-02  0.3353798E+00
         11   -1    0    0    0    0  0.00000000000E+00  0.00000000000E+00  0.39999999674E+01  0.40000000000E+01  0.51100000000E-03 0.  1.
    9000002   -1    0    0    0    0 -0.00000000000E+00 -0.00000000000E+00  0.00000000000E+00  0.93800000000E+00  0.93800000000E+00 0.  1.
         11    1    1    2    0    0 -0.16050082755E+00  0.45304463223E-02  0.12447125079E+01  0.12550261069E+01  0.51100000000E-03 0.  1.
    9000002    1    1    2    0    0  0.47672262917E+00  0.10120605656E-01  0.15512708316E+00  0.10636142645E+01  0.93800000000E+00 0.  1.
         22    1    1    2    0    0 -0.31622180162E+00 -0.14651051978E-01  0.26001603763E+01  0.26193596285E+01  0.00000000000E+00 0.  1.
</event>
<event>
 5    1  0.6440325E+001  0.1598441E+01  0.7818608E-02  0.3355058E+00
         11   -1    0    0    0    0  0.00000000000E+00  0.00000000000E+00  0.39999999674E+01  0.40000000000E+01  0.51100000000E-03 0.  1.
    9000002   -1    0    0    0    0 -0.00000000000E+00 -0.00000000000E+00  0.00000000000E+00  0.93800000000E+00  0.93800000000E+00 0.  1.
         11    1    1    2    0    0  0.80410051458E-01  0.21909574745E-01  0.96736154754E+00  0.97094512235E+00  0.51100000000E-03 0.  1.
    9000002    1    1    2    0    0 -0.26600296077E+00 -0.22394702774E+00  0.82045824438E-01  0.10037357041E+01  0.93800000000E+00 0.  1.
         22    1    1    2    0    0  0.18559290931E+00  0.20203745300E+00  0.29505925954E+01  0.29633191736E+01  0.00000000000E+00 0. -1.
</event>
<event>
 5    1  0.6440325E+001  0.1599669E+01  0.7818608E-02  0.3353723E+00
         11   -1    0    0    0    0  0.00000000000E+00  0.00000000000E+00  0.39999999674E+01  0.40000000000E+01  0.51100000000E-03 0.  1.
    9000002   -1    0    0    0    0 -0.00000000000E+00 -0.00000000000E+00  0.00000000000E+00  0.93800000000E+00  0.93800000000E+00 0.  1.
         11    1    1    2    0    0 -0.26953492800E-01  0.12366901972E-01  0.31034311972E+00  0.31175718776E+00  0.51100000000E-03 0.  1.
    9000002    1    1    2    0    0  0.35945971406E+00 -0.16450514636E+00  0.10535342129E+00  0.10233360018E+01  0.93800000000E+00 0.  1.
         22    1    1    2    0    0 -0.33250622126E+00  0.15213824439E+00  0.35843034263E+01  0.36029068104E+01  0.00000000000E+00 0.  1.
</event>
<event>
 5    1  0.6440325E+001  0.1579303E+01  0.7818608E-02  0.3376138E+00
         11   -1    0    0    0    0  0.00000000000E+00  0.00000000000E+00  0.39999999674E+01  0.40000000000E+01  0.51100000000E-03 0. -1.
    9000002   -1    0    0    0    0 -0.00000000000E+00 -0.00000000000E+00  0.00000000000E+00  0.93800000000E+00  0.93800000000E+00 0. -1.
         11    1    1    2    0    0 -0.15970326752E+00 -0.21067501803E+00  0.13071047224E+01  0.13335711879E+01  0.51100000000E-03 0. -1.
    9000002    1    1    2    0    0 -0.27123806836E-02  0.52328034290E+00  0.20720000610E+00  0.10938946553E+01  0.93800000000E+00 0. -1.
         22    1    1    2    0    0  0.16241564820E+00 -0.31260532487E+00  0.24856952389E+01  0.25105341568E+01  0.00000000000E+00 0. -1.
</event>
<event>
 5    1  0.6440325E+001  0.1586855E+01  0.7818608E-02  0.3367755E+00
         11   -1    0    0    0    0  0.00000000000E+00  0.00000000000E+00  0.39999999674E+01  0.40000000000E+01  0.51100000000E-03 0. -1.
    9000002   -1    0    0    0    0 -0.00000000000E+00 -0.00000000000E+00  0.00000000000E+00  0.93800000000E+00  0.93800000000E+00 0.  1.
         11    1    1    2    0    0  0.53828746743E-01  0.17878135588E-01  0.52783306185E+00  0.53087207877E+00  0.51100000000E-03 0. -1.
    9000002    1    1    2    0    0  0.11859834737E+00  0.32377835291E+00  0.90041065038E-01  0.10034188473E+01  0.93800000000E+00 0.  1.
         22    1    1    2    0    0 -0.17242709412E+00 -0.34165648849E+00  0.33821258405E+01  0.34037090739E+01  0.00000000000E+00 0. -1.
</event>
<event>
 5    1  0.6440325E+001  0.1599663E+01  0.7818608E-02  0.3353729E+00
         11   -1    0    0    0    0  0.00000000000E+00  0.00000000000E+00  0.39999999674E+01  0.40000000000E+01  0.51100000000E-03 0. -1.
    9000002   -1    0    0    0    0 -0.00000000000E+00 -0.00000000000E+00  0.00000000000E+00  0.93800000000E+00  0.93800000000E+00 0. -1.
         11    1    1    2    0    0 -0.89071480186E-01  0.36512201904E-01  0.99817469530E+00  0.10028059897E+01  0.51100000000E-03 0. -1.
    9000002    1    1    2    0    0  0.34807680675E+00 -0.15794803926E+00  0.98343400997E-01  0.10176543966E+01  0.93800000000E+00 0. -1.
         22    1    1    2    0    0 -0.25900532656E+00  0.12143583735E+00  0.29034818711E+01  0.29175396137E+01  0.00000000000E+00 0. -1.
</event>
<event>
 5    1  0.6440325E+001  0.1595292E+01  0.7818608E-02  0.3358490E+00
         11   -1    0    0    0    0  0.00000000000E+00  0.00000000000E+00  0.39999999674E+01  0.40000000000E+01  0.51100000000E-03 0. -1.
    9000002   -1    0    0    0    0 -0.00000000000E+00 -0.00000000000E+00  0.00000000000E+00  0.93800000000E+00  0.93800000000E+00 0. -1.
         11    1    1    2    0    0 -0.26018375456E+00  0.18275052033E+00  0.89886536388E+00  0.95344246932E+00  0.51100000000E-03 0. -1.
    9000002    1    1    2    0    0  0.68139229849E+00 -0.67472545359E+00  0.73127814987E+00  0.15277963328E+01  0.93800000000E+00 0. -1.
         22    1    1    2    0    0 -0.42120854393E+00  0.49197493327E+00  0.23698564536E+01  0.24567611978E+01  0.00000000000E+00 0. -1.
</event>
<event>
 5    1  0.6440325E+001  0.1599676E+01  0.7818608E-02  0.3353715E+00
         11   -1    0    0    0    0  0.00000000000E+00  0.00000000000E+00  0.39999999674E+01  0.40000000000E+01  0.51100000000E-03 0. -1.
    9000002   -1    0    0    0    0 -0.00000000000E+00 -0.00000000000E+00  0.00000000000E+00  0.93800000000E+00  0.93800000000E+00 0. -1.
         11    1    1    2    0    0 -0.12512196972E+00 -0.23273503005E-01  0.91542154180E+00  0.92422617555E+00  0.51100000000E-03 0.  1.
    9000002    1    1    2    0    0  0.51770915256E+00  0.97483931062E-01  0.19086887148E+00  0.10926119208E+01  0.93800000000E+00 0. -1.
         22    1    1    2    0    0 -0.39258718284E+00 -0.74210428058E-01  0.28937095541E+01  0.29211619036E+01  0.00000000000E+00 0. -1.
</event>
<event>
 5    1  0.6440325E+001  0.1593070E+01  0.7818608E-02  0.3360920E+00
         11   -1    0    0    0    0  0.00000000000E+00  0.00000000000E+00  0.39999999674E+01  0.40000000000E+01  0.51100000000E-03 0. -1.
    9000002   -1    0    0    0    0 -0.00000000000E+00 -0.00000000000E+00  0.00000000000E+00  0.93800000000E+00  0.93800000000E+00 0. -1.
         11    1    1    2    0    0 -0.38004992470E-01 -0.24227717894E-01  0.76081835175E+00  0.76215233861E+00  0.51100000000E-03 0. -1.
    9000002    1    1    2    0    0  0.20836790414E+00 -0.27363062372E+00  0.84582253521E-01  0.10026410421E+01  0.93800000000E+00 0. -1.
         22    1    1    2    0    0 -0.17036291167E+00  0.29785834162E+00  0.31545993621E+01  0.31732066193E+01  0.00000000000E+00 0. -1.
</event>
<event>
 5    1  0.6440325E+001  0.1599662E+01  0.7818608E-02  0.3353730E+00
         11   -1    0    0    0    0  0.00000000000E+00  0.00000000000E+00  0.39999999674E+01  0.40000000000E+01  0.51100000000E-03 0.  1.
    9000002   -1    0    0    0    0 -0.00000000000E+00 -0.00000000000E+00  0.00000000000E+00  0.93800000000E+00  0.93800000000E+00 0. -1.
         11    1    1    2    0    0  0.19257723196E+00  0.22913374160E-01  0.12306490388E+01  0.12458363981E+01  0.51100000000E-03 0.  1.
    9000002    1    1    2    0    0 -0.58267205124E+00 -0.58145297118E-01  0.23852210727E+00  0.11312048402E+01  0.93800000000E+00 0. -1.
         22    1    1    2    0    0  0.39009481928E+00  0.35231922959E-01  0.25308288213E+01  0.25609587617E+01  0.00000000000E+00 0.  1.
</event>
<event>
 5    1  0.6440325E+001  0.1447845E+01  0.7818608E-02  0.3537098E+00
         11   -1    0    0    0    0  0.00000000000E+00  0.00000000000E+00  0.39999999674E+01  0.40000000000E+01  0.51100000000E-03 0.  1.
    9000002   -1    0    0    0    0 -0.00000000000E+00 -0.00000000000E+00  0.00000000000E+00  0.93800000000E+00  0.93800000000E+00 0.  1.
         11    1    1    2    0    0  0.16202388721E+00 -0.47940963798E+00  0.13800567661E+01  0.14699123375E+01  0.51100000000E-03 0.  1.
    9000002    1    1    2    0    0  0.50090444653E+00  0.49086184970E+00  0.54878269323E+00  0.12933897574E+01  0.93800000000E+00 0.  1.
         22    1    1    2    0    0 -0.66292833374E+00 -0.11452211718E-01  0.20711605080E+01  0.21746979052E+01  0.00000000000E+00 0.  1.
</event>
<event>
 5    1  0.6440325E+001  0.1598522E+01  0.7818608E-02  0.3354970E+00
         11   -1    0    0    0    0  0.00000000000E+00  0.00000000000E+00  0.39999999674E+01  0.40000000000E+01  0.51100000000E-03 0.  1.
    9000002   -1    0    0    0    0 -0.00000000000E+00 -0.00000000000E+00  0.00000000000E+00  0.93800000000E+00  0.93800000000E+00 0.  1.
         11    1    1    2    0    0 -0.91925811177E-02  0.16938470386E-02  0.33142357244E-01  0.34439071272E-01  0.51100000000E-03 0.  1.
    9000002    1    1    2    0    0  0.19759798031E+00 -0.30277445305E+00  0.88698713584E-01  0.10091723307E+01  0.93800000000E+00 0.  1.
         22    1    1    2    0    0 -0.18840539919E+00  0.30108060601E+00  0.38781588965E+01  0.38943885980E+01  0.00000000000E+00 0.  1.
</event>
<event>
 5    1  0.6440325E+001  0.1512632E+01  0.7818608E-02  0.3454014E+00
         11   -1    0    0    0    0  0.00000000000E+00  0.00000000000E+00  0.39999999674E+01  0.40000000000E+01  0.51100000000E-03 0. -1.
    9000002   -1    0    0    0    0 -0.00000000000E+00 -0.00000000000E+00  0.00000000000E+00  0.93800000000E+00  0.93800000000E+00 0. -1.
         11    1    1    2    0    0 -0.47023498443E+00 -0.17303259974E+00  0.98680732495E+00  0.11067294967E+01  0.51100000000E-03 0. -1.
    9000002    1    1    2    0    0  0.19937351324E+00 -0.39987104652E+00  0.35403855863E+00  0.10976492849E+01  0.93800000000E+00 0. -1.
         22    1    1    2    0    0  0.27086147119E+00  0.57290364625E+00  0.26591540838E+01  0.27336212184E+01  0.00000000000E+00 0. -1.
</event>
<event>
 5    1  0.6440325E+001  0.1599627E+01  0.7818608E-02  0.3353769E+00
         11   -1    0    0    0    0  0.00000000000E+00  0.00000000000E+00  0.39999999674E+01  0.40000000000E+01  0.51100000000E-03 0.  1.
    9000002   -1    0    0    0    0 -0.00000000000E+00 -0.00000000000E+00  0.00000000000E+00  0.93800000000E+00  0.93800000000E+00 0. -1.
         11    1    1    2    0    0 -0.30776622958E-01 -0.70030968427E-01  0.66163855270E+00  0.66604607393E+00  0.51100000000E-03 0.  1.
    9000002    1    1    2    0    0  0.14316748265E+00  0.40414470488E+00  0.12451739588E+00  0.10388351421E+01  0.93800000000E+00 0. -1.
         22    1    1    2    0    0 -0.11239085970E+00 -0.33411373645E+00  0.32138440188E+01  0.32331187840E+01  0.00000000000E+00 0.  1.
</event>
<event>
 5    1  0.6440325E+001  0.1599672E+01  0.7818608E-02  0.3353720E+00
         11   -1    0    0    0    0  0.00000000000E+00  0.00000000000E+00  0.39999999674E+01  0.40000000000E+01  0.51100000000E-03 0. -1.
    9000002   -1    0    0    0    0 -0.00000000000E+00 -0.00000000000E+00  0.00000000000E+00  0.93800000000E+00  0.93800000000E+00 0. -1.
         11    1    1    2    0    0  0.11490216046E+00 -0.66898522618E-01  0.12288637793E+01  0.12360357470E+01  0.51100000000E-03 0. -1.
    9000002    1    1    2    0    0 -0.36818075173E+00  0.21659256588E+00  0.12353055027E+00  0.10380622344E+01  0.93800000000E+00 0. -1.
         22    1    1    2    0    0  0.25327859127E+00 -0.14969404326E+00  0.26476056378E+01  0.26639020186E+01  0.00000000000E+00 0. -1.
</event>
<event>
 5    1  0.6440325E+001  0.1599676E+01  0.7818608E-02  0.3353715E+00
         11   -1    0    0    0    0  0.00000000000E+00  0.00000000000E+00  0.39999999674E+01  0.40000000000E+01  0.51100000000E-03 0.  1.
    9000002   -1    0    0    0    0 -0.00000000000E+00 -0.00000000000E+00  0.00000000000E+00  0.93800000000E+00  0.93800000000E+00 0.  1.
         11    1    1    2    0    0 -0.91296683392E-01 -0.10530654022E+00  0.98018104638E+00  0.99004025000E+00  0.51100000000E-03 0.  1.
    9000002    1    1    2    0    0  0.35279528040E+00  0.40534118753E+00  0.19898107008E+00  0.10991830850E+01  0.93800000000E+00 0.  1.
         22    1    1    2    0    0 -0.26149859700E+00 -0.30003464731E+00  0.28208378509E+01  0.28487766650E+01  0.00000000000E+00 0.  1.
</event>
<event>
 5    1  0.6440325E+001  0.1599643E+01  0.7818608E-02  0.3353751E+00
         11   -1    0    0    0    0  0.00000000000E+00  0.00000000000E+00  0.39999999674E+01  0.40000000000E+01  0.51100000000E-03 0.  1.
    9000002   -1    0    0    0    0 -0.00000000000E+00 -0.00000000000E+00  0.00000000000E+00  0.93800000000E+00  0.93800000000E+00 0.  1.
         11    1    1    2    0    0  0.81536348530E-01 -0.19369519423E+00  0.12866182843E+01  0.13036690051E+01  0.51100000000E-03 0.  1.
    9000002    1    1    2    0    0 -0.25561420729E+00  0.56414578293E+00  0.26880552125E+00  0.11557246626E+01  0.93800000000E+00 0.  1.
         22    1    1    2    0    0  0.17407785876E+00 -0.37045058870E+00  0.24445761618E+01  0.24786063323E+01  0.00000000000E+00 0.  1.
</event>
<event>
 5    1  0.6440325E+001  0.1599677E+01  0.7818608E-02  0.3353714E+00
         11   -1    0    0    0    0  0.00000000000E+00  0.00000000000E+00  0.39999999674E+01  0.40000000000E+01  0.51100000000E-03 0.  1.
    9000002   -1    0    0    0    0 -0.00000000000E+00 -0.00000000000E+00  0.00000000000E+00  0.93800000000E+00  0.93800000000E+00 0. -1.
         11    1    1    2    0    0 -0.40963657071E-01 -0.11829612125E+00  0.13157922378E+01  0.13217342651E+01  0.51100000000E-03 0.  1.
    9000002    1    1    2    0    0  0.12046090352E+00  0.35021335894E+00  0.92180977028E-01  0.10126705084E+01  0.93800000000E+00 0. -1.
         22    1    1    2    0    0 -0.79497246447E-01 -0.23191723769E+00  0.25920267526E+01  0.26035952265E+01  0.00000000000E+00 0.  1.
</event>
<event>
 5    1  0.6440325E+001  0.1599414E+01  0.7818608E-02  0.3354000E+00
         11   -1    0    0    0    0  0.00000000000E+00  0.00000000000E+00  0.39999999674E+01  0.40000000000E+01  0.51100000000E-03 0.  1.
    9000002   -1    0    0    0    0 -0.00000000000E+00 -0.00000000000E+00  0.00000000000E+00  0.93800000000E+00  0.93800000000E+00 0. -1.
         11    1    1    2    0    0 -0.10712927415E+00 -0.59104360961E-01  0.12775146350E+01  0.12833603978E+01  0.51100000000E-03 0.  1.
    9000002    1    1    2    0    0  0.29984301922E+00  0.22937707875E+00  0.96080099379E-01  0.10156746851E+01  0.93800000000E+00 0. -1.
         22    1    1    2    0    0 -0.19271374506E+00 -0.17027271779E+00  0.26264052330E+01  0.26389649171E+01  0.00000000000E+00 0.  1.
</event>
<event>
 5    1  0.7446155E+001  0.1547438E+01  0.7818608E-02  0.3412466E+00
         11   -1    0    0    0    0  0.00000000000E+00  0.00000000000E+00  0.39999999674E+01  0.40000000000E+01  0.51100000000E-03 0.  1.
    9000002   -1    0    0    0    0 -0.00000000000E+00 -0.00000000000E+00  0.00000000000E+00  0.93800000000E+00  0.93800000000E+00 0.  1.
         11    1    1    2    0    0  0.35149677122E-01  0.14361751819E+00  0.34347371759E+00  0.37394644955E+00  0.51100000000E-03 0.  1.
    9000002    1    1    2    0    0  0.22538452998E+00  0.48124213118E-01  0.75933212289E-01  0.96887769041E+00  0.93800000000E+00 0.  1.
         22    1    1    2    0    0 -0.26053420710E+00 -0.19174173131E+00  0.35805930375E+01  0.35951758600E+01  0.00000000000E+00 0.  1.
</event>
<event>
 5    1  0.6440325E+001  0.1597967E+01  0.7818608E-02  0.3355573E+00
         11   -1    0    0    0    0  0.00000000000E+00  0.00000000000E+00  0.39999999674E+01  0.40000000000E+01  0.51100000000E-03 0. -1.
    9000002   -1    0    0    0    0 -0.00000000000E+00 -0.00000000000E+00  0.00000000000E+00  0.93800000000E+00  0.93800000000E+00 0.  1.
         11    1    1    2    0    0  0.20101818942E-01 -0.11016558482E-01  0.10553953229E+00  0.10800139667E+00  0.51100000000E-03 0. -1.
    9000002    1    1    2    0    0 -0.40697984101E+00 -0.92996913812E-01  0.11926886672E+00  0.10336102164E+01  0.93800000000E+00 0.  1.
         22    1    1    2    0    0  0.38687802207E+00  0.10401347229E+00  0.37751915684E+01  0.37963883869E+01  0.00000000000E+00 0. -1.
</event>
<event>
 5    1  0.6440325E+001  0.1547370E+01  0.7818608E-02  0.3412545E+00
         11   -1    0    0    0    0  0.00000000000E+00  0.00000000000E+00  0.39999999674E+01  0.40000000000E+01  0.51100000000E-03 0.  1.
    9000002   -1    0    0    0    0 -0.00000000000E+00 -0.00000000000E+00  0.00000000000E+00  0.93800000000E+00  0.93800000000E+00 0. -1.
         11    1    1    2    0    0  0.13548163712E+00  0.12568892534E+00  0.84908541198E+00  0.86896448599E+00  0.51100000000E-03 0.  1.
    9000002    1    1    2    0    0  0.22347813990E+00  0.33318300394E-01  0.74533714737E-01  0.96770442946E+00  0.93800000000E+00 0. -1.
         22    1    1    2    0    0 -0.35895977702E+00 -0.15900722574E+00  0.30763808406E+01  0.31013310846E+01  0.00000000000E+00 0.  1.
</event>
<event>
 5    1  0.6440325E+001  0.1597803E+01  0.7818608E-02  0.3355752E+00
         11   -1    0    0    0    0  0.00000000000E+00  0.00000000000E+00  0.39999999674E+01  0.40000000000E+01  0.51100000000E-03 0. -1.
    9000002   -1    0    0    0    0 -0.00000000000E+00 -0.00000000000E+00  0.00000000000E+00  0.93800000000E+00  0.93800000000E+00 0.  1.
         11    1    1    2    0    0 -0.17699466845E+00  0.12927604621E+00  0.99757858187E+00  0.10213729470E+01  0.51100000000E-03 0. -1.
    9000002    1    1    2    0    0  0.76925094308E+00 -0.41540273406E+00  0.58149329014E+00  0.14079363946E+01  0.93800000000E+00 0.  1.
         22    1    1    2    0    0 -0.59225627463E+00  0.28612668784E+00  0.24209280953E+01  0.25086906583E+01  0.00000000000E+00 0. -1.
</event>
<event>
 5    1  0.6440325E+001  0.1599672E+01  0.7818608E-02  0.3353720E+00
         11   -1    0    0    0    0  0.00000000000E+00  0.00000000000E+00  0.39999999674E+01  0.40000000000E+01  0.51100000000E-03 0. -1.
    9000002   -1    0    0    0    0 -0.00000000000E+00 -0.00000000000E+00  0.00000000000E+00  0.93800000000E+00  0.93800000000E+00 0.  1.
         11    1    1    2    0    0  0.45284991549E+00 -0.27931211119E+00  0.13655674712E+01  0.14655589654E+01  0.51100000000E-03 0. -1.
    9000002    1    1    2    0    0 -0.95723518071E+00  0.58626841202E+00  0.11058399600E+01  0.18337763929E+01  0.93800000000E+00 0.  1.
         22    1    1    2    0    0  0.50438526522E+00 -0.30695630082E+00  0.15285925362E+01  0.16386646417E+01  0.00000000000E+00 0. -1.
</event>
<event>
 5    1  0.6440325E+001  0.1599675E+01  0.7818608E-02  0.3353716E+00
         11   -1    0    0    0    0  0.00000000000E+00  0.00000000000E+00  0.39999999674E+01  0.40000000000E+01  0.51100000000E-03 0.  1.
    9000002   -1    0    0    0    0 -0.00000000000E+00 -0.00000000000E+00  0.00000000000E+00  0.93800000000E+00  0.93800000000E+00 0.  1.
         11    1    1    2    0    0 -0.56008873642E-01  0.21808586037E-01  0.51373583157E+00  0.51724015129E+00  0.51100000000E-03 0.  1.
    9000002    1    1    2    0    0  0.42728874141E+00 -0.16800637919E+00  0.14337024456E+00  0.10541351142E+01  0.93800000000E+00 0.  1.
         22    1    1    2    0    0 -0.37127986776E+00  0.14619779315E+00  0.33428938912E+01  0.33666247345E+01  0.00000000000E+00 0.  1.
</event>
<event>
 5    1  0.6440325E+001  0.1599676E+01  0.7818608E-02  0.3353715E+00
         11   -1    0    0    0    0  0.00000000000E+00  0.00000000000E+00  0.39999999674E+01  0.40000000000E+01  0.51100000000E-03 0. -1.
    9000002   -1    0    0    0    0 -0.00000000000E+00 -0.00000000000E+00  0.00000000000E+00  0.93800000000E+00  0.93800000000E+00 0.  1.
         11    1    1    2    0    0 -0.22995853736E-01 -0.61656006316E-01  0.39800356967E+00  0.40340720741E+00  0.51100000000E-03 0. -1.
    9000002    1    1    2    0    0  0.22106532758E+00  0.57697325173E+00  0.26740099656E+00  0.11546061256E+01  0.93800000000E+00 0.  1.
         22    1    1    2    0    0 -0.19806947384E+00 -0.51531724541E+00  0.33345954011E+01  0.33799866670E+01  0.00000000000E+00 0. -1.
</event>
<event>
 5    1  0.6440325E+001  0.1598357E+01  0.7818608E-02  0.3355149E+00
         11   -1    0    0    0    0  0.00000000000E+00  0.00000000000E+00  0.39999999674E+01  0.40000000000E+01  0.51100000000E-03 0.  1.
    9000002   -1    0    0    0    0 -0.00000000000E+00 -0.00000000000E+00  0.00000000000E+00  0.93800000000E+00  0.93800000000E+00 0.  1.
         11    1    1    2    0    0 -0.20594330451E+00  0.10953404566E+00  0.11449286209E+01  0.11684486124E+01  0.51100000000E-03 0.  1.
    9000002    1    1    2    0    0  0.55659289490E+00 -0.28596476536E+00  0.27610497037E+00  0.11608830485E+01  0.93800000000E+00 0.  1.
         22    1    1    2    0    0 -0.35064959040E+00  0.17643071971E+00  0.25789663761E+01  0.26086683391E+01  0.00000000000E+00 0.  1.
</event>
<event>
 5    1  0.6440325E+001  0.1599676E+01  0.7818608E-02  0.3353715E+00
         11   -1    0    0    0    0  0.00000000000E+00  0.00000000000E+00  0.39999999674E+01  0.40000000000E+01  0.51100000000E-03 0.  1.
    9000002   -1    0    0    0    0 -0.00000000000E+00 -0.00000000000E+00  0.00000000000E+00  0.93800000000E+00  0.93800000000E+00 0.  1.
         11    1    1    2    0    0 -0.40071010793E-02  0.65000387494E-01  0.66787890891E+00  0.67104664914E+00  0.51100000000E-03 0.  1.
    9000002    1    1    2    0    0  0.25680683376E-01 -0.37497855490E+00  0.95004728641E-01  0.10149572959E+01  0.93800000000E+00 0.  1.
         22    1    1    2    0    0 -0.21673582297E-01  0.30997816741E+00  0.32371163298E+01  0.32519960549E+01  0.00000000000E+00 0.  1.
</event>
<event>
 5    1  0.6440325E+001  0.1599673E+01  0.7818608E-02  0.3353718E+00
         11   -1    0    0    0    0  0.00000000000E+00  0.00000000000E+00  0.39999999674E+01  0.40000000000E+01  0.51100000000E-03 0.  1.
    9000002   -1    0    0    0    0 -0.00000000000E+00 -0.00000000000E+00  0.00000000000E+00  0.93800000000E+00  0.93800000000E+00 0.  1.
         11    1    1    2    0    0  0.42453848311E-01  0.85812738423E-01  0.99553246059E+00  0.10001256404E+01  0.51100000000E-03 0.  1.
    9000002    1    1    2    0    0 -0.15837510404E+00 -0.33655779791E+00  0.93003882066E-01  0.10133348642E+01  0.93800000000E+00 0.  1.
         22    1    1    2    0    0  0.11592125573E+00  0.25074505949E+00  0.29114636247E+01  0.29245394954E+01  0.00000000000E+00 0.  1.
</event>
<event>
 5    1  0.6440325E+001  0.1599612E+01  0.7818608E-02  0.3353785E+00
         11   -1    0    0    0    0  0.00000000000E+00  0.00000000000E+00  0.39999999674E+01  0.40000000000E+01  0.51100000000E-03 0.  1.
    9000002   -1    0    0    0    0 -0.00000000000E+00 -0.00000000000E+00  0.00000000000E+00  0.93800000000E+00  0.93800000000E+00 0. -1.
         11    1    1    2    0    0 -0.11023983680E+00 -0.61211651681E-01  0.13064717545E+01  0.13125427210E+01  0.51100000000E-03 0.  1.
    9000002    1    1    2    0    0  0.33293834758E+00  0.20955750314E+00  0.10435650796E+00  0.10224952671E+01  0.93800000000E+00 0. -1.
         22    1    1    2    0    0 -0.22269851078E+00 -0.14834585146E+00  0.25891717049E+01  0.26029620120E+01  0.00000000000E+00 0.  1.
</event>
<event>
 5    1  0.6440325E+001  0.1599658E+01  0.7818608E-02  0.3353735E+00
         11   -1    0    0    0    0  0.00000000000E+00  0.00000000000E+00  0.39999999674E+01  0.40000000000E+01  0.51100000000E-03 0.  1.
    9000002   -1    0    0    0    0 -0.00000000000E+00 -0.00000000000E+00  0.00000000000E+00  0.93800000000E+00  0.93800000000E+00 0.  1.
         11    1    1    2    0    0 -0.23059281183E-01  0.23498497971E-01  0.36741994995E+00  0.36889238349E+00  0.51100000000E-03 0.  1.
    9000002    1    1    2    0    0  0.24552531824E+00 -0.28202960636E+00  0.94025775303E-01  0.10141539465E+01  0.93800000000E+00 0.  1.
         22    1    1    2    0    0 -0.22246603706E+00  0.25853110839E+00  0.35385542421E+01  0.35549536700E+01  0.00000000000E+00 0.  1.
</event>
<event>
 5    1  0.6440325E+001  0.1535591E+01  0.7818608E-02  0.3426382E+00
         11   -1    0    0    0    0  0.00000000000E+00  0.00000000000E+00  0.39999999674E+01  0.40000000000E+01  0.51100000000E-03 0. -1.
    9000002   -1    0    0    0    0 -0.00000000000E+00 -0.00000000000E+00  0.00000000000E+00  0.93800000000E+00  0.93800000000E+00 0.  1.
         11    1    1    2    0    0 -0.22505377835E+00  0.80379532999E-01  0.50934685036E+00  0.56262291774E+00  0.51100000000E-03 0. -1.
    9000002    1    1    2    0    0  0.37568080638E+00  0.30118319363E+00  0.21743583048E+00  0.10765545619E+01  0.93800000000E+00 0.  1.
         22    1    1    2    0    0 -0.15062702802E+00 -0.38156272663E+00  0.32732172865E+01  0.32988225203E+01  0.00000000000E+00 0. -1.
</event>
<event>
 5    1  0.6440325E+001  0.1571746E+01  0.7818608E-02  0.3384612E+00
         11   -1    0    0    0    0  0.00000000000E+00  0.00000000000E+00  0.39999999674E+01  0.40000000000E+01  0.51100000000E-03 0. -1.
    9000002   -1    0    0    0    0 -0.00000000000E+00 -0.00000000000E+00  0.00000000000E+00  0.93800000000E+00  0.93800000000E+00 0. -1.
         11    1    1    2    0    0 -0.13561689503E+00  0.20513448053E-01  0.30522560050E+00  0.33462766187E+00  0.51100000000E-03 0. -1.
    9000002    1    1    2    0    0  0.37932085078E+00  0.20156333555E+00  0.14909264347E+00  0.10423937367E+01  0.93800000000E+00 0. -1.
         22    1    1    2    0    0 -0.24370395575E+00 -0.22207678360E+00  0.35456817234E+01  0.35609786014E+01  0.00000000000E+00 0. -1.
</event>
<event>
 5    1  0.6440325E+001  0.1599676E+01  0.7818608E-02  0.3353715E+00
         11   -1    0    0    0    0  0.00000000000E+00  0.00000000000E+00  0.39999999674E+01  0.40000000000E+01  0.51100000000E-03 0.  1.
    9000002   -1    0    0    0    0 -0.00000000000E+00 -0.00000000000E+00  0.00000000000E+00  0.93800000000E+00  0.93800000000E+00 0. -1.
         11    1    1    2    0    0 -0.38949035639E+00 -0.14902153812E-01  0.14407586210E+01  0.14925516664E+01  0.51100000000E-03 0.  1.
    9000002    1    1    2    0    0  0.90847682827E+00  0.33109361555E-01  0.63508653243E+00  0.14524480304E+01  0.93800000000E+00 0. -1.
         22    1    1    2    0    0 -0.51898647187E+00 -0.18207207743E-01  0.19241548140E+01  0.19930003032E+01  0.00000000000E+00 0.  1.
</event>
<event>
 5    1  0.6761974E+001  0.1599676E+01  0.7818608E-02  0.3353715E+00
         11   -1    0    0    0    0  0.00000000000E+00  0.00000000000E+00  0.39999999674E+01  0.40000000000E+01  0.51100000000E-03 0. -1.
    9000002   -1    0    0    0    0 -0.00000000000E+00 -0.00000000000E+00  0.00000000000E+00  0.93800000000E+00  0.93800000000E+00 0. -1.
         11    1    1    2    0    0  0.12320443595E+00  0.31383880286E-01  0.13282907125E+01  0.13343615548E+01  0.51100000000E-03 0. -1.
    9000002    1    1    2    0    0 -0.36479830507E+00 -0.94339006155E-01  0.95492284086E-01  0.10153523663E+01  0.93800000000E+00 0. -1.
         22    1    1    2    0    0  0.24159386912E+00  0.62955125869E-01  0.25762169708E+01  0.25882860789E+01  0.00000000000E+00 0. -1.
</event>
<event>
 5    1  0.6440325E+001  0.1599274E+01  0.7818608E-02  0.3354152E+00
         11   -1    0    0    0    0  0.00000000000E+00  0.00000000000E+00  0.39999999674E+01  0.40000000000E+01  0.51100000000E-03 0.  1.
    9000002   -1    0    0    0    0 -0.00000000000E+00 -0.00000000000E+00  0.00000000000E+00  0.93800000000E+00  0.93800000000E+00 0.  1.
         11    1    1    2    0    0 -0.13212616813E+00 -0.33033676289E-01  0.13474502026E+01  0.13543156418E+01  0.51100000000E-03 0.  1.
    9000002    1    1    2    0    0  0.35838064799E+00  0.15759462848E+00  0.10360753030E+00  0.10216904013E+01  0.93800000000E+00 0.  1.
         22    1    1    2    0    0 -0.22625447986E+00 -0.12456095219E+00  0.25489422345E+01  0.25619939569E+01  0.00000000000E+00 0.  1.
</event>
<event>
 5    1  0.6440325E+001  0.1599675E+01  0.7818608E-02  0.3353717E+00
         11   -1    0    0    0    0  0.00000000000E+00  0.00000000000E+00  0.39999999674E+01  0.40000000000E+01  0.51100000000E-03 0.  1.
    9000002   -1    0    0    0    0 -0.00000000000E+00 -0.00000000000E+00  0.00000000000E+00  0.93800000000E+00  0.93800000000E+00 0.  1.
         11    1    1    2    0    0  0.11035436722E-01  0.16966886310E-01  0.19137210624E+00  0.19244012124E+00  0.51100000000E-03 0.  1.
    9000002    1    1    2    0    0 -0.21497594653E+00 -0.33508785294E+00  0.10688675535E+00  0.10245815269E+01  0.93800000000E+00 0.  1.
         22    1    1    2    0    0  0.20394050980E+00  0.31812096663E+00  0.37017411058E+01  0.37209783519E+01  0.00000000000E+00 0.  1.
</event>
<event>
 5    1  0.6440325E+001  0.1579305E+01  0.7818608E-02  0.3376136E+00
         11   -1    0    0    0    0  0.00000000000E+00  0.00000000000E+00  0.39999999674E+01  0.40000000000E+01  0.51100000000E-03 0.  1.
    9000002   -1    0    0    0    0 -0.00000000000E+00 -0.00000000000E+00  0.00000000000E+00  0.93800000000E+00  0.93800000000E+00 0.  1.
         11    1    1    2    0    0  0.19762408240E+00  0.15609643988E-01  0.12842080841E+01  0.12994189484E+01  0.51100000000E-03 0.  1.
    9000002    1    1    2    0    0 -0.19705355428E+00  0.23064397592E+00  0.77560013925E-01  0.98888133901E+00  0.93800000000E+00 0.  1.
         22    1    1    2    0    0 -0.57052812443E-03 -0.24625361990E+00  0.26382318693E+01  0.26496997126E+01  0.00000000000E+00 0.  1.
</event>
<event>
 5    1  0.6440325E+001  0.1593276E+01  0.7818608E-02  0.3360694E+00
         11   -1    0    0    0    0  0.00000000000E+00  0.00000000000E+00  0.39999999674E+01  0.40000000000E+01  0.51100000000E-03 0. -1.
    9000002   -1    0    0    0    0 -0.00000000000E+00 -0.00000000000E+00  0.00000000000E+00  0.93800000000E+00  0.93800000000E+00 0. -1.
         11    1    1    2    0    0  0.11208796259E-01  0.89256648891E-01  0.34607250751E+00  0.35757352818E+00  0.51100000000E-03 0. -1.
    9000002    1    1    2    0    0 -0.17538106987E+00 -0.37859338240E+00  0.12310652715E+00  0.10339684163E+01  0.93800000000E+00 0. -1.
         22    1    1    2    0    0  0.16417227361E+00  0.28933673351E+00  0.35308209327E+01  0.35464580555E+01  0.00000000000E+00 0. -1.
</event>
<event>
 5    1  0.6440325E+001  0.1599655E+01  0.7818608E-02  0.3353738E+00
         11   -1    0    0    0    0  0.00000000000E+00  0.00000000000E+00  0.39999999674E+01  0.40000000000E+01  0.51100000000E-03 0. -1.
    9000002   -1    0    0    0    0 -0.00000000000E+00 -0.00000000000E+00  0.00000000000E+00  0.93800000000E+00  0.93800000000E+00 0. -1.
         11    1    1    2    0    0  0.99602125408E-01  0.20276365419E+00  0.11951781443E+01  0.12163407173E+01  0.51100000000E-03 0. -1.
    9000002    1    1    2    0    0 -0.31643964653E+00 -0.60956094721E+00  0.33595884261E+00  0.12101284817E+01  0.93800000000E+00 0. -1.
         22    1    1    2    0    0  0.21683752112E+00  0.40679729302E+00  0.24688629804E+01  0.25115308010E+01  0.00000000000E+00 0. -1.
</event>
<event>
 5    1  0.6440325E+001  0.1532675E+01  0.7818608E-02  0.3429842E+00
         11   -1    0    0    0    0  0.00000000000E+00  0.00000000000E+00  0.39999999674E+01  0.40000000000E+01  0.51100000000E-03 0. -1.
    9000002   -1    0    0    0    0 -0.00000000000E+00 -0.00000000000E+00  0.00000000000E+00  0.93800000000E+00  0.93800000000E+00 0.  1.
         11    1    1    2    0    0  0.12609885826E+00  0.16907709148E+00  0.78912911657E+00  0.81683107718E+00  0.51100000000E-03 0. -1.
    9000002    1    1    2    0    0  0.18037448022E+00  0.10648129214E+00  0.81253120363E-01  0.96453060514E+00  0.93800000000E+00 0.  1.
         22    1    1    2    0    0 -0.30647333848E+00 -0.27555838361E+00  0.31296177304E+01  0.31566383177E+01  0.00000000000E+00 0. -1.
</event>
<event>
 5    1  0.6440325E+001  0.1597120E+01  0.7818608E-02  0.3356495E+00
         11   -1    0    0    0    0  0.00000000000E+00  0.00000000000E+00  0.39999999674E+01  0.40000000000E+01  0.51100000000E-03 0.  1.
    9000002   -1    0    0    0    0 -0.00000000000E+00 -0.00000000000E+00  0.00000000000E+00  0.93800000000E+00  0.93800000000E+00 0. -1.
         11    1    1    2    0    0 -0.77506366345E-01 -0.62903986205E-01  0.24194674870E+00  0.26173008737E+00  0.51100000000E-03 0.  1.
    9000002    1    1    2    0    0  0.59659461007E+00  0.77675685600E+00  0.76766017524E+00  0.15583396571E+01  0.93800000000E+00 0. -1.
         22    1    1    2    0    0 -0.51908824373E+00 -0.71385286980E+00  0.29903930434E+01  0.31179302556E+01  0.00000000000E+00 0.  1.
</event>
<event>
 5    1  0.6440325E+001  0.1599675E+01  0.7818608E-02  0.3353716E+00
         11   -1    0    0    0    0  0.00000000000E+00  0.00000000000E+00  0.39999999674E+01  0.40000000000E+01  0.51100000000E-03 0.  1.
    9000002   -1    0    0    0    0 -0.00000000000E+00 -0.00000000000E+00  0.00000000000E+00  0.93800000000E+00  0.93800000000E+00 0. -1.
         11    1    1    2    0    0  0.80123346810E-01 -0.24280103298E-01  0.75820233887E+00  0.76281080349E+00  0.51100000000E-03 0.  1.
    9000002    1    1    2    0    0 -0.40750184050E+00  0.13002463603E+00  0.12387261918E+00  0.10383412646E+01  0.93800000000E+00 0. -1.
         22    1    1    2    0    0  0.32737849369E+00 -0.10574453273E+00  0.31179250093E+01  0.31368479319E+01  0.00000000000E+00 0.  1.
</event>
<event>
 5    1  0.6440325E+001  0.1599453E+01  0.7818608E-02  0.3353957E+00
         11   -1    0    0    0    0  0.00000000000E+00  0.00000000000E+00  0.39999999674E+01  0.40000000000E+01  0.51100000000E-03 0.  1.
    9000002   -1    0    0    0    0 -0.00000000000E+00 -0.00000000000E+00  0.00000000000E+00  0.93800000000E+00  0.93800000000E+00 0. -1.
         11    1    1    2    0    0 -0.47818135175E-01 -0.10354149592E+00  0.14086891340E+01  0.14132985364E+01  0.51100000000E-03 0.  1.
    9000002    1    1    2    0    0  0.13574463840E+00  0.33561971844E+00  0.88182600374E-01  0.10093004376E+01  0.93800000000E+00 0. -1.
         22    1    1    2    0    0 -0.87926503229E-01 -0.23207822253E+00  0.25031282329E+01  0.25154010261E+01  0.00000000000E+00 0.  1.
</event>
<event>
 5    1  0.6440325E+001  0.1595789E+01  0.7818608E-02  0.3357946E+00
         11   -1    0    0    0    0  0.00000000000E+00  0.00000000000E+00  0.39999999674E+01  0.40000000000E+01  0.51100000000E-03 0.  1.
    9000002   -1    0    0    0    0 -0.00000000000E+00 -0.00000000000E+00  0.00000000000E+00  0.93800000000E+00  0.93800000000E+00 0.  1.
         11    1    1    2    0    0 -0.48301851248E-01  0.14019107444E+00  0.10476148062E+01  0.10580565436E+01  0.51100000000E-03 0.  1.
    9000002    1    1    2    0    0 -0.45326976123E-01 -0.41527117757E+00  0.12126531358E+00  0.10339506574E+01  0.93800000000E+00 0.  1.
         22    1    1    2    0    0  0.93628827371E-01  0.27508010313E+00  0.28311198476E+01  0.28459927990E+01  0.00000000000E+00 0.  1.
</event>
<event>
 5    1  0.6440325E+001  0.1568610E+01  0.7818608E-02  0.3388154E+00
         11   -1    0    0    0    0  0.00000000000E+00  0.00000000000E+00  0.39999999674E+01  0.40000000000E+01  0.51100000000E-03 0.  1.
    9000002   -1    0    0    0    0 -0.00000000000E+00 -0.00000000000E+00  0.00000000000E+00  0.93800000000E+00  0.93800000000E+00 0. -1.
         11    1    1    2    0    0 -0.11003132483E-01 -0.11379984925E+00  0.87570606011E+00  0.88313806364E+00  0.51100000000E-03 0.  1.
    9000002    1    1    2    0    0 -0.38032927355E+00 -0.15363241399E+00  0.14015549807E+00  0.10333154594E+01  0.93800000000E+00 0. -1.
         22    1    1    2    0    0  0.39133240604E+00  0.26743226324E+00  0.29841384092E+01  0.30215464770E+01  0.00000000000E+00 0.  1.
</event>
<event>
 5    1  0.6440325E+001  0.1599054E+01  0.7818608E-02  0.3354391E+00
         11   -1    0    0    0    0  0.00000000000E+00  0.00000000000E+00  0.39999999674E+01  0.40000000000E+01  0.51100000000E-03 0.  1.
    9000002   -1    0    0    0    0 -0.00000000000E+00 -0.00000000000E+00  0.00000000000E+00  0.93800000000E+00  0.93800000000E+00 0.  1.
         11    1    1    2    0    0 -0.38268670423E-02 -0.39980165359E-02  0.15978662064E+00  0.15988325211E+00  0.51100000000E-03 0.  1.
    9000002    1    1    2    0    0  0.36979872673E+00  0.18539813705E+00  0.11615681937E+00  0.10317266955E+01  0.93800000000E+00 0.  1.
         22    1    1    2    0    0 -0.36597185969E+00 -0.18140012051E+00  0.37240565273E+01  0.37463900524E+01  0.00000000000E+00 0.  1.
</event>
<event>
 5    1  0.6440325E+001  0.1599587E+01  0.7818608E-02  0.3353812E+00
         11   -1    0    0    0    0  0.00000000000E+00  0.00000000000E+00  0.39999999674E+01  0.40000000000E+01  0.51100000000E-03 0.  1.
    9000002   -1    0    0    0    0 -0.00000000000E+00 -0.00000000000E+00  0.00000000000E+00  0.93800000000E+00  0.93800000000E+00 0.  1.
         11    1    1    2    0    0  0.10108544681E+00 -0.30565370424E-01  0.85816420781E+00  0.86463783060E+00  0.51100000000E-03 0.  1.
    9000002    1    1    2    0    0 -0.41579181133E+00  0.15414824230E+00  0.13350740058E+00  0.10460940383E+01  0.93800000000E+00 0.  1.
         22    1    1    2    0    0  0.31470636452E+00 -0.12358287187E+00  0.30083283590E+01  0.30272681311E+01  0.00000000000E+00 0.  1.
</event>
<event>
 5    1  0.6440325E+001  0.1599674E+01  0.7818608E-02  0.3353717E+00
         11   -1    0    0    0    0  0.00000000000E+00  0.00000000000E+00  0.39999999674E+01  0.40000000000E+01  0.51100000000E-03 0.  1.
    9000002   -1    0    0    0    0 -0.00000000000E+00 -0.00000000000E+00  0.00000000000E+00  0.93800000000E+00  0.93800000000E+00 0. -1.
         11    1    1    2    0    0 -0.28224421105E-01  0.13464900274E+00  0.13372364983E+01  0.13442948655E+01  0.51100000000E-03 0.  1.
    9000002    1    1    2    0    0  0.78052426120E-01 -0.39509438219E+00  0.10944217330E+00  0.10266515189E+01  0.93800000000E+00 0. -1.
         22    1    1    2    0    0 -0.49828005015E-01  0.26044537945E+00  0.25533212958E+01  0.25670536156E+01  0.00000000000E+00 0.  1.
</event>
<event>
 5    1  0.6440325E+001  0.1598151E+01  0.7818608E-02  0.3355373E+00
         11   -1    0    0    0    0  0.00000000000E+00  0.00000000000E+00  0.39999999674E+01  0.40000000000E+01  0.51100000000E-03 0.  1.
    9000002   -1    0    0    0    0 -0.00000000000E+00 -0.00000000000E+00  0.00000000000E+00  0.93800000000E+00  0.93800000000E+00 0.  1.
         11    1    1    2    0    0 -0.41446694885E-02 -0.53109087560E-02  0.64665041035E-01  0.65017018464E-01  0.51100000000E-03 0.  1.
    9000002    1    1    2    0    0 -0.37320824790E+00 -0.47031088014E-01  0.96410835599E-01  0.10152021320E+01  0.93800000000E+00 0.  1.
         22    1    1    2    0    0  0.37735291739E+00  0.52341996770E-01  0.38389240907E+01  0.38577808496E+01  0.00000000000E+00 0.  1.
</event>
<event>
 5    1  0.6440325E+001  0.1599408E+01  0.7818608E-02  0.3354006E+00
         11   -1    0    0    0    0  0.00000000000E+00  0.00000000000E+00  0.39999999674E+01  0.40000000000E+01  0.51100000000E-03 0. -1.
    9000002   -1    0    0    0    0 -0.00000000000E+00 -0.00000000000E+00  0.00000000000E+00  0.93800000000E+00  0.93800000000E+00 0. -1.
         11    1    1    2    0    0 -0.12254757806E+00  0.20787389914E+00  0.87669884989E+00  0.90930226072E+00  0.51100000000E-03 0. -1.
    9000002    1    1    2    0    0  0.49904193663E+00 -0.74116049162E+00  0.60978994230E+00  0.14317993933E+01  0.93800000000E+00 0. -1.
         22    1    1    2    0    0 -0.37649435857E+00  0.53328659248E+00  0.25135111752E+01  0.25968983460E+01  0.00000000000E+00 0. -1.
</event>
<event>
 5    1  0.6440325E+001  0.1599671E+01  0.7818608E-02  0.3353720E+00
         11   -1    0    0    0    0  0.00000000000E+00  0.00000000000E+00  0.39999999674E+01  0.40000000000E+01  0.51100000000E-03 0.  1.
    9000002   -1    0    0    0    0 -0.00000000000E+00 -0.00000000000E+00  0.00000000000E+00  0.93800000000E+00  0.93800000000E+00 0. -1.
         11    1    1    2    0    0  0.73117387815E-01  0.11488120403E+00  0.80164972641E+00  0.81313368422E+00  0.51100000000E-03 0.  1.
    9000002    1    1    2    0    0 -0.32993483093E+00 -0.53887886516E+00  0.28053612913E+00  0.11652432981E+01  0.93800000000E+00 0. -1.
         22    1    1    2    0    0  0.25681744312E+00  0.42399766113E+00  0.29178141118E+01  0.29596230177E+01  0.00000000000E+00 0.  1.
</event>
<event>
 5    1  0.6440325E+001  0.1599676E+01  0.7818608E-02  0.3353715E+00
         11   -1    0    0    0    0  0.00000000000E+00  0.00000000000E+00  0.39999999674E+01  0.40000000000E+01  0.51100000000E-03 0.  1.
    9000002   -1    0    0    0    0 -0.00000000000E+00 -0.00000000000E+00  0.00000000000E+00  0.93800000000E+00  0.93800000000E+00 0.  1.
         11    1    1    2    0    0 -0.71741147648E-01  0.12604354574E+00  0.10286934558E+01  0.10388668128E+01  0.51100000000E-03 0.  1.
    9000002    1    1    2    0    0  0.26312831363E+00 -0.46345561516E+00  0.19555747671E+00  0.10964097516E+01  0.93800000000E+00 0.  1.
         22    1    1    2    0    0 -0.19138716598E+00  0.33741206942E+00  0.27757490349E+01  0.28027234356E+01  0.00000000000E+00 0.  1.
</event>
<event>
 5    1  0.6440325E+001  0.1599676E+01  0.7818608E-02  0.3353715E+00
         11   -1    0    0    0    0  0.00000000000E+00  0.00000000000E+00  0.39999999674E+01  0.40000000000E+01  0.51100000000E-03 0. -1.
    9000002   -1    0    0    0    0 -0.00000000000E+00 -0.00000000000E+00  0.00000000000E+00  0.93800000000E+00  0.93800000000E+00 0. -1.
         11    1    1    2    0    0  0.68812946662E-01 -0.94445107678E-01  0.11518064708E+01  0.11577190969E+01  0.51100000000E-03 0. -1.
    9000002    1    1    2    0    0 -0.23551859537E+00  0.31649873842E+00  0.10491027762E+00  0.10229812445E+01  0.93800000000E+00 0. -1.
         22    1    1    2    0    0  0.16670564871E+00 -0.22205363074E+00  0.27432832189E+01  0.27572996587E+01  0.00000000000E+00 0. -1.
</event>
<event>
 5    1  0.6440325E+001  0.1595091E+01  0.7818608E-02  0.3358709E+00
         11   -1    0    0    0    0  0.00000000000E+00  0.00000000000E+00  0.39999999674E+01  0.40000000000E+01  0.51100000000E-03 0. -1.
    9000002   -1    0    0    0    0 -0.00000000000E+00 -0.00000000000E+00  0.00000000000E+00  0.93800000000E+00  0.93800000000E+00 0.  1.
         11    1    1    2    0    0 -0.10114675814E-01  0.18144944286E+00  0.12903444369E+01  0.13030791358E+01  0.51100000000E-03 0. -1.
    9000002    1    1    2    0    0  0.13598722272E+00 -0.70451956212E+00  0.37499692104E+00  0.12390750699E+01  0.93800000000E+00 0.  1.
         22    1    1    2    0    0 -0.12587254691E+00  0.52307011926E+00  0.23346586094E+01  0.23958457943E+01  0.00000000000E+00 0. -1.
</event>
<event>
 5    1  0.6440325E+001  0.1599393E+01  0.7818608E-02  0.3354022E+00
         11   -1    0    0    0    0  0.00000000000E+00  0.00000000000E+00  0.39999999674E+01  0.40000000000E+01  0.51100000000E-03 0. -1.
    9000002   -1    0    0    0    0 -0.00000000000E+00 -0.00000000000E+00  0.00000000000E+00  0.93800000000E+00  0.93800000000E+00 0.  1.
         11    1    1    2    0    0 -0.14634920713E+00 -0.86074297135E-01  0.14213489502E+01  0.14314537975E+01  0.51100000000E-03 0. -1.
    9000002    1    1    2    0    0  0.35319627486E+00  0.20925449250E+00  0.11407410419E+00  0.10302387842E+01  0.93800000000E+00 0.  1.
         22    1    1    2    0    0 -0.20684706774E+00 -0.12318019537E+00  0.24645769129E+01  0.24763074183E+01  0.00000000000E+00 0. -1.
</event>
<event>
 5    1  0.6440325E+001  0.1598929E+01  0.7818608E-02  0.3354527E+00
         11   -1    0    0    0    0  0.00000000000E+00  0.00000000000E+00  0.39999999674E+01  0.40000000000E+01  0.51100000000E-03 0. -1.
    9000002   -1    0    0    0    0 -0.00000000000E+00 -0.00000000000E+00  0.00000000000E+00  0.93800000000E+00  0.93800000000E+00 0.  1.
         11    1    1    2    0    0  0.56237416412E-01  0.60420559413E-01  0.12050772672E+01  0.12079009778E+01  0.51100000000E-03 0. -1.
    9000002    1    1    2    0    0 -0.14777905735E+00 -0.28947137868E+00  0.71234432405E-01  0.99526412235E+00  0.93800000000E+00 0.  1.
         22    1    1    2    0    0  0.91541640940E-01  0.22905081927E+00  0.27236882677E+01  0.27348348999E+01  0.00000000000E+00 0. -1.
</event>
<event>
 5    1  0.6440325E+001  0.1599677E+01  0.7818608E-02  0.3353714E+00
         11   -1    0    0    0    0  0.00000000000E+00  0.00000000000E+00  0.39999999674E+01  0.40000000000E+01  0.51100000000E-03 0.  1.
    9000002   -1    0    0    0    0 -0.00000000000E+00 -0.00000000000E+00  0.00000000000E+00  0.93800000000E+00  0.93800000000E+00 0.  1.
         11    1    1    2    0    0 -0.73865874611E-01  0.14925807784E+00  0.14703776473E+01  0.14797786416E+01  0.51100000000E-03 0.  1.
    9000002    1    1    2    0    0  0.19448832241E+00 -0.39416803935E+00  0.13101512784E+00  0.10441279206E+01  0.93800000000E+00 0.  1.
         22    1    1    2    0    0 -0.12062244780E+00  0.24490996151E+00  0.23986071922E+01  0.24140934379E+01  0.00000000000E+00 0.  1.
</event>
<event>
 5    1  0.6440325E+001  0.1599669E+01  0.7818608E-02  0.3353723E+00
         11   -1    0    0    0    0  0.00000000000E+00  0.00000000000E+00  0.39999999674E+01  0.40000000000E+01  0.51100000000E-03 0. -1.
    9000002   -1    0    0    0    0 -0.00000000000E+00 -0.00000000000E+00  0.00000000000E+00  0.93800000000E+00  0.93800000000E+00 0. -1.
         11    1    1    2    0    0 -0.11120202969E-01 -0.55701020171E-01  0.30963078457E+00  0.31479794541E+00  0.51100000000E-03 0. -1.
    9000002    1    1    2    0    0  0.11141677237E+00  0.65662291113E+00  0.31423823256E+00  0.11925422472E+01  0.93800000000E+00 0. -1.
         22    1    1    2    0    0 -0.10029656940E+00 -0.60092189095E+00  0.33761309502E+01  0.34306598074E+01  0.00000000000E+00 0. -1.
</event>
<event>
 5    1  0.6440325E+001  0.1597387E+01  0.7818608E-02  0.3356204E+00
         11   -1    0    0    0    0  0.00000000000E+00  0.00000000000E+00  0.39999999674E+01  0.40000000000E+01  0.51100000000E-03 0.  1.
    9000002   -1    0    0    0    0 -0.00000000000E+00 -0.00000000000E+00  0.00000000000E+00  0.93800000000E+00  0.93800000000E+00 0. -1.
         11    1    1    2    0    0  0.11401732733E+00 -0.22427862823E+00  0.14274207915E+01  0.14494244482E+01  0.51100000000E-03 0.  1.
    9000002    1    1    2    0    0 -0.15259189505E+00  0.57917244857E+00  0.25250221358E+00  0.11411951540E+01  0.93800000000E+00 0. -1.
         22    1    1    2    0    0  0.38574567719E-01 -0.35489382034E+00  0.23200769623E+01  0.23473803978E+01  0.00000000000E+00 0.  1.
</event>
<event>
 5    1  0.6440325E+001  0.1578462E+01  0.7818608E-02  0.3377077E+00
         11   -1    0    0    0    0  0.00000000000E+00  0.00000000000E+00  0.39999999674E+01  0.40000000000E+01  0.51100000000E-03 0. -1.
    9000002   -1    0    0    0    0 -0.00000000000E+00 -0.00000000000E+00  0.00000000000E+00  0.93800000000E+00  0.93800000000E+00 0.  1.
         11    1    1    2    0    0  0.34191671800E-01 -0.30422731950E-01  0.12155232579E+00  0.12988395615E+00  0.51100000000E-03 0. -1.
    9000002    1    1    2    0    0  0.31915587587E+00 -0.40372842643E+00  0.20139156971E+00  0.10886963212E+01  0.93800000000E+00 0.  1.
         22    1    1    2    0    0 -0.35334754767E+00  0.43415115838E+00  0.36770560719E+01  0.37194197227E+01  0.00000000000E+00 0. -1.
</event>
<event>
 5    1  0.6440325E+001  0.1599647E+01  0.7818608E-02  0.3353746E+00
         11   -1    0    0    0    0  0.00000000000E+00  0.00000000000E+00  0.39999999674E+01  0.40000000000E+01  0.51100000000E-03 0. -1.
    9000002   -1    0    0    0    0 -0.00000000000E+00 -0.00000000000E+00  0.00000000000E+00  0.93800000000E+00  0.93800000000E+00 0.  1.
         11    1    1    2    0    0  0.56426927920E-02 -0.36799491184E-01  0.32475625305E+00  0.32688366057E+00  0.51100000000E-03 0. -1.
    9000002    1    1    2    0    0 -0.64598661350E-01  0.39760326064E+00  0.10951295926E+00  0.10266929571E+01  0.93800000000E+00 0.  1.
         22    1    1    2    0    0  0.58955968558E-01 -0.36080376945E+00  0.35657307550E+01  0.35844233823E+01  0.00000000000E+00 0. -1.
</event>
<event>
 5    1  0.6440325E+001  0.1599027E+01  0.7818608E-02  0.3354420E+00
         11   -1    0    0    0    0  0.00000000000E+00  0.00000000000E+00  0.39999999674E+01  0.40000000000E+01  0.51100000000E-03 0.  1.
    9000002   -1    0    0    0    0 -0.00000000000E+00 -0.00000000000E+00  0.00000000000E+00  0.93800000000E+00  0.93800000000E+00 0. -1.
         11    1    1    2    0    0  0.10440416011E-01 -0.50904071474E-01  0.74535702648E+00  0.74716637024E+00  0.51100000000E-03 0.  1.
    9000002    1    1    2    0    0  0.17015128838E-01  0.37115172325E+00  0.93317741355E-01  0.10132104012E+01  0.93800000000E+00 0. -1.
         22    1    1    2    0    0 -0.27455544849E-01 -0.32024765177E+00  0.31613251995E+01  0.31776232285E+01  0.00000000000E+00 0.  1.
</event>
<event>
 5    1  0.7929959E+001  0.1574024E+01  0.7818608E-02  0.3382048E+00
         11   -1    0    0    0    0  0.00000000000E+00  0.00000000000E+00  0.39999999674E+01  0.40000000000E+01  0.51100000000E-03 0. -1.
    9000002   -1    0    0    0    0 -0.00000000000E+00 -0.00000000000E+00  0.00000000000E+00  0.93800000000E+00  0.93800000000E+00 0. -1.
         11    1    1    2    0    0 -0.10794833236E+00 -0.64081059791E-01  0.11216865220E+01  0.11286895674E+01  0.51100000000E-03 0. -1.
    9000002    1    1    2    0    0 -0.81227396132E-01 -0.17646926940E+00  0.44413366152E-01  0.95893474232E+00  0.93800000000E+00 0. -1.
         22    1    1    2    0    0  0.18917572849E+00  0.24055032920E+00  0.28339000792E+01  0.28503756903E+01  0.00000000000E+00 0. -1.
</event>
<event>
 5    1  0.6440325E+001  0.1599653E+01  0.7818608E-02  0.3353740E+00
         11   -1    0    0    0    0  0.00000000000E+00  0.00000000000E+00  0.39999999674E+01  0.40000000000E+01  0.51100000000E-03 0. -1.
    9000002   -1    0    0    0    0 -0.00000000000E+00 -0.00000000000E+00  0.00000000000E+00  0.93800000000E+00  0.93800000000E+00 0.  1.
         11    1    1    2    0    0 -0.12576292064E-02 -0.28652317196E-02  0.21231923214E-01  0.21467344233E-01  0.51100000000E-03 0. -1.
    9000002    1    1    2    0    0  0.32838108648E+00  0.43771719700E+00  0.20672978040E+00  0.11054463735E+01  0.93800000000E+00 0.  1.
         22    1    1    2    0    0 -0.32712345727E+00 -0.43485196528E+00  0.37720382637E+01  0.38110862823E+01  0.00000000000E+00 0. -1.
</event>
<event>
 5    1  0.6440325E+001  0.1599509E+01  0.7818608E-02  0.3353896E+00
         11   -1    0    0    0    0  0.00000000000E+00  0.00000000000E+00  0.39999999674E+01  0.40000000000E+01  0.51100000000E-03 0. -1.
    9000002   -1    0    0    0    0 -0.00000000000E+00 -0.00000000000E+00  0.00000000000E+00  0.93800000000E+00  0.93800000000E+00 0. -1.
         11    1    1    2    0    0 -0.23573868499E-01  0.69778031625E-01  0.46286279275E+00  0.46868638449E+00  0.51100000000E-03 0. -1.
    9000002    1    1    2    0    0  0.10925905357E+00 -0.57891559240E+00  0.24176792570E+00  0.11337444747E+01  0.93800000000E+00 0. -1.
         22    1    1    2    0    0 -0.85685185068E-01  0.50913756078E+00  0.32953692489E+01  0.33355691409E+01  0.00000000000E+00 0. -1.
</event>
<event>
 5    1  0.6440325E+001  0.1599547E+01  0.7818608E-02  0.3353855E+00
         11   -1    0    0    0    0  0.00000000000E+00  0.00000000000E+00  0.39999999674E+01  0.40000000000E+01  0.51100000000E-03 0. -1.
    9000002   -1    0    0    0    0 -0.00000000000E+00 -0.00000000000E+00  0.00000000000E+00  0.93800000000E+00  0.93800000000E+00 0. -1.
         11    1    1    2    0    0  0.38058447526E-01  0.12742482422E+00  0.12249530898E+01  0.12321509099E+01  0.51100000000E-03 0. -1.
    9000002    1    1    2    0    0 -0.15805265845E+00 -0.41596690209E+00  0.13449778437E+00  0.10468728483E+01  0.93800000000E+00 0. -1.
         22    1    1    2    0    0  0.11999421092E+00  0.28854207787E+00  0.26405490932E+01  0.26589762419E+01  0.00000000000E+00 0. -1.
</event>
<event>
 5    1  0.6440325E+001  0.1593180E+01  0.7818608E-02  0.3360799E+00
         11   -1    0    0    0    0  0.00000000000E+00  0.00000000000E+00  0.39999999674E+01  0.40000000000E+01  0.51100000000E-03 0. -1.
    9000002   -1    0    0    0    0 -0.00000000000E+00 -0.00000000000E+00  0.00000000000E+00  0.93800000000E+00  0.93800000000E+00 0. -1.
         11    1    1    2    0    0 -0.52732664185E-02 -0.14574948530E-01  0.24046434088E-01  0.28613433501E-01  0.51100000000E-03 0. -1.
    9000002    1    1    2    0    0  0.34986521258E+00 -0.15035109604E+00  0.10293332426E+00  0.10175708272E+01  0.93800000000E+00 0. -1.
         22    1    1    2    0    0 -0.34459194616E+00  0.16492604457E+00  0.38730202090E+01  0.38918157393E+01  0.00000000000E+00 0. -1.
</event>
<event>
 5    1  0.6440325E+001  0.1597900E+01  0.7818608E-02  0.3355646E+00
         11   -1    0    0    0    0  0.00000000000E+00  0.00000000000E+00  0.39999999674E+01  0.40000000000E+01  0.51100000000E-03 0.  1.
    9000002   -1    0    0    0    0 -0.00000000000E+00 -0.00000000000E+00  0.00000000000E+00  0.93800000000E+00  0.93800000000E+00 0.  1.
         11    1    1    2    0    0 -0.25831337479E-01 -0.18884598615E-02  0.86344468464E+00  0.86383320661E+00  0.51100000000E-03 0.  1.
    9000002    1    1    2    0    0  0.30304598913E+00 -0.40642744487E-01  0.63797889520E-01  0.98863687718E+00  0.93800000000E+00 0.  1.
         22    1    1    2    0    0 -0.27721465165E+00  0.42531204348E-01  0.30727573932E+01  0.30855299162E+01  0.00000000000E+00 0.  1.
</event>
<event>
 5    1  0.6440325E+001  0.1534848E+01  0.7818608E-02  0.3427262E+00
         11   -1    0    0    0    0  0.00000000000E+00  0.00000000000E+00  0.39999999674E+01  0.40000000000E+01  0.51100000000E-03 0.  1.
    9000002   -1    0    0    0    0 -0.00000000000E+00 -0.00000000000E+00  0.00000000000E+00  0.93800000000E+00  0.93800000000E+00 0. -1.
         11    1    1    2    0    0  0.86299871299E-01 -0.29642157939E+00  0.12348493052E+01  0.12728576072E+01  0.51100000000E-03 0.  1.
    9000002    1    1    2    0    0  0.17016565448E+00  0.15091857580E+00  0.85107714545E-01  0.96892728807E+00  0.93800000000E+00 0. -1.
         22    1    1    2    0    0 -0.25646552578E+00  0.14550300359E+00  0.26800429476E+01  0.26962151047E+01  0.00000000000E+00 0.  1.
</event>
<event>
 5    1  0.6440325E+001  0.1599676E+01  0.7818608E-02  0.3353715E+00
         11   -1    0    0    0    0  0.00000000000E+00  0.00000000000E+00  0.39999999674E+01  0.40000000000E+01  0.51100000000E-03 0. -1.
    9000002   -1    0    0    0    0 -0.00000000000E+00 -0.00000000000E+00  0.00000000000E+00  0.93800000000E+00  0.93800000000E+00 0. -1.
         11    1    1    2    0    0  0.29709418532E-02  0.28906265027E-01  0.21661204860E+00  0.21855305848E+00  0.51100000000E-03 0.  1.
    9000002    1    1    2    0    0 -0.54444969589E-01 -0.50549810136E+00  0.17720655918E+00  0.10815446130E+01  0.93800000000E+00 0. -1.
         22    1    1    2    0    0  0.51474027736E-01  0.47659183633E+00  0.36061813596E+01  0.36379023286E+01  0.00000000000E+00 0. -1.
</event>
<event>
 5    1  0.6440325E+001  0.1454935E+01  0.7818608E-02  0.3527614E+00
         11   -1    0    0    0    0  0.00000000000E+00  0.00000000000E+00  0.39999999674E+01  0.40000000000E+01  0.51100000000E-03 0. -1.
    9000002   -1    0    0    0    0 -0.00000000000E+00 -0.00000000000E+00  0.00000000000E+00  0.93800000000E+00  0.93800000000E+00 0.  1.
         11    1    1    2    0    0 -0.19756099432E+00 -0.35394145844E+00  0.10546913948E+01  0.11299022533E+01  0.51100000000E-03 0. -1.
    9000002    1    1    2    0    0 -0.40224623917E+00  0.28294548233E+00  0.30867834670E+00  0.11031711130E+01  0.93800000000E+00 0.  1.
         22    1    1    2    0    0  0.59980723350E+00  0.70995976118E-01  0.26366302258E+01  0.27049266337E+01  0.00000000000E+00 0. -1.
</event>
<event>
 5    1  0.6557069E+001  0.1599665E+01  0.7818608E-02  0.3353727E+00
         11   -1    0    0    0    0  0.00000000000E+00  0.00000000000E+00  0.39999999674E+01  0.40000000000E+01  0.51100000000E-03 0. -1.
    9000002   -1    0    0    0    0 -0.00000000000E+00 -0.00000000000E+00  0.00000000000E+00  0.93800000000E+00  0.93800000000E+00 0. -1.
         11    1    1    2    0    0  0.10878619098E+00  0.27609087737E-01  0.12012673036E+01  0.12064991061E+01  0.51100000000E-03 0. -1.
    9000002    1    1    2    0    0 -0.34658283753E+00 -0.99486013532E-01  0.87290727515E-01  0.10087025336E+01  0.93800000000E+00 0. -1.
         22    1    1    2    0    0  0.23779664655E+00  0.71876925795E-01  0.27114419362E+01  0.27227983603E+01  0.00000000000E+00 0. -1.
</event>
<event>
 5    1  0.6440325E+001  0.1599621E+01  0.7818608E-02  0.3353775E+00
         11   -1    0    0    0    0  0.00000000000E+00  0.00000000000E+00  0.39999999674E+01  0.40000000000E+01  0.51100000000E-03 0.  1.
    9000002   -1    0    0    0    0 -0.00000000000E+00 -0.00000000000E+00  0.00000000000E+00  0.93800000000E+00  0.93800000000E+00 0.  1.
         11    1    1    2    0    0  0.16134779799E-01 -0.32273797807E-01  0.31455171995E+00  0.31661486824E+00  0.51100000000E-03 0.  1.
    9000002    1    1    2    0    0 -0.15137133917E+00  0.43435027502E+00  0.14396074527E+00  0.10545814999E+01  0.93800000000E+00 0.  1.
         22    1    1    2    0    0  0.13523655937E+00 -0.40207647721E+00  0.35414875021E+01  0.35668036319E+01  0.00000000000E+00 0.  1.
</event>
<event>
 5    1  0.6440325E+001  0.1598242E+01  0.7818608E-02  0.3355273E+00
         11   -1    0    0    0    0  0.00000000000E+00  0.00000000000E+00  0.39999999674E+01  0.40000000000E+01  0.51100000000E-03 0.  1.
    9000002   -1    0    0    0    0 -0.00000000000E+00 -0.00000000000E+00  0.00000000000E+00  0.93800000000E+00  0.93800000000E+00 0.  1.
         11    1    1    2    0    0  0.10825108556E+00  0.13623942062E+00  0.10996266796E+01  0.11133097381E+01  0.51100000000E-03 0.  1.
    9000002    1    1    2    0    0 -0.28952083226E+00 -0.36274938232E+00  0.14786787357E+00  0.10569381887E+01  0.93800000000E+00 0.  1.
         22    1    1    2    0    0  0.18126974670E+00  0.22650996170E+00  0.27525054141E+01  0.27677520732E+01  0.00000000000E+00 0. -1.
</event>
<event>
 5    1  0.6440325E+001  0.1595335E+01  0.7818608E-02  0.3358442E+00
         11   -1    0    0    0    0  0.00000000000E+00  0.00000000000E+00  0.39999999674E+01  0.40000000000E+01  0.51100000000E-03 0. -1.
    9000002   -1    0    0    0    0 -0.00000000000E+00 -0.00000000000E+00  0.00000000000E+00  0.93800000000E+00  0.93800000000E+00 0.  1.
         11    1    1    2    0    0  0.16549566068E-01 -0.58920675345E-02  0.23875011777E+00  0.23939608278E+00  0.51100000000E-03 0. -1.
    9000002    1    1    2    0    0  0.21904395094E+00 -0.28621446251E+00  0.90727222991E-01  0.10089471740E+01  0.93800000000E+00 0.  1.
         22    1    1    2    0    0 -0.23559351700E+00  0.29210653005E+00  0.36705226266E+01  0.36896567432E+01  0.00000000000E+00 0. -1.
</event>
<event>
 5    1  0.6440325E+001  0.1599148E+01  0.7818608E-02  0.3354288E+00
         11   -1    0    0    0    0  0.00000000000E+00  0.00000000000E+00  0.39999999674E+01  0.40000000000E+01  0.51100000000E-03 0. -1.
    9000002   -1    0    0    0    0 -0.00000000000E+00 -0.00000000000E+00  0.00000000000E+00  0.93800000000E+00  0.93800000000E+00 0.  1.
         11    1    1    2    0    0  0.53798666811E-01  0.96636090051E-01  0.66236098065E+00  0.67153195029E+00  0.51100000000E-03 0. -1.
    9000002    1    1    2    0    0 -0.22250322228E+00 -0.47119918633E+00  0.18704438674E+00  0.10892042782E+01  0.93800000000E+00 0.  1.
         22    1    1    2    0    0  0.16870455547E+00  0.37456309628E+00  0.31505946000E+01  0.31772637715E+01  0.00000000000E+00 0. -1.
</event>
<event>
 5    1  0.6440325E+001  0.1463699E+01  0.7818608E-02  0.3516029E+00
         11   -1    0    0    0    0  0.00000000000E+00  0.00000000000E+00  0.39999999674E+01  0.40000000000E+01  0.51100000000E-03 0.  1.
    9000002   -1    0    0    0    0 -0.00000000000E+00 -0.00000000000E+00  0.00000000000E+00  0.93800000000E+00  0.93800000000E+00 0. -1.
         11    1    1    2    0    0 -0.41349707057E+00 -0.62020861863E-01  0.97356272400E+00  0.10595522891E+01  0.51100000000E-03 0.  1.
    9000002    1    1    2    0    0  0.13525855739E+00 -0.10409895385E+00  0.12800545584E+00  0.96195679023E+00  0.93800000000E+00 0. -1.
         22    1    1    2    0    0  0.27823851318E+00  0.16611981572E+00  0.28984317875E+01  0.29164909207E+01  0.00000000000E+00 0.  1.
</event>
<event>
 5    1  0.6440325E+001  0.1598813E+01  0.7818608E-02  0.3354653E+00
         11   -1    0    0    0    0  0.00000000000E+00  0.00000000000E+00  0.39999999674E+01  0.40000000000E+01  0.51100000000E-03 0. -1.
    9000002   -1    0    0    0    0 -0.00000000000E+00 -0.00000000000E+00  0.00000000000E+00  0.93800000000E+00  0.93800000000E+00 0.  1.
         11    1    1    2    0    0  0.83847761259E-01  0.13332649113E+00  0.92552956112E+00  0.93883525175E+00  0.51100000000E-03 0. -1.
    9000002    1    1    2    0    0 -0.30881166243E+00 -0.42774455907E+00  0.19224607019E+00  0.10932212046E+01  0.93800000000E+00 0.  1.
         22    1    1    2    0    0  0.22496390117E+00  0.29441806794E+00  0.28822243361E+01  0.29059435437E+01  0.00000000000E+00 0.  1.
</event>
<event>
 5    1  0.6440325E+001  0.1599677E+01  0.7818608E-02  0.3353714E+00
         11   -1    0    0    0    0  0.00000000000E+00  0.00000000000E+00  0.39999999674E+01  0.40000000000E+01  0.51100000000E-03 0. -1.
    9000002   -1    0    0    0    0 -0.00000000000E+00 -0.00000000000E+00  0.00000000000E+00  0.93800000000E+00  0.93800000000E+00 0. -1.
         11    1    1    2    0    0  0.15618141505E+00 -0.51656668916E-02  0.13658805126E+01  0.13747905857E+01  0.51100000000E-03 0. -1.
    9000002    1    1    2    0    0 -0.44145331376E+00  0.16385793282E-01  0.13238352466E+00  0.10452362987E+01  0.93800000000E+00 0. -1.
         22    1    1    2    0    0  0.28527189870E+00 -0.11220126390E-01  0.25017359301E+01  0.25179731157E+01  0.00000000000E+00 0. -1.
</event>
<event>
 5    1  0.6440325E+001  0.1599667E+01  0.7818608E-02  0.3353725E+00
         11   -1    0    0    0    0  0.00000000000E+00  0.00000000000E+00  0.39999999674E+01  0.40000000000E+01  0.51100000000E-03 0.  1.
    9000002   -1    0    0    0    0 -0.00000000000E+00 -0.00000000000E+00  0.00000000000E+00  0.93800000000E+00  0.93800000000E+00 0.  1.
         11    1    1    2    0    0  0.12923793735E+00 -0.42091848177E-01  0.83380255075E+00  0.84480833500E+00  0.51100000000E-03 0.  1.
    9000002    1    1    2    0    0 -0.59252011198E+00  0.18612964514E+00  0.27037477052E+00  0.11570094401E+01  0.93800000000E+00 0.  1.
         22    1    1    2    0    0  0.46328217463E+00 -0.14403779696E+00  0.28958226461E+01  0.29361822249E+01  0.00000000000E+00 0.  1.
</event>
<event>
 5    1  0.6440325E+001  0.1599404E+01  0.7818608E-02  0.3354010E+00
         11   -1    0    0    0    0  0.00000000000E+00  0.00000000000E+00  0.39999999674E+01  0.40000000000E+01  0.51100000000E-03 0.  1.
    9000002   -1    0    0    0    0 -0.00000000000E+00 -0.00000000000E+00  0.00000000000E+00  0.93800000000E+00  0.93800000000E+00 0. -1.
         11    1    1    2    0    0 -0.34998445525E-01 -0.90191777971E-02  0.39996300379E+00  0.40159295596E+00  0.51100000000E-03 0.  1.
    9000002    1    1    2    0    0  0.45012491333E+00  0.53082585217E-01  0.13982828626E+00  0.10511071059E+01  0.93800000000E+00 0. -1.
         22    1    1    2    0    0 -0.41512646781E+00 -0.44063407419E-01  0.34602086773E+01  0.34852999381E+01  0.00000000000E+00 0.  1.
</event>
<event>
 5    1  0.6440325E+001  0.1595118E+01  0.7818608E-02  0.3358679E+00
         11   -1    0    0    0    0  0.00000000000E+00  0.00000000000E+00  0.39999999674E+01  0.40000000000E+01  0.51100000000E-03 0.  1.
    9000002   -1    0    0    0    0 -0.00000000000E+00 -0.00000000000E+00  0.00000000000E+00  0.93800000000E+00  0.93800000000E+00 0.  1.
         11    1    1    2    0    0  0.13882929274E-01 -0.94351733786E-03  0.43687773525E-01  0.45853120142E-01  0.51100000000E-03 0.  1.
    9000002    1    1    2    0    0  0.21737902870E+00  0.61127614759E+00  0.30173514600E+00  0.11797458494E+01  0.93800000000E+00 0.  1.
         22    1    1    2    0    0 -0.23126195797E+00 -0.61033263026E+00  0.36545770478E+01  0.37124010305E+01  0.00000000000E+00 0.  1.
</event>
<event>
 5    1  0.6440325E+001  0.1599662E+01  0.7818608E-02  0.3353731E+00
         11   -1    0    0    0    0  0.00000000000E+00  0.00000000000E+00  0.39999999674E+01  0.40000000000E+01  0.51100000000E-03 0. -1.
    9000002   -1    0    0    0    0 -0.00000000000E+00 -0.00000000000E+00  0.00000000000E+00  0.93800000000E+00  0.93800000000E+00 0.  1.
         11    1    1    2    0    0 -0.13418332507E+00  0.13601115855E+00  0.14395797643E+01  0.14522032774E+01  0.51100000000E-03 0. -1.
    9000002    1    1    2    0    0  0.35361888183E+00 -0.35015742527E+00  0.16948196052E+00  0.10752788806E+01  0.93800000000E+00 0.  1.
         22    1    1    2    0    0 -0.21943555675E+00  0.21414626673E+00  0.23909382425E+01  0.24105178420E+01  0.00000000000E+00 0. -1.
</event>
<event>
 5    1  0.6440325E+001  0.1596367E+01  0.7818608E-02  0.3357316E+00
         11   -1    0    0    0    0  0.00000000000E+00  0.00000000000E+00  0.39999999674E+01  0.40000000000E+01  0.51100000000E-03 0.  1.
    9000002   -1    0    0    0    0 -0.00000000000E+00 -0.00000000000E+00  0.00000000000E+00  0.93800000000E+00  0.93800000000E+00 0. -1.
         11    1    1    2    0    0 -0.32882050976E-02  0.89938313399E-02  0.20620103449E+00  0.20642390617E+00  0.51100000000E-03 0.  1.
    9000002    1    1    2    0    0 -0.47068973252E+00 -0.38504634840E+00  0.26179460915E+00  0.11481245281E+01  0.93800000000E+00 0. -1.
         22    1    1    2    0    0  0.47397793761E+00  0.37605251706E+00  0.35320043237E+01  0.35834515657E+01  0.00000000000E+00 0.  1.
</event>
<event>
 5    1  0.6440325E+001  0.1599668E+01  0.7818608E-02  0.3353723E+00
         11   -1    0    0    0    0  0.00000000000E+00  0.00000000000E+00  0.39999999674E+01  0.40000000000E+01  0.51100000000E-03 0. -1.
    9000002   -1    0    0    0    0 -0.00000000000E+00 -0.00000000000E+00  0.00000000000E+00  0.93800000000E+00  0.93800000000E+00 0. -1.
         11    1    1    2    0    0  0.36020400906E-01 -0.35281731322E-01  0.30401649407E+00  0.30816969292E+00  0.51100000000E-03 0. -1.
    9000002    1    1    2    0    0 -0.42707269338E+00  0.45046207078E+00  0.27006009140E+00  0.11567556421E+01  0.93800000000E+00 0. -1.
         22    1    1    2    0    0  0.39105229247E+00 -0.41518033946E+00  0.34259233819E+01  0.34730746649E+01  0.00000000000E+00 0. -1.
</event>
<event>
 5    1  0.6440325E+001  0.1592427E+01  0.7818608E-02  0.3361625E+00
         11   -1    0    0    0    0  0.00000000000E+00  0.00000000000E+00  0.39999999674E+01  0.40000000000E+01  0.51100000000E-03 0.  1.
    9000002   -1    0    0    0    0 -0.00000000000E+00 -0.00000000000E+00  0.00000000000E+00  0.93800000000E+00  0.93800000000E+00 0. -1.
         11    1    1    2    0    0 -0.83803697611E-01  0.22174224662E+00  0.13017081665E+01  0.13231164331E+01  0.51100000000E-03 0.  1.
    9000002    1    1    2    0    0  0.31550922452E+00 -0.37403358423E+00  0.17012401111E+00  0.10715565184E+01  0.93800000000E+00 0. -1.
         22    1    1    2    0    0 -0.23170552691E+00  0.15229133762E+00  0.25281677898E+01  0.25433270486E+01  0.00000000000E+00 0.  1.
</event>
<event>
 5    1  0.6440325E+001  0.1581194E+01  0.7818608E-02  0.3374031E+00
         11   -1    0    0    0    0  0.00000000000E+00  0.00000000000E+00  0.39999999674E+01  0.40000000000E+01  0.51100000000E-03 0.  1.
    9000002   -1    0    0    0    0 -0.00000000000E+00 -0.00000000000E+00  0.00000000000E+00  0.93800000000E+00  0.93800000000E+00 0.  1.
         11    1    1    2    0    0 -0.26731248460E-01  0.98502857143E-01  0.14763005559E+01  0.14798246400E+01  0.51100000000E-03 0.  1.
    9000002    1    1    2    0    0 -0.33748990348E+00 -0.16417335726E+00  0.10999827201E+00  0.10162656867E+01  0.93800000000E+00 0.  1.
         22    1    1    2    0    0  0.36422115194E+00  0.65670500119E-01  0.24137011394E+01  0.24419096733E+01  0.00000000000E+00 0.  1.
</event>
<event>
 5    1  0.6440325E+001  0.1599505E+01  0.7818608E-02  0.3353901E+00
         11   -1    0    0    0    0  0.00000000000E+00  0.00000000000E+00  0.39999999674E+01  0.40000000000E+01  0.51100000000E-03 0. -1.
    9000002   -1    0    0    0    0 -0.00000000000E+00 -0.00000000000E+00  0.00000000000E+00  0.93800000000E+00  0.93800000000E+00 0.  1.
         11    1    1    2    0    0 -0.15468479998E+00 -0.23318418521E-02  0.13453741407E+01  0.13542395151E+01  0.51100000000E-03 0. -1.
    9000002    1    1    2    0    0  0.40360774177E+00  0.71335348927E-02  0.11010858282E+00  0.10270920098E+01  0.93800000000E+00 0.  1.
         22    1    1    2    0    0 -0.24892294180E+00 -0.48016930406E-02  0.25445172439E+01  0.25566684751E+01  0.00000000000E+00 0.  1.
</event>
<event>
 5    1  0.6440325E+001  0.1594010E+01  0.7818608E-02  0.3359890E+00
         11   -1    0    0    0    0  0.00000000000E+00  0.00000000000E+00  0.39999999674E+01  0.40000000000E+01  0.51100000000E-03 0. -1.
    9000002   -1    0    0    0    0 -0.00000000000E+00 -0.00000000000E+00  0.00000000000E+00  0.93800000000E+00  0.93800000000E+00 0. -1.
         11    1    1    2    0    0 -0.11041072283E+00  0.16850188448E+00  0.13975885895E+01  0.14120331226E+01  0.51100000000E-03 0. -1.
    9000002    1    1    2    0    0  0.37174769022E+00 -0.23433710702E+00  0.13582620648E+00  0.10447023420E+01  0.93800000000E+00 0. -1.
         22    1    1    2    0    0 -0.26133696739E+00  0.65835222544E-01  0.24665851714E+01  0.24812645354E+01  0.00000000000E+00 0.  1.
</event>
<event>
 5    1  0.6440325E+001  0.1599677E+01  0.7818608E-02  0.3353715E+00
         11   -1    0    0    0    0  0.00000000000E+00  0.00000000000E+00  0.39999999674E+01  0.40000000000E+01  0.51100000000E-03 0. -1.
    9000002   -1    0    0    0    0 -0.00000000000E+00 -0.00000000000E+00  0.00000000000E+00  0.93800000000E+00  0.93800000000E+00 0.  1.
         11    1    1    2    0    0  0.52164340184E-01  0.17557943461E+00  0.12419438322E+01  0.12553780306E+01  0.51100000000E-03 0. -1.
    9000002    1    1    2    0    0 -0.15753035897E+00 -0.53671568337E+00  0.21649517386E+00  0.11133704231E+01  0.93800000000E+00 0.  1.
         22    1    1    2    0    0  0.10536601878E+00  0.36113624876E+00  0.25415609613E+01  0.25692515463E+01  0.00000000000E+00 0. -1.
</event>
<event>
 5    1  0.6440325E+001  0.1469383E+01  0.7818608E-02  0.3508596E+00
         11   -1    0    0    0    0  0.00000000000E+00  0.00000000000E+00  0.39999999674E+01  0.40000000000E+01  0.51100000000E-03 0.  1.
    9000002   -1    0    0    0    0 -0.00000000000E+00 -0.00000000000E+00  0.00000000000E+00  0.93800000000E+00  0.93800000000E+00 0.  1.
         11    1    1    2    0    0 -0.23794158955E+00 -0.30912486999E+00  0.12203443149E+01  0.12811771514E+01  0.51100000000E-03 0.  1.
    9000002    1    1    2    0    0  0.12679236686E-01 -0.64796602625E-01  0.10430062653E+00  0.94608772503E+00  0.93800000000E+00 0.  1.
         22    1    1    2    0    0  0.22526235287E+00  0.37392147262E+00  0.26753550259E+01  0.27107351236E+01  0.00000000000E+00 0.  1.
</event>
<event>
 5    1  0.6440325E+001  0.1511543E+01  0.7818608E-02  0.3455348E+00
         11   -1    0    0    0    0  0.00000000000E+00  0.00000000000E+00  0.39999999674E+01  0.40000000000E+01  0.51100000000E-03 0. -1.
    9000002   -1    0    0    0    0 -0.00000000000E+00 -0.00000000000E+00  0.00000000000E+00  0.93800000000E+00  0.93800000000E+00 0. -1.
         11    1    1    2    0    0  0.15174034200E+00 -0.17525364106E+00  0.67009128576E+00  0.70905681187E+00  0.51100000000E-03 0. -1.
    9000002    1    1    2    0    0 -0.13798423853E+00 -0.37582892804E+00  0.18552671140E+00  0.10366056115E+01  0.93800000000E+00 0. -1.
         22    1    1    2    0    0 -0.13756103473E-01  0.55108256910E+00  0.31443819702E+01  0.31923375766E+01  0.00000000000E+00 0. -1.
</event>
<event>
 5    1  0.6440325E+001  0.1599676E+01  0.7818608E-02  0.3353715E+00
         11   -1    0    0    0    0  0.00000000000E+00  0.00000000000E+00  0.39999999674E+01  0.40000000000E+01  0.51100000000E-03 0. -1.
    9000002   -1    0    0    0    0 -0.00000000000E+00 -0.00000000000E+00  0.00000000000E+00  0.93800000000E+00  0.93800000000E+00 0. -1.
         11    1    1    2    0    0 -0.46313074432E-01 -0.10016239517E+00  0.10146960075E+01  0.10206790166E+01  0.51100000000E-03 0. -1.
    9000002    1    1    2    0    0  0.18027112562E+00  0.38318441743E+00  0.12133838419E+00  0.10362890427E+01  0.93800000000E+00 0. -1.
         22    1    1    2    0    0 -0.13395805119E+00 -0.28302202226E+00  0.28639655757E+01  0.28810319407E+01  0.00000000000E+00 0. -1.
</event>
<event>
 5    1  0.6440325E+001  0.1529391E+01  0.7818608E-02  0.3433755E+00
         11   -1    0    0    0    0  0.00000000000E+00  0.00000000000E+00  0.39999999674E+01  0.40000000000E+01  0.51100000000E-03 0.  1.
    9000002   -1    0    0    0    0 -0.00000000000E+00 -0.00000000000E+00  0.00000000000E+00  0.93800000000E+00  0.93800000000E+00 0.  1.
         11    1    1    2    0    0 -0.29076886212E+00  0.46447677131E-01  0.14624787099E+01  0.14918271200E+01  0.51100000000E-03 0.  1.
    9000002    1    1    2    0    0  0.48628876169E-01  0.26426396347E+00  0.10431682804E+00  0.98128803651E+00  0.93800000000E+00 0.  1.
         22    1    1    2    0    0  0.24213998595E+00 -0.31071164060E+00  0.24332044294E+01  0.24648848435E+01  0.00000000000E+00 0.  1.
</event>
<event>
 5    1  0.6440325E+001  0.1598747E+01  0.7818608E-02  0.3354724E+00
         11   -1    0    0    0    0  0.00000000000E+00  0.00000000000E+00  0.39999999674E+01  0.40000000000E+01  0.51100000000E-03 0.  1.
    9000002   -1    0    0    0    0 -0.00000000000E+00 -0.00000000000E+00  0.00000000000E+00  0.93800000000E+00  0.93800000000E+00 0.  1.
         11    1    1    2    0    0  0.13340008712E-01  0.56820178521E-01  0.62678158513E+00  0.62949337177E+00  0.51100000000E-03 0.  1.
    9000002    1    1    2    0    0 -0.23798219170E+00 -0.28936173531E+00  0.95144014135E-01  0.10145255644E+01  0.93800000000E+00 0.  1.
         22    1    1    2    0    0  0.22464218299E+00  0.23254155679E+00  0.32780743681E+01  0.32939810638E+01  0.00000000000E+00 0.  1.
</event>
<event>
 5    1  0.6440325E+001  0.1594032E+01  0.7818608E-02  0.3359866E+00
         11   -1    0    0    0    0  0.00000000000E+00  0.00000000000E+00  0.39999999674E+01  0.40000000000E+01  0.51100000000E-03 0. -1.
    9000002   -1    0    0    0    0 -0.00000000000E+00 -0.00000000000E+00  0.00000000000E+00  0.93800000000E+00  0.93800000000E+00 0. -1.
         11    1    1    2    0    0  0.42200267195E-02 -0.23809832934E-01  0.61290520776E-01  0.65890104172E-01  0.51100000000E-03 0. -1.
    9000002    1    1    2    0    0  0.36321261910E+00  0.20001589886E+00  0.12095393100E+00  0.10326682042E+01  0.93800000000E+00 0. -1.
         22    1    1    2    0    0 -0.36743264582E+00 -0.17620606592E+00  0.38177555156E+01  0.38394416917E+01  0.00000000000E+00 0. -1.
</event>
<event>
 5    1  0.6440325E+001  0.1599454E+01  0.7818608E-02  0.3353956E+00
         11   -1    0    0    0    0  0.00000000000E+00  0.00000000000E+00  0.39999999674E+01  0.40000000000E+01  0.51100000000E-03 0. -1.
    9000002   -1    0    0    0    0 -0.00000000000E+00 -0.00000000000E+00  0.00000000000E+00  0.93800000000E+00  0.93800000000E+00 0. -1.
         11    1    1    2    0    0  0.99799349025E-01  0.83956758658E-01  0.11497878647E+01  0.11571607678E+01  0.51100000000E-03 0. -1.
    9000002    1    1    2    0    0 -0.29052695762E+00 -0.31394505733E+00  0.12406273634E+00  0.10383655304E+01  0.93800000000E+00 0. -1.
         22    1    1    2    0    0  0.19072760860E+00  0.22998829868E+00  0.27261493663E+01  0.27424737019E+01  0.00000000000E+00 0. -1.
</event>
<event>
 5    1  0.6440325E+001  0.1593504E+01  0.7818608E-02  0.3360444E+00
         11   -1    0    0    0    0  0.00000000000E+00  0.00000000000E+00  0.39999999674E+01  0.40000000000E+01  0.51100000000E-03 0.  1.
    9000002   -1    0    0    0    0 -0.00000000000E+00 -0.00000000000E+00  0.00000000000E+00  0.93800000000E+00  0.93800000000E+00 0. -1.
         11    1    1    2    0    0  0.11415602948E+00 -0.66316341531E-01  0.92389970068E+00  0.93328472304E+00  0.51100000000E-03 0.  1.
    9000002    1    1    2    0    0 -0.15990835083E+00  0.39063884296E+00  0.12576823050E+00  0.10362581889E+01  0.93800000000E+00 0. -1.
         22    1    1    2    0    0  0.45752321355E-01 -0.32432250143E+00  0.29503320362E+01  0.29684570880E+01  0.00000000000E+00 0.  1.
</event>
<event>
 5    1  0.6440325E+001  0.1530933E+01  0.7818608E-02  0.3431916E+00
         11   -1    0    0    0    0  0.00000000000E+00  0.00000000000E+00  0.39999999674E+01  0.40000000000E+01  0.51100000000E-03 0.  1.
    9000002   -1    0    0    0    0 -0.00000000000E+00 -0.00000000000E+00  0.00000000000E+00  0.93800000000E+00  0.93800000000E+00 0.  1.
         11    1    1    2    0    0 -0.66807799251E-01 -0.16520087058E-01  0.29383240885E-01  0.74832020439E-01  0.51100000000E-03 0.  1.
    9000002    1    1    2    0    0 -0.28908508317E+00  0.86614104974E-01  0.11672112315E+00  0.99223989493E+00  0.93800000000E+00 0.  1.
         22    1    1    2    0    0  0.35589288242E+00 -0.70094017916E-01  0.38538956033E+01  0.38709280846E+01  0.00000000000E+00 0.  1.
</event>
<event>
 5    1  0.6440325E+001  0.1548298E+01  0.7818608E-02  0.3411464E+00
         11   -1    0    0    0    0  0.00000000000E+00  0.00000000000E+00  0.39999999674E+01  0.40000000000E+01  0.51100000000E-03 0. -1.
    9000002   -1    0    0    0    0 -0.00000000000E+00 -0.00000000000E+00  0.00000000000E+00  0.93800000000E+00  0.93800000000E+00 0.  1.
         11    1    1    2    0    0 -0.64261986300E-01 -0.93270725722E-01  0.21726606381E+00  0.24501802947E+00  0.51100000000E-03 0. -1.
    9000002    1    1    2    0    0 -0.38512706537E-01 -0.28017521404E+00  0.94264383404E-01  0.98423124981E+00  0.93800000000E+00 0.  1.
         22    1    1    2    0    0  0.10277469284E+00  0.37344593976E+00  0.36884695201E+01  0.37087507207E+01  0.00000000000E+00 0. -1.
</event>
<event>
 5    1  0.6440325E+001  0.1598653E+01  0.7818608E-02  0.3354827E+00
         11   -1    0    0    0    0  0.00000000000E+00  0.00000000000E+00  0.39999999674E+01  0.40000000000E+01  0.51100000000E-03 0.  1.
    9000002   -1    0    0    0    0 -0.00000000000E+00 -0.00000000000E+00  0.00000000000E+00  0.93800000000E+00  0.93800000000E+00 0. -1.
         11    1    1    2    0    0 -0.13865544521E-02  0.40841390789E-02  0.54328274627E-01  0.54501607960E-01  0.51100000000E-03 0.  1.
    9000002    1    1    2    0    0 -0.40815324699E+00  0.10729316463E+00  0.12134965695E+00  0.10356981392E+01  0.93800000000E+00 0. -1.
         22    1    1    2    0    0  0.40953980144E+00 -0.11137730371E+00  0.38243220358E+01  0.38478002529E+01  0.00000000000E+00 0.  1.
</event>
<event>
 5    1  0.6440325E+001  0.1472525E+01  0.7818608E-02  0.3504514E+00
         11   -1    0    0    0    0  0.00000000000E+00  0.00000000000E+00  0.39999999674E+01  0.40000000000E+01  0.51100000000E-03 0.  1.
    9000002   -1    0    0    0    0 -0.00000000000E+00 -0.00000000000E+00  0.00000000000E+00  0.93800000000E+00  0.93800000000E+00 0.  1.
         11    1    1    2    0    0 -0.81826512662E-01  0.41901281773E+00  0.12149179033E+01  0.12877472937E+01  0.51100000000E-03 0.  1.
    9000002    1    1    2    0    0 -0.79721217467E-01 -0.10715026366E+00  0.11184132569E+00  0.95403832924E+00  0.93800000000E+00 0.  1.
         22    1    1    2    0    0  0.16154773013E+00 -0.31186255407E+00  0.26732407384E+01  0.26962143770E+01  0.00000000000E+00 0.  1.
</event>
<event>
 5    1  0.6440325E+001  0.1599676E+01  0.7818608E-02  0.3353715E+00
         11   -1    0    0    0    0  0.00000000000E+00  0.00000000000E+00  0.39999999674E+01  0.40000000000E+01  0.51100000000E-03 0. -1.
    9000002   -1    0    0    0    0 -0.00000000000E+00 -0.00000000000E+00  0.00000000000E+00  0.93800000000E+00  0.93800000000E+00 0.  1.
         11    1    1    2    0    0 -0.93118958703E-01 -0.15070862520E+00  0.14727373991E+01  0.14833542861E+01  0.51100000000E-03 0. -1.
    9000002    1    1    2    0    0  0.24249095764E+00  0.39143732971E+00  0.14423059993E+00  0.10548324576E+01  0.93800000000E+00 0.  1.
         22    1    1    2    0    0 -0.14937199894E+00 -0.24072870450E+00  0.23830319683E+01  0.23998132563E+01  0.00000000000E+00 0.  1.
</event>
<event>
 5    1  0.6440325E+001  0.1598762E+01  0.7818608E-02  0.3354708E+00
         11   -1    0    0    0    0  0.00000000000E+00  0.00000000000E+00  0.39999999674E+01  0.40000000000E+01  0.51100000000E-03 0.  1.
    9000002   -1    0    0    0    0 -0.00000000000E+00 -0.00000000000E+00  0.00000000000E+00  0.93800000000E+00  0.93800000000E+00 0. -1.
         11    1    1    2    0    0 -0.83737597701E-01 -0.52636006877E-01  0.68302935002E+00  0.69015352538E+00  0.51100000000E-03 0.  1.
    9000002    1    1    2    0    0  0.34134063255E+00  0.38521829118E+00  0.18263501272E+00  0.10854059642E+01  0.93800000000E+00 0. -1.
         22    1    1    2    0    0 -0.25760303485E+00 -0.33258228431E+00  0.31343356046E+01  0.31624405104E+01  0.00000000000E+00 0.  1.
</event>
<event>
 5    1  0.6440325E+001  0.1535387E+01  0.7818608E-02  0.3426623E+00
         11   -1    0    0    0    0  0.00000000000E+00  0.00000000000E+00  0.39999999674E+01  0.40000000000E+01  0.51100000000E-03 0.  1.
    9000002   -1    0    0    0    0 -0.00000000000E+00 -0.00000000000E+00  0.00000000000E+00  0.93800000000E+00  0.93800000000E+00 0. -1.
         11    1    1    2    0    0 -0.10892414151E-01  0.12704201799E+00  0.20999196071E+00  0.24567296088E+00  0.51100000000E-03 0.  1.
    9000002    1    1    2    0    0 -0.26861861529E+00  0.23387190899E+00  0.13903898358E+00  0.10129303378E+01  0.93800000000E+00 0. -1.
         22    1    1    2    0    0  0.27951102944E+00 -0.36091392698E+00  0.36509690231E+01  0.36793967013E+01  0.00000000000E+00 0.  1.
</event>
<event>
 5    1  0.6440325E+001  0.1599583E+01  0.7818608E-02  0.3353816E+00
         11   -1    0    0    0    0  0.00000000000E+00  0.00000000000E+00  0.39999999674E+01  0.40000000000E+01  0.51100000000E-03 0. -1.
    9000002   -1    0    0    0    0 -0.00000000000E+00 -0.00000000000E+00  0.00000000000E+00  0.93800000000E+00  0.93800000000E+00 0. -1.
         11    1    1    2    0    0  0.47658622818E-01 -0.41451362127E-01  0.56143530509E+00  0.56497736475E+00  0.51100000000E-03 0. -1.
    9000002    1    1    2    0    0 -0.34288473631E+00  0.23166722975E+00  0.11579234411E+00  0.10317419807E+01  0.93800000000E+00 0. -1.
         22    1    1    2    0    0  0.29522611349E+00 -0.19021586762E+00  0.33227723182E+01  0.33412806546E+01  0.00000000000E+00 0. -1.
</event>
<event>
 5    1  0.6440325E+001  0.1567346E+01  0.7818608E-02  0.3389586E+00
         11   -1    0    0    0    0  0.00000000000E+00  0.00000000000E+00  0.39999999674E+01  0.40000000000E+01  0.51100000000E-03 0.  1.
    9000002   -1    0    0    0    0 -0.00000000000E+00 -0.00000000000E+00  0.00000000000E+00  0.93800000000E+00  0.93800000000E+00 0. -1.
         11    1    1    2    0    0  0.13659608358E+00 -0.30627066851E-01  0.66900103309E+00  0.68349041740E+00  0.51100000000E-03 0.  1.
    9000002    1    1    2    0    0  0.44599544671E-01 -0.26535559011E+00  0.73520450487E-01  0.97859693706E+00  0.93800000000E+00 0. -1.
         22    1    1    2    0    0 -0.18119562825E+00  0.29598265697E+00  0.32574784838E+01  0.32759126455E+01  0.00000000000E+00 0.  1.
</event>
<event>
 5    1  0.6440325E+001  0.1599670E+01  0.7818608E-02  0.3353722E+00
         11   -1    0    0    0    0  0.00000000000E+00  0.00000000000E+00  0.39999999674E+01  0.40000000000E+01  0.51100000000E-03 0. -1.
    9000002   -1    0    0    0    0 -0.00000000000E+00 -0.00000000000E+00  0.00000000000E+00  0.93800000000E+00  0.93800000000E+00 0.  1.
         11    1    1    2    0    0 -0.50378052179E-02  0.57830894217E-02  0.80030322733E-01  0.80398614929E-01  0.51100000000E-03 0.  1.
    9000002    1    1    2    0    0  0.23268140724E+00 -0.31651493277E+00  0.10400470496E+00  0.10222442558E+01  0.93800000000E+00 0.  1.
         22    1    1    2    0    0 -0.22764360202E+00  0.31073184334E+00  0.38159649397E+01  0.38353571292E+01  0.00000000000E+00 0. -1.
</event>
<event>
 5    1  0.6440325E+001  0.1474411E+01  0.7818608E-02  0.3502072E+00
         11   -1    0    0    0    0  0.00000000000E+00  0.00000000000E+00  0.39999999674E+01  0.40000000000E+01  0.51100000000E-03 0. -1.
    9000002   -1    0    0    0    0 -0.00000000000E+00 -0.00000000000E+00  0.00000000000E+00  0.93800000000E+00  0.93800000000E+00 0. -1.
         11    1    1    2    0    0  0.38256581304E+00  0.30762105052E+00  0.14105164848E+01  0.14935006954E+01  0.51100000000E-03 0. -1.
    9000002    1    1    2    0    0 -0.18892505848E+00 -0.10821390396E+00  0.13269431763E+00  0.97203637209E+00  0.93800000000E+00 0. -1.
         22    1    1    2    0    0 -0.19364075456E+00 -0.19940714656E+00  0.24567891649E+01  0.24724629325E+01  0.00000000000E+00 0. -1.
</event>
<event>
 5    1  0.6440325E+001  0.1591468E+01  0.7818608E-02  0.3362676E+00
         11   -1    0    0    0    0  0.00000000000E+00  0.00000000000E+00  0.39999999674E+01  0.40000000000E+01  0.51100000000E-03 0.  1.
    9000002   -1    0    0    0    0 -0.00000000000E+00 -0.00000000000E+00  0.00000000000E+00  0.93800000000E+00  0.93800000000E+00 0.  1.
         11    1    1    2    0    0  0.99673160834E-01 -0.54141123146E-01  0.48869881627E+00  0.50168993846E+00  0.51100000000E-03 0.  1.
    9000002    1    1    2    0    0 -0.23127497779E+00  0.61075729796E+00  0.30991456858E+00  0.11842312410E+01  0.93800000000E+00 0.  1.
         22    1    1    2    0    0  0.13160181696E+00 -0.55661617481E+00  0.32013865825E+01  0.32520788205E+01  0.00000000000E+00 0.  1.
</event>
<event>
 5    1  0.6440325E+001  0.1526541E+01  0.7818608E-02  0.3437168E+00
         11   -1    0    0    0    0  0.00000000000E+00  0.00000000000E+00  0.39999999674E+01  0.40000000000E+01  0.51100000000E-03 0. -1.
    9000002   -1    0    0    0    0 -0.00000000000E+00 -0.00000000000E+00  0.00000000000E+00  0.93800000000E+00  0.93800000000E+00 0. -1.
         11    1    1    2    0    0  0.27434208534E+00  0.24733774077E+00  0.95061985196E+00  0.10198617072E+01  0.51100000000E-03 0. -1.
    9000002    1    1    2    0    0 -0.48576864862E+00 -0.17216268738E-01  0.22963682714E+00  0.10811311911E+01  0.93800000000E+00 0. -1.
         22    1    1    2    0    0  0.21142656327E+00 -0.23012147204E+00  0.28197432883E+01  0.28370071017E+01  0.00000000000E+00 0. -1.
</event>
<event>
 5    1  0.6440325E+001  0.1590948E+01  0.7818608E-02  0.3363247E+00
         11   -1    0    0    0    0  0.00000000000E+00  0.00000000000E+00  0.39999999674E+01  0.40000000000E+01  0.51100000000E-03 0. -1.
    9000002   -1    0    0    0    0 -0.00000000000E+00 -0.00000000000E+00  0.00000000000E+00  0.93800000000E+00  0.93800000000E+00 0. -1.
         11    1    1    2    0    0  0.13380995457E-01  0.28446621425E-01  0.79979977659E+00  0.80041751921E+00  0.51100000000E-03 0. -1.
    9000002    1    1    2    0    0 -0.19066271076E+00  0.28679454503E+00  0.86513944170E-01  0.10029616358E+01  0.93800000000E+00 0. -1.
         22    1    1    2    0    0  0.17728171530E+00 -0.31524116646E+00  0.31136862466E+01  0.31346208450E+01  0.00000000000E+00 0. -1.
</event>
<event>
 5    1  0.6440325E+001  0.1599664E+01  0.7818608E-02  0.3353728E+00
         11   -1    0    0    0    0  0.00000000000E+00  0.00000000000E+00  0.39999999674E+01  0.40000000000E+01  0.51100000000E-03 0. -1.
    9000002   -1    0    0    0    0 -0.00000000000E+00 -0.00000000000E+00  0.00000000000E+00  0.93800000000E+00  0.93800000000E+00 0.  1.
         11    1    1    2    0    0 -0.19869727053E+00 -0.35064028759E-01  0.11372102559E+01  0.11549707870E+01  0.51100000000E-03 0. -1.
    9000002    1    1    2    0    0  0.64331608145E+00  0.10167157687E+00  0.29943792360E+00  0.11805506174E+01  0.93800000000E+00 0.  1.
         22    1    1    2    0    0 -0.44461881091E+00 -0.66607548110E-01  0.25633517878E+01  0.26024785956E+01  0.00000000000E+00 0. -1.
</event>
<event>
 5    1  0.6440325E+001  0.1599668E+01  0.7818608E-02  0.3353724E+00
         11   -1    0    0    0    0  0.00000000000E+00  0.00000000000E+00  0.39999999674E+01  0.40000000000E+01  0.51100000000E-03 0. -1.
    9000002   -1    0    0    0    0 -0.00000000000E+00 -0.00000000000E+00  0.00000000000E+00  0.93800000000E+00  0.93800000000E+00 0.  1.
         11    1    1    2    0    0  0.56460638752E-01  0.78390400977E-02  0.43513372211E+00  0.43885176485E+00  0.51100000000E-03 0. -1.
    9000002    1    1    2    0    0 -0.51261233448E+00 -0.78058390754E-01  0.18464772325E+00  0.10875676069E+01  0.93800000000E+00 0.  1.
         22    1    1    2    0    0  0.45615169572E+00  0.70219350656E-01  0.33802185220E+01  0.34115806283E+01  0.00000000000E+00 0. -1.
</event>
<event>
 5    1  0.6440325E+001  0.1587742E+01  0.7818608E-02  0.3366776E+00
         11   -1    0    0    0    0  0.00000000000E+00  0.00000000000E+00  0.39999999674E+01  0.40000000000E+01  0.51100000000E-03 0. -1.
    9000002   -1    0    0    0    0 -0.00000000000E+00 -0.00000000000E+00  0.00000000000E+00  0.93800000000E+00  0.93800000000E+00 0. -1.
         11    1    1    2    0    0  0.84065543444E-01 -0.33547731456E-01  0.25786410578E+00  0.27328853626E+00  0.51100000000E-03 0. -1.
    9000002    1    1    2    0    0 -0.44186934637E+00 -0.80904471352E-01  0.14741396790E+00  0.10504136950E+01  0.93800000000E+00 0. -1.
         22    1    1    2    0    0  0.35780380293E+00  0.11445220281E+00  0.35947218937E+01  0.36142977687E+01  0.00000000000E+00 0. -1.
</event>
<event>
 5    1  0.6440325E+001  0.1599674E+01  0.7818608E-02  0.3353717E+00
         11   -1    0    0    0    0  0.00000000000E+00  0.00000000000E+00  0.39999999674E+01  0.40000000000E+01  0.51100000000E-03 0. -1.
    9000002   -1    0    0    0    0 -0.00000000000E+00 -0.00000000000E+00  0.00000000000E+00  0.93800000000E+00  0.93800000000E+00 0.  1.
         11    1    1    2    0    0 -0.52227405164E-02 -0.26413982664E-01  0.29164894465E+00  0.29288964396E+00  0.51100000000E-03 0. -1.
    9000002    1    1    2    0    0  0.57043288361E-01  0.35054963156E+00  0.84628529679E-01  0.10065510265E+01  0.93800000000E+00 0.  1.
         22    1    1    2    0    0 -0.51820547845E-01 -0.32413564889E+00  0.36237224930E+01  0.36385593295E+01  0.00000000000E+00 0. -1.
</event>
<event>
 5    1  0.6440325E+001  0.1599659E+01  0.7818608E-02  0.3353734E+00
         11   -1    0    0    0    0  0.00000000000E+00  0.00000000000E+00  0.39999999674E+01  0.40000000000E+01  0.51100000000E-03 0.  1.
    9000002   -1    0    0    0    0 -0.00000000000E+00 -0.00000000000E+00  0.00000000000E+00  0.93800000000E+00  0.93800000000E+00 0.  1.
         11    1    1    2    0    0  0.12552793755E+00 -0.42559090136E-01  0.75959138557E+00  0.77106930520E+00  0.51100000000E-03 0.  1.
    9000002    1    1    2    0    0 -0.62121950438E+00  0.18970975055E+00  0.29770184920E+00  0.11791411506E+01  0.93800000000E+00 0.  1.
         22    1    1    2    0    0  0.49569156683E+00 -0.14715066042E+00  0.29427067326E+01  0.29877895442E+01  0.00000000000E+00 0.  1.
</event>
<event>
 5    1  0.6440325E+001  0.1587201E+01  0.7818608E-02  0.3367373E+00
         11   -1    0    0    0    0  0.00000000000E+00  0.00000000000E+00  0.39999999674E+01  0.40000000000E+01  0.51100000000E-03 0. -1.
    9000002   -1    0    0    0    0 -0.00000000000E+00 -0.00000000000E+00  0.00000000000E+00  0.93800000000E+00  0.93800000000E+00 0.  1.
         11    1    1    2    0    0 -0.45287996561E-01 -0.82909070366E-01  0.83868239972E+00  0.84398657887E+00  0.51100000000E-03 0. -1.
    9000002    1    1    2    0    0 -0.24445925010E+00  0.14825678441E+00  0.64219210283E-01  0.98270468914E+00  0.93800000000E+00 0.  1.
         22    1    1    2    0    0  0.28974724666E+00 -0.65347714045E-01  0.30970983574E+01  0.31113087320E+01  0.00000000000E+00 0. -1.
</event>
<event>
 5    1  0.6440325E+001  0.1599509E+01  0.7818608E-02  0.3353897E+00
         11   -1    0    0    0    0  0.00000000000E+00  0.00000000000E+00  0.39999999674E+01  0.40000000000E+01  0.51100000000E-03 0.  1.
    9000002   -1    0    0    0    0 -0.00000000000E+00 -0.00000000000E+00  0.00000000000E+00  0.93800000000E+00  0.93800000000E+00 0.  1.
         11    1    1    2    0    0 -0.17473366742E-01  0.12486624754E-01  0.24051070707E+00  0.24146820842E+00  0.51100000000E-03 0.  1.
    9000002    1    1    2    0    0  0.40157373723E+00 -0.18765177960E+00  0.13345547793E+00  0.10460062244E+01  0.93800000000E+00 0.  1.
         22    1    1    2    0    0 -0.38410037048E+00  0.17516515485E+00  0.36260337824E+01  0.36505255672E+01  0.00000000000E+00 0.  1.
</event>
<event>
 5    1  0.6440325E+001  0.1592264E+01  0.7818608E-02  0.3361803E+00
         11   -1    0    0    0    0  0.00000000000E+00  0.00000000000E+00  0.39999999674E+01  0.40000000000E+01  0.51100000000E-03 0.  1.
    9000002   -1    0    0    0    0 -0.00000000000E+00 -0.00000000000E+00  0.00000000000E+00  0.93800000000E+00  0.93800000000E+00 0.  1.
         11    1    1    2    0    0  0.36096266026E-01  0.21698973105E-01  0.11962238899E+01  0.11969651798E+01  0.51100000000E-03 0.  1.
    9000002    1    1    2    0    0  0.97672302460E-01 -0.29828171111E+00  0.71673752440E-01  0.99171214807E+00  0.93800000000E+00 0.  1.
         22    1    1    2    0    0 -0.13376856849E+00  0.27658273800E+00  0.27321023250E+01  0.27493226721E+01  0.00000000000E+00 0.  1.
</event>
<event>
 5    1  0.6440325E+001  0.1599639E+01  0.7818608E-02  0.3353756E+00
         11   -1    0    0    0    0  0.00000000000E+00  0.00000000000E+00  0.39999999674E+01  0.40000000000E+01  0.51100000000E-03 0. -1.
    9000002   -1    0    0    0    0 -0.00000000000E+00 -0.00000000000E+00  0.00000000000E+00  0.93800000000E+00  0.93800000000E+00 0. -1.
         11    1    1    2    0    0 -0.14028670868E+00 -0.10478493411E+00  0.12741385350E+01  0.12861141126E+01  0.51100000000E-03 0. -1.
    9000002    1    1    2    0    0  0.43735968116E+00  0.30274251298E+00  0.19480472992E+00  0.10957779897E+01  0.93800000000E+00 0. -1.
         22    1    1    2    0    0 -0.29707297248E+00 -0.19795757887E+00  0.25310567024E+01  0.25561078977E+01  0.00000000000E+00 0. -1.
</event>
<event>
 5    1  0.6440325E+001  0.1599677E+01  0.7818608E-02  0.3353714E+00
         11   -1    0    0    0    0  0.00000000000E+00  0.00000000000E+00  0.39999999674E+01  0.40000000000E+01  0.51100000000E-03 0. -1.
    9000002   -1    0    0    0    0 -0.00000000000E+00 -0.00000000000E+00  0.00000000000E+00  0.93800000000E+00  0.93800000000E+00 0. -1.
         11    1    1    2    0    0  0.11488855195E+00 -0.96623470449E-01  0.12883341463E+01  0.12970507346E+01  0.51100000000E-03 0. -1.
    9000002    1    1    2    0    0 -0.34533870120E+00  0.29069694058E+00  0.13842180867E+00  0.10501276717E+01  0.93800000000E+00 0. -1.
         22    1    1    2    0    0  0.23045014925E+00 -0.19407347013E+00  0.25732440124E+01  0.25908215937E+01  0.00000000000E+00 0. -1.
</event>
<event>
 5    1  0.6440325E+001  0.1596237E+01  0.7818608E-02  0.3357458E+00
         11   -1    0    0    0    0  0.00000000000E+00  0.00000000000E+00  0.39999999674E+01  0.40000000000E+01  0.51100000000E-03 0.  1.
    9000002   -1    0    0    0    0 -0.00000000000E+00 -0.00000000000E+00  0.00000000000E+00  0.93800000000E+00  0.93800000000E+00 0. -1.
         11    1    1    2    0    0  0.30005321956E-03  0.93805752337E-01  0.30570158209E+00  0.31977074228E+00  0.51100000000E-03 0.  1.
    9000002    1    1    2    0    0  0.68688439496E-01 -0.65553700399E+00  0.31091500791E+00  0.11878379551E+01  0.93800000000E+00 0. -1.
         22    1    1    2    0    0 -0.68988492716E-01  0.56173125166E+00  0.33833833774E+01  0.34303913027E+01  0.00000000000E+00 0.  1.
</event>
<event>
 5    1  0.6440325E+001  0.1058006E+01  0.7818608E-02  0.4383636E+00
         11   -1    0    0    0    0  0.00000000000E+00  0.00000000000E+00  0.39999999674E+01  0.40000000000E+01  0.51100000000E-03 0.  1.
    9000002   -1    0    0    0    0 -0.00000000000E+00 -0.00000000000E+00  0.00000000000E+00  0.93800000000E+00  0.93800000000E+00 0. -1.
         11    1    1    2    0    0 -0.32876888831E-01 -0.80549528441E+00  0.29307680243E+00  0.85778657967E+00  0.51100000000E-03 0.  1.
    9000002    1    1    2    0    0 -0.66179313536E-01  0.13149008928E+00  0.15443769460E+01  0.18129019544E+01  0.93800000000E+00 0. -1.
         22    1    1    2    0    0  0.99056202368E-01  0.67400519513E+00  0.21625462189E+01  0.22673114659E+01  0.00000000000E+00 0. -1.
</event>
<event>
 5    1  0.6440325E+001  0.1599675E+01  0.7818608E-02  0.3353716E+00
         11   -1    0    0    0    0  0.00000000000E+00  0.00000000000E+00  0.39999999674E+01  0.40000000000E+01  0.51100000000E-03 0. -1.
    9000002   -1    0    0    0    0 -0.00000000000E+00 -0.00000000000E+00  0.00000000000E+00  0.93800000000E+00  0.93800000000E+00 0.  1.
         11    1    1    2    0    0 -0.58228734041E-01 -0.69977563499E-02  0.45869592858E+00  0.46243028672E+00  0.51100000000E-03 0. -1.
    9000002    1    1    2    0    0  0.48076533407E+00  0.62280999389E-01  0.16047915449E+00  0.10679942829E+01  0.93800000000E+00 0.  1.
         22    1    1    2    0    0 -0.42253660003E+00 -0.55283243039E-01  0.33808248843E+01  0.34075754304E+01  0.00000000000E+00 0. -1.
</event>
<event>
 5    1  0.6440325E+001  0.1599674E+01  0.7818608E-02  0.3353718E+00
         11   -1    0    0    0    0  0.00000000000E+00  0.00000000000E+00  0.39999999674E+01  0.40000000000E+01  0.51100000000E-03 0. -1.
    9000002   -1    0    0    0    0 -0.00000000000E+00 -0.00000000000E+00  0.00000000000E+00  0.93800000000E+00  0.93800000000E+00 0. -1.
         11    1    1    2    0    0 -0.25530074102E-01 -0.22269737058E-01  0.31973029120E+00  0.32152052205E+00  0.51100000000E-03 0. -1.
    9000002    1    1    2    0    0  0.32316623753E+00  0.27431051055E+00  0.12158772681E+00  0.10364893866E+01  0.93800000000E+00 0. -1.
         22    1    1    2    0    0 -0.29763616343E+00 -0.25204077349E+00  0.35586819494E+01  0.35799900913E+01  0.00000000000E+00 0. -1.
</event>
<event>
 5    1  0.6440325E+001  0.1503836E+01  0.7818608E-02  0.3464841E+00
         11   -1    0    0    0    0  0.00000000000E+00  0.00000000000E+00  0.39999999674E+01  0.40000000000E+01  0.51100000000E-03 0. -1.
    9000002   -1    0    0    0    0 -0.00000000000E+00 -0.00000000000E+00  0.00000000000E+00  0.93800000000E+00  0.93800000000E+00 0. -1.
         11    1    1    2    0    0  0.66860701633E-01 -0.47264153174E+00  0.10619752767E+01  0.11643247487E+01  0.51100000000E-03 0. -1.
    9000002    1    1    2    0    0  0.18975300761E+00  0.52258649798E+00  0.31127531319E+00  0.11339484875E+01  0.93800000000E+00 0. -1.
         22    1    1    2    0    0 -0.25661370924E+00 -0.49944966234E-01  0.26267493775E+01  0.26397267638E+01  0.00000000000E+00 0. -1.
</event>
<event>
 5    1  0.6440325E+001  0.1496182E+01  0.7818608E-02  0.3474373E+00
         11   -1    0    0    0    0  0.00000000000E+00  0.00000000000E+00  0.39999999674E+01  0.40000000000E+01  0.51100000000E-03 0. -1.
    9000002   -1    0    0    0    0 -0.00000000000E+00 -0.00000000000E+00  0.00000000000E+00  0.93800000000E+00  0.93800000000E+00 0. -1.
         11    1    1    2    0    0 -0.42750257934E-01  0.24217793058E+00  0.57881852983E+00  0.62889497232E+00  0.51100000000E-03 0. -1.
    9000002    1    1    2    0    0  0.15765444280E+00  0.24030550366E+00  0.14039222659E+00  0.99103765605E+00  0.93800000000E+00 0. -1.
         22    1    1    2    0    0 -0.11490418487E+00 -0.48248343424E+00  0.32807892109E+01  0.33180673716E+01  0.00000000000E+00 0. -1.
</event>
<event>
 5    1  0.6440325E+001  0.1599353E+01  0.7818608E-02  0.3354066E+00
         11   -1    0    0    0    0  0.00000000000E+00  0.00000000000E+00  0.39999999674E+01  0.40000000000E+01  0.51100000000E-03 0.  1.
    9000002   -1    0    0    0    0 -0.00000000000E+00 -0.00000000000E+00  0.00000000000E+00  0.93800000000E+00  0.93800000000E+00 0.  1.
         11    1    1    2    0    0 -0.62321924675E-03  0.99106648875E-02  0.53523810556E-01  0.54439591275E-01  0.51100000000E-03 0.  1.
    9000002    1    1    2    0    0 -0.45297652620E-01 -0.36595027334E+00  0.91628600354E-01  0.10120332407E+01  0.93800000000E+00 0.  1.
         22    1    1    2    0    0  0.45920871867E-01  0.35603960845E+00  0.38548475564E+01  0.38715271680E+01  0.00000000000E+00 0.  1.
</event>
<event>
 5    1  0.6440325E+001  0.1599326E+01  0.7818608E-02  0.3354095E+00
         11   -1    0    0    0    0  0.00000000000E+00  0.00000000000E+00  0.39999999674E+01  0.40000000000E+01  0.51100000000E-03 0. -1.
    9000002   -1    0    0    0    0 -0.00000000000E+00 -0.00000000000E+00  0.00000000000E+00  0.93800000000E+00  0.93800000000E+00 0. -1.
         11    1    1    2    0    0  0.24087683240E-01  0.30450769077E-01  0.35670600740E+00  0.35881318629E+00  0.51100000000E-03 0. -1.
    9000002    1    1    2    0    0 -0.14216152398E+00 -0.40654585286E+00  0.12593089819E+00  0.10398038375E+01  0.93800000000E+00 0. -1.
         22    1    1    2    0    0  0.11807384074E+00  0.37609508379E+00  0.35173630618E+01  0.35393829762E+01  0.00000000000E+00 0. -1.
</event>
<event>
 5    1  0.6440325E+001  0.1599676E+01  0.7818608E-02  0.3353715E+00
         11   -1    0    0    0    0  0.00000000000E+00  0.00000000000E+00  0.39999999674E+01  0.40000000000E+01  0.51100000000E-03 0. -1.
    9000002   -1    0    0    0    0 -0.00000000000E+00 -0.00000000000E+00  0.00000000000E+00  0.93800000000E+00  0.93800000000E+00 0. -1.
         11    1    1    2    0    0 -0.96618370374E-01  0.41430763781E-01  0.10998718976E+01  0.11048846410E+01  0.51100000000E-03 0. -1.
    9000002    1    1    2    0    0  0.34309230370E+00 -0.14450395800E+00  0.93165799989E-01  0.10134680997E+01  0.93800000000E+00 0. -1.
         22    1    1    2    0    0 -0.24647393332E+00  0.10307319422E+00  0.28069622698E+01  0.28196472594E+01  0.00000000000E+00 0. -1.
</event>
<event>
 5    1  0.6440325E+001  0.1599593E+01  0.7818608E-02  0.3353806E+00
         11   -1    0    0    0    0  0.00000000000E+00  0.00000000000E+00  0.39999999674E+01  0.40000000000E+01  0.51100000000E-03 0.  1.
    9000002   -1    0    0    0    0 -0.00000000000E+00 -0.00000000000E+00  0.00000000000E+00  0.93800000000E+00  0.93800000000E+00 0. -1.
         11    1    1    2    0    0 -0.71294988161E-01  0.94099874332E-01  0.11544247646E+01  0.11604458453E+01  0.51100000000E-03 0.  1.
    9000002    1    1    2    0    0  0.20687796977E+00 -0.31957494045E+00  0.97589992762E-01  0.10170026763E+01  0.93800000000E+00 0. -1.
         22    1    1    2    0    0 -0.13558298161E+00  0.22547506611E+00  0.27479852100E+01  0.27605514784E+01  0.00000000000E+00 0.  1.
</event>
<event>
 5    1  0.6440325E+001  0.1599641E+01  0.7818608E-02  0.3353753E+00
         11   -1    0    0    0    0  0.00000000000E+00  0.00000000000E+00  0.39999999674E+01  0.40000000000E+01  0.51100000000E-03 0. -1.
    9000002   -1    0    0    0    0 -0.00000000000E+00 -0.00000000000E+00  0.00000000000E+00  0.93800000000E+00  0.93800000000E+00 0.  1.
         11    1    1    2    0    0 -0.95941779514E-03 -0.55022965696E-01  0.38565825449E+00  0.38956513911E+00  0.51100000000E-03 0. -1.
    9000002    1    1    2    0    0 -0.16259954807E-01  0.51068407221E+00  0.17907772991E+00  0.10830399074E+01  0.93800000000E+00 0.  1.
         22    1    1    2    0    0  0.17219372602E-01 -0.45566110652E+00  0.34352639830E+01  0.34653949535E+01  0.00000000000E+00 0. -1.
</event>
<event>
 5    1  0.6440325E+001  0.1599674E+01  0.7818608E-02  0.3353718E+00
         11   -1    0    0    0    0  0.00000000000E+00  0.00000000000E+00  0.39999999674E+01  0.40000000000E+01  0.51100000000E-03 0.  1.
    9000002   -1    0    0    0    0 -0.00000000000E+00 -0.00000000000E+00  0.00000000000E+00  0.93800000000E+00  0.93800000000E+00 0.  1.
         11    1    1    2    0    0 -0.17471851599E-01 -0.93335792535E-01  0.82830289130E+00  0.83372823907E+00  0.51100000000E-03 0.  1.
    9000002    1    1    2    0    0  0.73540948594E-01  0.43451398727E+00  0.13172891412E+00  0.10447043520E+01  0.93800000000E+00 0.  1.
         22    1    1    2    0    0 -0.56069096994E-01 -0.34117819474E+00  0.30399681619E+01  0.30595674089E+01  0.00000000000E+00 0.  1.
</event>
<event>
 5    1  0.6440325E+001  0.1594097E+01  0.7818608E-02  0.3359795E+00
         11   -1    0    0    0    0  0.00000000000E+00  0.00000000000E+00  0.39999999674E+01  0.40000000000E+01  0.51100000000E-03 0. -1.
    9000002   -1    0    0    0    0 -0.00000000000E+00 -0.00000000000E+00  0.00000000000E+00  0.93800000000E+00  0.93800000000E+00 0. -1.
         11    1    1    2    0    0 -0.35033198200E-01  0.78237676082E-01  0.55392100935E+00  0.56051512438E+00  0.51100000000E-03 0. -1.
    9000002    1    1    2    0    0 -0.18854644403E+00 -0.46518023404E+00  0.17757677281E+00  0.10785730953E+01  0.93800000000E+00 0. -1.
         22    1    1    2    0    0  0.22357964223E+00  0.38694255796E+00  0.32685021852E+01  0.32989117803E+01  0.00000000000E+00 0. -1.
</event>
<event>
 5    1  0.6440325E+001  0.1599633E+01  0.7818608E-02  0.3353762E+00
         11   -1    0    0    0    0  0.00000000000E+00  0.00000000000E+00  0.39999999674E+01  0.40000000000E+01  0.51100000000E-03 0.  1.
    9000002   -1    0    0    0    0 -0.00000000000E+00 -0.00000000000E+00  0.00000000000E+00  0.93800000000E+00  0.93800000000E+00 0. -1.
         11    1    1    2    0    0 -0.66942811289E-01 -0.21008142203E-01  0.70766032388E+00  0.71113014079E+00  0.51100000000E-03 0.  1.
    9000002    1    1    2    0    0  0.39222481717E+00  0.13839816675E+00  0.11696964157E+00  0.10327246762E+01  0.93800000000E+00 0. -1.
         22    1    1    2    0    0 -0.32528200588E+00 -0.11739002454E+00  0.31753700019E+01  0.31941451830E+01  0.00000000000E+00 0.  1.
</event>
<event>
 5    1  0.6440325E+001  0.1599677E+01  0.7818608E-02  0.3353714E+00
         11   -1    0    0    0    0  0.00000000000E+00  0.00000000000E+00  0.39999999674E+01  0.40000000000E+01  0.51100000000E-03 0. -1.
    9000002   -1    0    0    0    0 -0.00000000000E+00 -0.00000000000E+00  0.00000000000E+00  0.93800000000E+00  0.93800000000E+00 0.  1.
         11    1    1    2    0    0 -0.22779898857E+00 -0.12254581677E+00  0.88869777759E+00  0.92557758045E+00  0.51100000000E-03 0. -1.
    9000002    1    1    2    0    0  0.84022944546E+00  0.45241632979E+00  0.71489776019E+00  0.15170988313E+01  0.93800000000E+00 0.  1.
         22    1    1    2    0    0 -0.61243045689E+00 -0.32987051302E+00  0.23964044296E+01  0.24953235882E+01  0.00000000000E+00 0. -1.
</event>
<event>
 5    1  0.6440325E+001  0.1598509E+01  0.7818608E-02  0.3354984E+00
         11   -1    0    0    0    0  0.00000000000E+00  0.00000000000E+00  0.39999999674E+01  0.40000000000E+01  0.51100000000E-03 0. -1.
    9000002   -1    0    0    0    0 -0.00000000000E+00 -0.00000000000E+00  0.00000000000E+00  0.93800000000E+00  0.93800000000E+00 0.  1.
         11    1    1    2    0    0 -0.56455687697E-01 -0.89538580555E-02  0.61698669757E+00  0.61962913291E+00  0.51100000000E-03 0. -1.
    9000002    1    1    2    0    0  0.28949743904E+00  0.23404144031E+00  0.94113473506E-01  0.10135509404E+01  0.93800000000E+00 0.  1.
         22    1    1    2    0    0 -0.23304175134E+00 -0.22508758225E+00  0.32888997963E+01  0.33048199266E+01  0.00000000000E+00 0. -1.
</event>
<event>
 5    1  0.6440325E+001  0.1599655E+01  0.7818608E-02  0.3353738E+00
         11   -1    0    0    0    0  0.00000000000E+00  0.00000000000E+00  0.39999999674E+01  0.40000000000E+01  0.51100000000E-03 0. -1.
    9000002   -1    0    0    0    0 -0.00000000000E+00 -0.00000000000E+00  0.00000000000E+00  0.93800000000E+00  0.93800000000E+00 0.  1.
         11    1    1    2    0    0  0.10888969748E+00  0.88166699606E-01  0.12283889852E+01  0.12363535471E+01  0.51100000000E-03 0. -1.
    9000002    1    1    2    0    0 -0.34144103498E+00 -0.29363722899E+00  0.13776746448E+00  0.10495850022E+01  0.93800000000E+00 0.  1.
         22    1    1    2    0    0  0.23255133750E+00  0.20547052938E+00  0.26338435176E+01  0.26520614507E+01  0.00000000000E+00 0. -1.
</event>
<event>
 5    1  0.6440325E+001  0.1599671E+01  0.7818608E-02  0.3353720E+00
         11   -1    0    0    0    0  0.00000000000E+00  0.00000000000E+00  0.39999999674E+01  0.40000000000E+01  0.51100000000E-03 0.  1.
    9000002   -1    0    0    0    0 -0.00000000000E+00 -0.00000000000E+00  0.00000000000E+00  0.93800000000E+00  0.93800000000E+00 0.  1.
         11    1    1    2    0    0 -0.35858202082E-01  0.26297117790E+00  0.13353378377E+01  0.13614576941E+01  0.51100000000E-03 0.  1.
    9000002    1    1    2    0    0  0.97377322688E-01 -0.70789645419E+00  0.36637572968E+00  0.12347772707E+01  0.93800000000E+00 0.  1.
         22    1    1    2    0    0 -0.61519120606E-01  0.44492527629E+00  0.22982864000E+01  0.23417650352E+01  0.00000000000E+00 0.  1.
</event>
<event>
 5    1  0.6440325E+001  0.1594537E+01  0.7818608E-02  0.3359314E+00
         11   -1    0    0    0    0  0.00000000000E+00  0.00000000000E+00  0.39999999674E+01  0.40000000000E+01  0.51100000000E-03 0. -1.
    9000002   -1    0    0    0    0 -0.00000000000E+00 -0.00000000000E+00  0.00000000000E+00  0.93800000000E+00  0.93800000000E+00 0. -1.
         11    1    1    2    0    0 -0.66399408735E-03  0.25132672718E-01  0.57803333296E-01  0.63036327520E-01  0.51100000000E-03 0. -1.
    9000002    1    1    2    0    0  0.35762443510E+00 -0.27726723543E+00  0.14359169284E+00  0.10513015413E+01  0.93800000000E+00 0. -1.
         22    1    1    2    0    0 -0.35696044101E+00  0.25213456272E+00  0.37986049412E+01  0.38236621312E+01  0.00000000000E+00 0. -1.
</event>
<event>
 5    1  0.6440325E+001  0.1599675E+01  0.7818608E-02  0.3353716E+00
         11   -1    0    0    0    0  0.00000000000E+00  0.00000000000E+00  0.39999999674E+01  0.40000000000E+01  0.51100000000E-03 0.  1.
    9000002   -1    0    0    0    0 -0.00000000000E+00 -0.00000000000E+00  0.00000000000E+00  0.93800000000E+00  0.93800000000E+00 0.  1.
         11    1    1    2    0    0  0.41553301123E-01  0.17494909549E+00  0.14327760076E+01  0.14440156550E+01  0.51100000000E-03 0.  1.
    9000002    1    1    2    0    0 -0.11192829805E+00 -0.46467180569E+00  0.15582566390E+00  0.10642243506E+01  0.93800000000E+00 0.  1.
         22    1    1    2    0    0  0.70374996924E-01  0.28972271020E+00  0.24113982959E+01  0.24297599944E+01  0.00000000000E+00 0.  1.
</event>
<event>
 5    1  0.6440325E+001  0.1590438E+01  0.7818608E-02  0.3363808E+00
         11   -1    0    0    0    0  0.00000000000E+00  0.00000000000E+00  0.39999999674E+01  0.40000000000E+01  0.51100000000E-03 0.  1.
    9000002   -1    0    0    0    0 -0.00000000000E+00 -0.00000000000E+00  0.00000000000E+00  0.93800000000E+00  0.93800000000E+00 0.  1.
         11    1    1    2    0    0 -0.31638621124E-01  0.57226603249E-01  0.28373892403E+00  0.29117679268E+00  0.51100000000E-03 0.  1.
    9000002    1    1    2    0    0 -0.21626212668E+00 -0.27419062246E+00  0.89234614636E-01  0.10048664694E+01  0.93800000000E+00 0.  1.
         22    1    1    2    0    0  0.24790074780E+00  0.21696401922E+00  0.36270264287E+01  0.36419567379E+01  0.00000000000E+00 0.  1.
</event>
<event>
 5    1  0.6440325E+001  0.1599314E+01  0.7818608E-02  0.3354108E+00
         11   -1    0    0    0    0  0.00000000000E+00  0.00000000000E+00  0.39999999674E+01  0.40000000000E+01  0.51100000000E-03 0. -1.
    9000002   -1    0    0    0    0 -0.00000000000E+00 -0.00000000000E+00  0.00000000000E+00  0.93800000000E+00  0.93800000000E+00 0. -1.
         11    1    1    2    0    0  0.45432374940E-01  0.50399117538E-01  0.57486383843E+00  0.57885478800E+00  0.51100000000E-03 0. -1.
    9000002    1    1    2    0    0 -0.40352233012E+00 -0.36700686354E+00  0.20566494308E+00  0.11043850676E+01  0.93800000000E+00 0. -1.
         22    1    1    2    0    0  0.35808995518E+00  0.31660774600E+00  0.32194711859E+01  0.32547601444E+01  0.00000000000E+00 0. -1.
</event>
<event>
 5    1  0.6440325E+001  0.1598125E+01  0.7818608E-02  0.3355401E+00
         11   -1    0    0    0    0  0.00000000000E+00  0.00000000000E+00  0.39999999674E+01  0.40000000000E+01  0.51100000000E-03 0.  1.
    9000002   -1    0    0    0    0 -0.00000000000E+00 -0.00000000000E+00  0.00000000000E+00  0.93800000000E+00  0.93800000000E+00 0. -1.
         11    1    1    2    0    0  0.20627280729E-01 -0.12797089025E+00  0.58232761833E+00  0.59658004463E+00  0.51100000000E-03 0.  1.
    9000002    1    1    2    0    0 -0.30255915229E-02  0.63450164711E+00  0.28466528135E+00  0.11676813850E+01  0.93800000000E+00 0. -1.
         22    1    1    2    0    0 -0.17601689206E-01 -0.50653075686E+00  0.31330070677E+01  0.31737385704E+01  0.00000000000E+00 0.  1.
</event>
<event>
 5    1  0.6440325E+001  0.1596008E+01  0.7818608E-02  0.3357708E+00
         11   -1    0    0    0    0  0.00000000000E+00  0.00000000000E+00  0.39999999674E+01  0.40000000000E+01  0.51100000000E-03 0.  1.
    9000002   -1    0    0    0    0 -0.00000000000E+00 -0.00000000000E+00  0.00000000000E+00  0.93800000000E+00  0.93800000000E+00 0. -1.
         11    1    1    2    0    0 -0.46873240448E-01 -0.57145228852E-01  0.11816369217E+01  0.11839462630E+01  0.51100000000E-03 0.  1.
    9000002    1    1    2    0    0  0.29988890814E+00  0.20293686366E-01  0.63151988583E-01  0.98700423737E+00  0.93800000000E+00 0. -1.
         22    1    1    2    0    0 -0.25301566770E+00  0.36851542486E-01  0.27552110571E+01  0.27670494996E+01  0.00000000000E+00 0. -1.
</event>
<event>
 5    1  0.6440325E+001  0.1599671E+01  0.7818608E-02  0.3353720E+00
         11   -1    0    0    0    0  0.00000000000E+00  0.00000000000E+00  0.39999999674E+01  0.40000000000E+01  0.51100000000E-03 0. -1.
    9000002   -1    0    0    0    0 -0.00000000000E+00 -0.00000000000E+00  0.00000000000E+00  0.93800000000E+00  0.93800000000E+00 0.  1.
         11    1    1    2    0    0  0.56623713527E-01 -0.70489322531E-01  0.87702374463E+00  0.88167221760E+00  0.51100000000E-03 0. -1.
    9000002    1    1    2    0    0 -0.25529668564E+00  0.30298570837E+00  0.10583748407E+00  0.10237296080E+01  0.93800000000E+00 0.  1.
         22    1    1    2    0    0  0.19867297212E+00 -0.23249638584E+00  0.30171387387E+01  0.30325981744E+01  0.00000000000E+00 0. -1.
</event>
<event>
 5    1  0.6440325E+001  0.1599539E+01  0.7818608E-02  0.3353864E+00
         11   -1    0    0    0    0  0.00000000000E+00  0.00000000000E+00  0.39999999674E+01  0.40000000000E+01  0.51100000000E-03 0. -1.
    9000002   -1    0    0    0    0 -0.00000000000E+00 -0.00000000000E+00  0.00000000000E+00  0.93800000000E+00  0.93800000000E+00 0. -1.
         11    1    1    2    0    0  0.26683937242E-01  0.84931566010E-01  0.96465459092E+00  0.96875391319E+00  0.51100000000E-03 0. -1.
    9000002    1    1    2    0    0 -0.14459733800E+00 -0.37544479474E+00  0.10933075982E+00  0.10264815630E+01  0.93800000000E+00 0. -1.
         22    1    1    2    0    0  0.11791340076E+00  0.29051322873E+00  0.29260146166E+01  0.29427645239E+01  0.00000000000E+00 0. -1.
</event>
<event>
 5    1  0.6440325E+001  0.1597377E+01  0.7818608E-02  0.3356215E+00
         11   -1    0    0    0    0  0.00000000000E+00  0.00000000000E+00  0.39999999674E+01  0.40000000000E+01  0.51100000000E-03 0. -1.
    9000002   -1    0    0    0    0 -0.00000000000E+00 -0.00000000000E+00  0.00000000000E+00  0.93800000000E+00  0.93800000000E+00 0. -1.
         11    1    1    2    0    0 -0.20379001264E-01 -0.13763360255E-01  0.99309341847E+00  0.99339797297E+00  0.51100000000E-03 0. -1.
    9000002    1    1    2    0    0  0.22206791366E+00  0.19499045181E+00  0.60036380569E-01  0.98528361478E+00  0.93800000000E+00 0. -1.
         22    1    1    2    0    0 -0.20168891239E+00 -0.18122709155E+00  0.29468701683E+01  0.29593184122E+01  0.00000000000E+00 0. -1.
</event>
<event>
 5    1  0.6440325E+001  0.1599677E+01  0.7818608E-02  0.3353714E+00
         11   -1    0    0    0    0  0.00000000000E+00  0.00000000000E+00  0.39999999674E+01  0.40000000000E+01  0.51100000000E-03 0.  1.
    9000002   -1    0    0    0    0 -0.00000000000E+00 -0.00000000000E+00  0.00000000000E+00  0.93800000000E+00  0.93800000000E+00 0. -1.
         11    1    1    2    0    0 -0.16735544829E+00 -0.17694694403E-01  0.90862438555E+00  0.92407763928E+00  0.51100000000E-03 0.  1.
    9000002    1    1    2    0    0  0.67761440419E+00  0.71043130297E-01  0.33013097523E+00  0.12054206187E+01  0.93800000000E+00 0. -1.
         22    1    1    2    0    0 -0.51025895590E+00 -0.53348435894E-01  0.27612446066E+01  0.28085017420E+01  0.00000000000E+00 0.  1.
</event>
<event>
 5    1  0.6440325E+001  0.1599280E+01  0.7818608E-02  0.3354145E+00
         11   -1    0    0    0    0  0.00000000000E+00  0.00000000000E+00  0.39999999674E+01  0.40000000000E+01  0.51100000000E-03 0. -1.
    9000002   -1    0    0    0    0 -0.00000000000E+00 -0.00000000000E+00  0.00000000000E+00  0.93800000000E+00  0.93800000000E+00 0.  1.
         11    1    1    2    0    0 -0.38972036670E-02 -0.65865666050E-01  0.92535552099E+00  0.92770500458E+00  0.51100000000E-03 0. -1.
    9000002    1    1    2    0    0  0.62550515396E-01  0.35167147606E+00  0.85936852378E-01  0.10073800359E+01  0.93800000000E+00 0.  1.
         22    1    1    2    0    0 -0.58653311729E-01 -0.28580581001E+00  0.29887075940E+01  0.30029149596E+01  0.00000000000E+00 0. -1.
</event>
<event>
 5    1  0.6440325E+001  0.1584051E+01  0.7818608E-02  0.3370858E+00
         11   -1    0    0    0    0  0.00000000000E+00  0.00000000000E+00  0.39999999674E+01  0.40000000000E+01  0.51100000000E-03 0. -1.
    9000002   -1    0    0    0    0 -0.00000000000E+00 -0.00000000000E+00  0.00000000000E+00  0.93800000000E+00  0.93800000000E+00 0. -1.
         11    1    1    2    0    0 -0.13126125731E+00 -0.94640564578E-01  0.86800278843E+00  0.88295835461E+00  0.51100000000E-03 0. -1.
    9000002    1    1    2    0    0  0.24472611220E-01  0.43791991633E+00  0.14394026665E+00  0.10454355849E+01  0.93800000000E+00 0. -1.
         22    1    1    2    0    0  0.10678864609E+00 -0.34327935175E+00  0.29880569123E+01  0.30096060605E+01  0.00000000000E+00 0. -1.
</event>
<event>
 5    1  0.6440325E+001  0.1599677E+01  0.7818608E-02  0.3353714E+00
         11   -1    0    0    0    0  0.00000000000E+00  0.00000000000E+00  0.39999999674E+01  0.40000000000E+01  0.51100000000E-03 0. -1.
    9000002   -1    0    0    0    0 -0.00000000000E+00 -0.00000000000E+00  0.00000000000E+00  0.93800000000E+00  0.93800000000E+00 0. -1.
         11    1    1    2    0    0 -0.42361887608E-01  0.37887267561E-01  0.57257310488E+00  0.57538699683E+00  0.51100000000E-03 0. -1.
    9000002    1    1    2    0    0  0.28597916690E+00 -0.25812004817E+00  0.99920402097E-01  0.10189397087E+01  0.93800000000E+00 0. -1.
         22    1    1    2    0    0 -0.24361727929E+00  0.22023278061E+00  0.33275064604E+01  0.33436732945E+01  0.00000000000E+00 0. -1.
</event>
<event>
 5    1  0.6440325E+001  0.1599645E+01  0.7818608E-02  0.3353748E+00
         11   -1    0    0    0    0  0.00000000000E+00  0.00000000000E+00  0.39999999674E+01  0.40000000000E+01  0.51100000000E-03 0.  1.
    9000002   -1    0    0    0    0 -0.00000000000E+00 -0.00000000000E+00  0.00000000000E+00  0.93800000000E+00  0.93800000000E+00 0. -1.
         11    1    1    2    0    0  0.18702765586E-01 -0.90212274584E-02  0.18696677196E+00  0.18811701391E+00  0.51100000000E-03 0.  1.
    9000002    1    1    2    0    0 -0.38685295747E+00  0.12806427570E+00  0.11214343326E+00  0.10288225401E+01  0.93800000000E+00 0. -1.
         22    1    1    2    0    0  0.36815019188E+00 -0.11904304824E+00  0.37008897621E+01  0.37210604460E+01  0.00000000000E+00 0.  1.
</event>
<event>
 5    1  0.6440325E+001  0.1599517E+01  0.7818608E-02  0.3353888E+00
         11   -1    0    0    0    0  0.00000000000E+00  0.00000000000E+00  0.39999999674E+01  0.40000000000E+01  0.51100000000E-03 0. -1.
    9000002   -1    0    0    0    0 -0.00000000000E+00 -0.00000000000E+00  0.00000000000E+00  0.93800000000E+00  0.93800000000E+00 0. -1.
         11    1    1    2    0    0 -0.38387516104E-02 -0.11338466293E-01  0.18206529617E-01  0.21795313109E-01  0.51100000000E-03 0. -1.
    9000002    1    1    2    0    0  0.36598027019E+00  0.11753908138E+01  0.15208732549E+01  0.21698812366E+01  0.93800000000E+00 0. -1.
         22    1    1    2    0    0 -0.36214151858E+00 -0.11640523476E+01  0.24609201829E+01  0.27463234503E+01  0.00000000000E+00 0. -1.
</event>
<event>
 5    1  0.6440325E+001  0.1599218E+01  0.7818608E-02  0.3354213E+00
         11   -1    0    0    0    0  0.00000000000E+00  0.00000000000E+00  0.39999999674E+01  0.40000000000E+01  0.51100000000E-03 0. -1.
    9000002   -1    0    0    0    0 -0.00000000000E+00 -0.00000000000E+00  0.00000000000E+00  0.93800000000E+00  0.93800000000E+00 0. -1.
         11    1    1    2    0    0 -0.17068145237E-01 -0.51527815195E-01  0.51774979418E+00  0.52058769465E+00  0.51100000000E-03 0. -1.
    9000002    1    1    2    0    0  0.51867826578E-02  0.43260200138E+00  0.12719737152E+00  0.10407663358E+01  0.93800000000E+00 0. -1.
         22    1    1    2    0    0  0.11881362580E-01 -0.38107418618E+00  0.33550528017E+01  0.33766459696E+01  0.00000000000E+00 0. -1.
</event>
<event>
 5    1  0.6440325E+001  0.1599613E+01  0.7818608E-02  0.3353783E+00
         11   -1    0    0    0    0  0.00000000000E+00  0.00000000000E+00  0.39999999674E+01  0.40000000000E+01  0.51100000000E-03 0.  1.
    9000002   -1    0    0    0    0 -0.00000000000E+00 -0.00000000000E+00  0.00000000000E+00  0.93800000000E+00  0.93800000000E+00 0. -1.
         11    1    1    2    0    0  0.15413628125E-01  0.62825164848E-03  0.12161806752E+00  0.12259359731E+00  0.51100000000E-03 0.  1.
    9000002    1    1    2    0    0 -0.39038444502E+00 -0.45835705918E-01  0.10417494741E+00  0.10223489358E+01  0.93800000000E+00 0. -1.
         22    1    1    2    0    0  0.37497081690E+00  0.45207454269E-01  0.37742069524E+01  0.37930574669E+01  0.00000000000E+00 0.  1.
</event>
<event>
 5    1  0.6440325E+001  0.1599625E+01  0.7818608E-02  0.3353770E+00
         11   -1    0    0    0    0  0.00000000000E+00  0.00000000000E+00  0.39999999674E+01  0.40000000000E+01  0.51100000000E-03 0.  1.
    9000002   -1    0    0    0    0 -0.00000000000E+00 -0.00000000000E+00  0.00000000000E+00  0.93800000000E+00  0.93800000000E+00 0.  1.
         11    1    1    2    0    0 -0.27312393358E+00  0.25170940316E+00  0.13489844201E+01  0.13991831666E+01  0.51100000000E-03 0.  1.
    9000002    1    1    2    0    0  0.65972939661E+00 -0.62552110460E+00  0.63525317412E+00  0.14525529678E+01  0.93800000000E+00 0.  1.
         22    1    1    2    0    0 -0.38660546303E+00  0.37381170144E+00  0.20157623731E+01  0.20862638656E+01  0.00000000000E+00 0. -1.
</event>
<event>
 5    1  0.7345197E+001  0.1584333E+01  0.7818608E-02  0.3370545E+00
         11   -1    0    0    0    0  0.00000000000E+00  0.00000000000E+00  0.39999999674E+01  0.40000000000E+01  0.51100000000E-03 0. -1.
    9000002   -1    0    0    0    0 -0.00000000000E+00 -0.00000000000E+00  0.00000000000E+00  0.93800000000E+00  0.93800000000E+00 0.  1.
         11    1    1    2    0    0  0.64157507647E-01 -0.54210491834E-01  0.76782057727E+00  0.77240123201E+00  0.51100000000E-03 0. -1.
    9000002    1    1    2    0    0  0.24165487669E+00  0.75253675491E-01  0.54400078223E-01  0.97306914637E+00  0.93800000000E+00 0.  1.
         22    1    1    2    0    0 -0.30581238434E+00 -0.21043183657E-01  0.31777793119E+01  0.31925296216E+01  0.00000000000E+00 0. -1.
</event>
<event>
 5    1  0.6440325E+001  0.1599676E+01  0.7818608E-02  0.3353715E+00
         11   -1    0    0    0    0  0.00000000000E+00  0.00000000000E+00  0.39999999674E+01  0.40000000000E+01  0.51100000000E-03 0. -1.
    9000002   -1    0    0    0    0 -0.00000000000E+00 -0.00000000000E+00  0.00000000000E+00  0.93800000000E+00  0.93800000000E+00 0.  1.
         11    1    1    2    0    0  0.61976015438E-01 -0.21442616102E+00  0.10594409079E+01  0.10826979743E+01  0.51100000000E-03 0. -1.
    9000002    1    1    2    0    0 -0.20723405661E+00  0.72649802846E+00  0.41444098737E+00  0.12737153024E+01  0.93800000000E+00 0.  1.
         22    1    1    2    0    0  0.14525804117E+00 -0.51207186744E+00  0.25261180721E+01  0.25815867233E+01  0.00000000000E+00 0. -1.
</event>
<event>
 5    1  0.6440325E+001  0.1599416E+01  0.7818608E-02  0.3353998E+00
         11   -1    0    0    0    0  0.00000000000E+00  0.00000000000E+00  0.39999999674E+01  0.40000000000E+01  0.51100000000E-03 0. -1.
    9000002   -1    0    0    0    0 -0.00000000000E+00 -0.00000000000E+00  0.00000000000E+00  0.93800000000E+00  0.93800000000E+00 0.  1.
         11    1    1    2    0    0  0.62785357983E-02 -0.11288223852E+00  0.10139211249E+01  0.10202049444E+01  0.51100000000E-03 0. -1.
    9000002    1    1    2    0    0  0.41183962968E-01  0.42675318009E+00  0.12468600534E+00  0.10388479174E+01  0.93800000000E+00 0.  1.
         22    1    1    2    0    0 -0.47462498766E-01 -0.31387094157E+00  0.28613928371E+01  0.28789471383E+01  0.00000000000E+00 0. -1.
</event>
<event>
 5    1  0.6440325E+001  0.1599624E+01  0.7818608E-02  0.3353772E+00
         11   -1    0    0    0    0  0.00000000000E+00  0.00000000000E+00  0.39999999674E+01  0.40000000000E+01  0.51100000000E-03 0. -1.
    9000002   -1    0    0    0    0 -0.00000000000E+00 -0.00000000000E+00  0.00000000000E+00  0.93800000000E+00  0.93800000000E+00 0.  1.
         11    1    1    2    0    0 -0.39708357622E-02  0.13858882317E+00  0.11276280170E+01  0.11361196395E+01  0.51100000000E-03 0. -1.
    9000002    1    1    2    0    0  0.28360701215E-01 -0.45137288134E+00  0.13901415703E+00  0.10505763862E+01  0.93800000000E+00 0.  1.
         22    1    1    2    0    0 -0.24389865452E-01  0.31278405817E+00  0.27333577933E+01  0.27513039743E+01  0.00000000000E+00 0.  1.
</event>
<event>
 5    1  0.6440325E+001  0.1599676E+01  0.7818608E-02  0.3353715E+00
         11   -1    0    0    0    0  0.00000000000E+00  0.00000000000E+00  0.39999999674E+01  0.40000000000E+01  0.51100000000E-03 0.  1.
    9000002   -1    0    0    0    0 -0.00000000000E+00 -0.00000000000E+00  0.00000000000E+00  0.93800000000E+00  0.93800000000E+00 0. -1.
         11    1    1    2    0    0 -0.45373700788E-01 -0.16979790511E+00  0.14378800068E+01  0.14485818155E+01  0.51100000000E-03 0.  1.
    9000002    1    1    2    0    0  0.12028295147E+00  0.45664142690E+00  0.15196343138E+00  0.10610967278E+01  0.93800000000E+00 0. -1.
         22    1    1    2    0    0 -0.74909250677E-01 -0.28684352179E+00  0.24101565292E+01  0.24283214567E+01  0.00000000000E+00 0.  1.
</event>
<event>
 5    1  0.6440325E+001  0.1598778E+01  0.7818608E-02  0.3354690E+00
         11   -1    0    0    0    0  0.00000000000E+00  0.00000000000E+00  0.39999999674E+01  0.40000000000E+01  0.51100000000E-03 0.  1.
    9000002   -1    0    0    0    0 -0.00000000000E+00 -0.00000000000E+00  0.00000000000E+00  0.93800000000E+00  0.93800000000E+00 0.  1.
         11    1    1    2    0    0 -0.44310786768E-01  0.13244435833E+00  0.13024743529E+01  0.13099407066E+01  0.51100000000E-03 0.  1.
    9000002    1    1    2    0    0  0.30976369869E-01 -0.40358947360E+00  0.11133475147E+00  0.10276591972E+01  0.93800000000E+00 0.  1.
         22    1    1    2    0    0  0.13334416899E-01  0.27114511528E+00  0.25861908630E+01  0.26004000962E+01  0.00000000000E+00 0.  1.
</event>
<event>
 5    1  0.6440325E+001  0.1505436E+01  0.7818608E-02  0.3462862E+00
         11   -1    0    0    0    0  0.00000000000E+00  0.00000000000E+00  0.39999999674E+01  0.40000000000E+01  0.51100000000E-03 0.  1.
    9000002   -1    0    0    0    0 -0.00000000000E+00 -0.00000000000E+00  0.00000000000E+00  0.93800000000E+00  0.93800000000E+00 0.  1.
         11    1    1    2    0    0 -0.22220838669E+00 -0.10585145101E+00  0.51523586492E+00  0.57100731555E+00  0.51100000000E-03 0.  1.
    9000002    1    1    2    0    0 -0.29082822643E-01 -0.73336607114E-01  0.76098347219E-01  0.94438288155E+00  0.93800000000E+00 0.  1.
         22    1    1    2    0    0  0.25129120933E+00  0.17918805812E+00  0.34086657552E+01  0.34226098029E+01  0.00000000000E+00 0.  1.
</event>
<event>
 5    1  0.6440325E+001  0.1599671E+01  0.7818608E-02  0.3353721E+00
         11   -1    0    0    0    0  0.00000000000E+00  0.00000000000E+00  0.39999999674E+01  0.40000000000E+01  0.51100000000E-03 0.  1.
    9000002   -1    0    0    0    0 -0.00000000000E+00 -0.00000000000E+00  0.00000000000E+00  0.93800000000E+00  0.93800000000E+00 0.  1.
         11    1    1    2    0    0 -0.68923156656E-01  0.42651517445E-01  0.54922190512E+00  0.55517070856E+00  0.51100000000E-03 0.  1.
    9000002    1    1    2    0    0  0.48839009127E+00 -0.29320666835E+00  0.22499269140E+00  0.11202503036E+01  0.93800000000E+00 0.  1.
         22    1    1    2    0    0 -0.41946693461E+00  0.25055515090E+00  0.32257853708E+01  0.32625789878E+01  0.00000000000E+00 0.  1.
</event>
<event>
 5    1  0.6440325E+001  0.1590711E+01  0.7818608E-02  0.3363508E+00
         11   -1    0    0    0    0  0.00000000000E+00  0.00000000000E+00  0.39999999674E+01  0.40000000000E+01  0.51100000000E-03 0. -1.
    9000002   -1    0    0    0    0 -0.00000000000E+00 -0.00000000000E+00  0.00000000000E+00  0.93800000000E+00  0.93800000000E+00 0.  1.
         11    1    1    2    0    0  0.10061585391E+00  0.21029220589E+00  0.14414110266E+01  0.14601412160E+01  0.51100000000E-03 0. -1.
    9000002    1    1    2    0    0  0.26082737832E-01 -0.56483460827E+00  0.23013558281E+00  0.11191625576E+01  0.93800000000E+00 0.  1.
         22    1    1    2    0    0 -0.12669859174E+00  0.35454240238E+00  0.23284533579E+01  0.23586962263E+01  0.00000000000E+00 0. -1.
</event>
<event>
 5    1  0.6440325E+001  0.1599663E+01  0.7818608E-02  0.3353729E+00
         11   -1    0    0    0    0  0.00000000000E+00  0.00000000000E+00  0.39999999674E+01  0.40000000000E+01  0.51100000000E-03 0. -1.
    9000002   -1    0    0    0    0 -0.00000000000E+00 -0.00000000000E+00  0.00000000000E+00  0.93800000000E+00  0.93800000000E+00 0. -1.
         11    1    1    2    0    0  0.40086464887E-01  0.71544430079E-01  0.82686113913E+00  0.83091824789E+00  0.51100000000E-03 0. -1.
    9000002    1    1    2    0    0 -0.18629404773E+00 -0.32099819515E+00  0.92593990500E-01  0.10129970190E+01  0.93800000000E+00 0. -1.
         22    1    1    2    0    0  0.14620758284E+00  0.24945376507E+00  0.30805448377E+01  0.30940847331E+01  0.00000000000E+00 0. -1.
</event>
<event>
 5    1  0.6440325E+001  0.1599669E+01  0.7818608E-02  0.3353723E+00
         11   -1    0    0    0    0  0.00000000000E+00  0.00000000000E+00  0.39999999674E+01  0.40000000000E+01  0.51100000000E-03 0. -1.
    9000002   -1    0    0    0    0 -0.00000000000E+00 -0.00000000000E+00  0.00000000000E+00  0.93800000000E+00  0.93800000000E+00 0. -1.
         11    1    1    2    0    0  0.26066896981E-02 -0.29413795080E-01  0.25085083383E+00  0.25258338847E+00  0.51100000000E-03 0.  1.
    9000002    1    1    2    0    0 -0.15284051598E-01  0.45350872742E+00  0.13993159110E+00  0.10513460982E+01  0.93800000000E+00 0. -1.
         22    1    1    2    0    0  0.12677361900E-01 -0.42409493234E+00  0.36092175424E+01  0.36340705133E+01  0.00000000000E+00 0. -1.
</event>
<event>
 5    1  0.6440325E+001  0.1599298E+01  0.7818608E-02  0.3354126E+00
         11   -1    0    0    0    0  0.00000000000E+00  0.00000000000E+00  0.39999999674E+01  0.40000000000E+01  0.51100000000E-03 0. -1.
    9000002   -1    0    0    0    0 -0.00000000000E+00 -0.00000000000E+00  0.00000000000E+00  0.93800000000E+00  0.93800000000E+00 0.  1.
         11    1    1    2    0    0  0.12162216385E+00 -0.95705207839E-01  0.11974122942E+01  0.12073723125E+01  0.51100000000E-03 0. -1.
    9000002    1    1    2    0    0 -0.33786809595E+00  0.26628412531E+00  0.12565697656E+00  0.10395651790E+01  0.93800000000E+00 0.  1.
         22    1    1    2    0    0  0.21624593210E+00 -0.17057891748E+00  0.26769306966E+01  0.26910625085E+01  0.00000000000E+00 0. -1.
</event>
<event>
 5    1  0.6440325E+001  0.1564524E+01  0.7818608E-02  0.3392791E+00
         11   -1    0    0    0    0  0.00000000000E+00  0.00000000000E+00  0.39999999674E+01  0.40000000000E+01  0.51100000000E-03 0.  1.
    9000002   -1    0    0    0    0 -0.00000000000E+00 -0.00000000000E+00  0.00000000000E+00  0.93800000000E+00  0.93800000000E+00 0. -1.
         11    1    1    2    0    0  0.10434364269E+00 -0.22177939034E-01  0.14299937347E+01  0.14339671541E+01  0.51100000000E-03 0.  1.
    9000002    1    1    2    0    0  0.42369398981E-01 -0.43116154538E+00  0.15777914437E+00  0.10451955332E+01  0.93800000000E+00 0. -1.
         22    1    1    2    0    0 -0.14671304167E+00  0.45333948442E+00  0.24122270883E+01  0.24588373127E+01  0.00000000000E+00 0.  1.
</event>
<event>
 5    1  0.6440325E+001  0.1505531E+01  0.7818608E-02  0.3462744E+00
         11   -1    0    0    0    0  0.00000000000E+00  0.00000000000E+00  0.39999999674E+01  0.40000000000E+01  0.51100000000E-03 0. -1.
    9000002   -1    0    0    0    0 -0.00000000000E+00 -0.00000000000E+00  0.00000000000E+00  0.93800000000E+00  0.93800000000E+00 0.  1.
         11    1    1    2    0    0  0.29376586176E+00  0.19450158142E+00  0.10805638273E+01  0.11365507875E+01  0.51100000000E-03 0. -1.
    9000002    1    1    2    0    0 -0.40253239739E-01 -0.74739205580E-01  0.76734611368E-01  0.94495421727E+00  0.93800000000E+00 0.  1.
         22    1    1    2    0    0 -0.25351262202E+00 -0.11976237584E+00  0.28427015287E+01  0.28564949952E+01  0.00000000000E+00 0. -1.
</event>
<event>
 5    1  0.6440325E+001  0.1599676E+01  0.7818608E-02  0.3353715E+00
         11   -1    0    0    0    0  0.00000000000E+00  0.00000000000E+00  0.39999999674E+01  0.40000000000E+01  0.51100000000E-03 0. -1.
    9000002   -1    0    0    0    0 -0.00000000000E+00 -0.00000000000E+00  0.00000000000E+00  0.93800000000E+00  0.93800000000E+00 0.  1.
         11    1    1    2    0    0 -0.55823887643E-01 -0.11125554275E-01  0.49644325277E+00  0.49969615641E+00  0.51100000000E-03 0. -1.
    9000002    1    1    2    0    0  0.43799985055E+00  0.84919068232E-01  0.13511937589E+00  0.10474523201E+01  0.93800000000E+00 0.  1.
         22    1    1    2    0    0 -0.38217596291E+00 -0.73793513957E-01  0.33684373387E+01  0.33908515234E+01  0.00000000000E+00 0. -1.
</event>
<event>
 5    1  0.6440325E+001  0.1599580E+01  0.7818608E-02  0.3353819E+00
         11   -1    0    0    0    0  0.00000000000E+00  0.00000000000E+00  0.39999999674E+01  0.40000000000E+01  0.51100000000E-03 0.  1.
    9000002   -1    0    0    0    0 -0.00000000000E+00 -0.00000000000E+00  0.00000000000E+00  0.93800000000E+00  0.93800000000E+00 0. -1.
         11    1    1    2    0    0 -0.50618901662E-01 -0.17707473800E+00  0.11191351158E+01  0.11341875527E+01  0.51100000000E-03 0.  1.
    9000002    1    1    2    0    0  0.16012585121E+00  0.62242427932E+00  0.29106424128E+00  0.11737183070E+01  0.93800000000E+00 0. -1.
         22    1    1    2    0    0 -0.10950694955E+00 -0.44534954132E+00  0.25898006102E+01  0.26300941403E+01  0.00000000000E+00 0.  1.
</event>
<event>
 5    1  0.6440325E+001  0.1592701E+01  0.7818608E-02  0.3361323E+00
         11   -1    0    0    0    0  0.00000000000E+00  0.00000000000E+00  0.39999999674E+01  0.40000000000E+01  0.51100000000E-03 0. -1.
    9000002   -1    0    0    0    0 -0.00000000000E+00 -0.00000000000E+00  0.00000000000E+00  0.93800000000E+00  0.93800000000E+00 0. -1.
         11    1    1    2    0    0 -0.10398090669E+00  0.90198535560E-02  0.53988005545E+00  0.54987646076E+00  0.51100000000E-03 0. -1.
    9000002    1    1    2    0    0  0.37679682632E+00  0.27693132700E+00  0.15504712727E+00  0.10595047994E+01  0.93800000000E+00 0. -1.
         22    1    1    2    0    0 -0.27281591963E+00 -0.28595118055E+00  0.33050727846E+01  0.33286187399E+01  0.00000000000E+00 0. -1.
</event>
<event>
 5    1  0.6440325E+001  0.1599421E+01  0.7818608E-02  0.3353992E+00
         11   -1    0    0    0    0  0.00000000000E+00  0.00000000000E+00  0.39999999674E+01  0.40000000000E+01  0.51100000000E-03 0. -1.
    9000002   -1    0    0    0    0 -0.00000000000E+00 -0.00000000000E+00  0.00000000000E+00  0.93800000000E+00  0.93800000000E+00 0. -1.
         11    1    1    2    0    0 -0.93470754171E-02 -0.12497289890E+00  0.11048577352E+01  0.11119426557E+01  0.51100000000E-03 0. -1.
    9000002    1    1    2    0    0  0.57176652318E-01  0.48936453172E+00  0.16620134637E+00  0.10724801639E+01  0.93800000000E+00 0. -1.
         22    1    1    2    0    0 -0.47829576901E-01 -0.36439163281E+00  0.27289408858E+01  0.27535771804E+01  0.00000000000E+00 0. -1.
</event>
<event>
 5    1  0.6440325E+001  0.1574459E+01  0.7818608E-02  0.3381560E+00
         11   -1    0    0    0    0  0.00000000000E+00  0.00000000000E+00  0.39999999674E+01  0.40000000000E+01  0.51100000000E-03 0. -1.
    9000002   -1    0    0    0    0 -0.00000000000E+00 -0.00000000000E+00  0.00000000000E+00  0.93800000000E+00  0.93800000000E+00 0. -1.
         11    1    1    2    0    0  0.43746899155E-01 -0.82978836229E-01  0.40359082721E+00  0.41434900190E+00  0.51100000000E-03 0. -1.
    9000002    1    1    2    0    0  0.43022196989E+00  0.62030800185E-01  0.14988754396E+00  0.10446286610E+01  0.93800000000E+00 0. -1.
         22    1    1    2    0    0 -0.47396886904E+00  0.20948036044E-01  0.34465215962E+01  0.34790223371E+01  0.00000000000E+00 0. -1.
</event>
<event>
 5    1  0.6440325E+001  0.1599654E+01  0.7818608E-02  0.3353739E+00
         11   -1    0    0    0    0  0.00000000000E+00  0.00000000000E+00  0.39999999674E+01  0.40000000000E+01  0.51100000000E-03 0. -1.
    9000002   -1    0    0    0    0 -0.00000000000E+00 -0.00000000000E+00  0.00000000000E+00  0.93800000000E+00  0.93800000000E+00 0.  1.
         11    1    1    2    0    0 -0.45704389333E-02  0.14062162127E+00  0.12132504943E+01  0.12213813296E+01  0.51100000000E-03 0. -1.
    9000002    1    1    2    0    0  0.26937420155E-01 -0.45859653984E+00  0.14355347237E+00  0.10542713173E+01  0.93800000000E+00 0.  1.
         22    1    1    2    0    0 -0.22366981221E-01  0.31797491857E+00  0.26431960007E+01  0.26623473531E+01  0.00000000000E+00 0. -1.
</event>
<event>
 5    1  0.6440325E+001  0.1576594E+01  0.7818608E-02  0.3379166E+00
         11   -1    0    0    0    0  0.00000000000E+00  0.00000000000E+00  0.39999999674E+01  0.40000000000E+01  0.51100000000E-03 0.  1.
    9000002   -1    0    0    0    0 -0.00000000000E+00 -0.00000000000E+00  0.00000000000E+00  0.93800000000E+00  0.93800000000E+00 0. -1.
         11    1    1    2    0    0  0.26917970971E+00 -0.21413679219E-01  0.74937287070E+00  0.79654015733E+00  0.51100000000E-03 0.  1.
    9000002    1    1    2    0    0 -0.64501064512E+00 -0.20631270797E+00  0.35137758720E+00  0.12090963049E+01  0.93800000000E+00 0. -1.
         22    1    1    2    0    0  0.37583093541E+00  0.22772638718E+00  0.28992495095E+01  0.29323635378E+01  0.00000000000E+00 0.  1.
</event>
<event>
 5    1  0.9536878E+001  0.1518235E+01  0.7818608E-02  0.3447188E+00
         11   -1    0    0    0    0  0.00000000000E+00  0.00000000000E+00  0.39999999674E+01  0.40000000000E+01  0.51100000000E-03 0.  1.
    9000002   -1    0    0    0    0 -0.00000000000E+00 -0.00000000000E+00  0.00000000000E+00  0.93800000000E+00  0.93800000000E+00 0. -1.
         11    1    1    2    0    0 -0.13987846810E+00  0.61208380228E-01  0.21455476220E+00  0.26333715794E+00  0.51100000000E-03 0.  1.
    9000002    1    1    2    0    0 -0.18309653559E+00  0.39063081415E-01  0.86625843701E-01  0.96041569254E+00  0.93800000000E+00 0. -1.
         22    1    1    2    0    0  0.32297500369E+00 -0.10027146164E+00  0.36988193615E+01  0.37142471495E+01  0.00000000000E+00 0.  1.
</event>
<event>
 5    1  0.6440325E+001  0.1593526E+01  0.7818608E-02  0.3360420E+00
         11   -1    0    0    0    0  0.00000000000E+00  0.00000000000E+00  0.39999999674E+01  0.40000000000E+01  0.51100000000E-03 0. -1.
    9000002   -1    0    0    0    0 -0.00000000000E+00 -0.00000000000E+00  0.00000000000E+00  0.93800000000E+00  0.93800000000E+00 0.  1.
         11    1    1    2    0    0  0.24954817912E-02  0.28470228026E-01  0.43961903843E+00  0.44054732026E+00  0.51100000000E-03 0. -1.
    9000002    1    1    2    0    0 -0.39475233845E+00  0.12306764049E+00  0.12071522940E+00  0.10321779011E+01  0.93800000000E+00 0.  1.
         22    1    1    2    0    0  0.39225685666E+00 -0.15153786851E+00  0.34396656995E+01  0.34652747787E+01  0.00000000000E+00 0. -1.
</event>
<event>
 5    1  0.6440325E+001  0.1599273E+01  0.7818608E-02  0.3354153E+00
         11   -1    0    0    0    0  0.00000000000E+00  0.00000000000E+00  0.39999999674E+01  0.40000000000E+01  0.51100000000E-03 0. -1.
    9000002   -1    0    0    0    0 -0.00000000000E+00 -0.00000000000E+00  0.00000000000E+00  0.93800000000E+00  0.93800000000E+00 0.  1.
         11    1    1    2    0    0  0.31788288583E-01  0.11326677247E+00  0.11658239021E+01  0.11717446347E+01  0.51100000000E-03 0. -1.
    9000002    1    1    2    0    0 -0.10158034820E+00 -0.44843669348E+00  0.14415111917E+00  0.10545319248E+01  0.93800000000E+00 0.  1.
         22    1    1    2    0    0  0.69792059616E-01  0.33516992101E+00  0.26900249461E+01  0.27117234405E+01  0.00000000000E+00 0. -1.
</event>
<event>
 5    1  0.6440325E+001  0.1599677E+01  0.7818608E-02  0.3353714E+00
         11   -1    0    0    0    0  0.00000000000E+00  0.00000000000E+00  0.39999999674E+01  0.40000000000E+01  0.51100000000E-03 0. -1.
    9000002   -1    0    0    0    0 -0.00000000000E+00 -0.00000000000E+00  0.00000000000E+00  0.93800000000E+00  0.93800000000E+00 0. -1.
         11    1    1    2    0    0  0.64391765644E-01 -0.44119671895E-01  0.81265397879E+00  0.81639426461E+00  0.51100000000E-03 0.  1.
    9000002    1    1    2    0    0 -0.30856936532E+00  0.21241975010E+00  0.94363622174E-01  0.10144386116E+01  0.93800000000E+00 0. -1.
         22    1    1    2    0    0  0.24417759967E+00 -0.16830007821E+00  0.30929823664E+01  0.31071671238E+01  0.00000000000E+00 0. -1.
</event>
<event>
 5    1  0.6440325E+001  0.1599674E+01  0.7818608E-02  0.3353717E+00
         11   -1    0    0    0    0  0.00000000000E+00  0.00000000000E+00  0.39999999674E+01  0.40000000000E+01  0.51100000000E-03 0.  1.
    9000002   -1    0    0    0    0 -0.00000000000E+00 -0.00000000000E+00  0.00000000000E+00  0.93800000000E+00  0.93800000000E+00 0. -1.
         11    1    1    2    0    0  0.62552770854E-01  0.68040234239E-01  0.89020859716E+00  0.89499381573E+00  0.51100000000E-03 0.  1.
    9000002    1    1    2    0    0 -0.26767724836E+00 -0.29344007837E+00  0.10637507089E+00  0.10241669027E+01  0.93800000000E+00 0. -1.
         22    1    1    2    0    0  0.20512447750E+00  0.22539984413E+00  0.30034162993E+01  0.30188392816E+01  0.00000000000E+00 0.  1.
</event>
<event>
 5    1  0.6440325E+001  0.1599676E+01  0.7818608E-02  0.3353715E+00
         11   -1    0    0    0    0  0.00000000000E+00  0.00000000000E+00  0.39999999674E+01  0.40000000000E+01  0.51100000000E-03 0.  1.
    9000002   -1    0    0    0    0 -0.00000000000E+00 -0.00000000000E+00  0.00000000000E+00  0.93800000000E+00  0.93800000000E+00 0. -1.
         11    1    1    2    0    0 -0.38106348151E-01  0.86468235468E-01  0.99934295703E+00  0.10038005063E+01  0.51100000000E-03 0.  1.
    9000002    1    1    2    0    0  0.14963102968E+00 -0.33369074671E+00  0.89833805852E-01  0.10107685552E+01  0.93800000000E+00 0. -1.
         22    1    1    2    0    0 -0.11152468153E+00  0.24722251124E+00  0.29108232045E+01  0.29234309385E+01  0.00000000000E+00 0.  1.
</event>
<event>
 5    1  0.6440325E+001  0.1598224E+01  0.7818608E-02  0.3355294E+00
         11   -1    0    0    0    0  0.00000000000E+00  0.00000000000E+00  0.39999999674E+01  0.40000000000E+01  0.51100000000E-03 0. -1.
    9000002   -1    0    0    0    0 -0.00000000000E+00 -0.00000000000E+00  0.00000000000E+00  0.93800000000E+00  0.93800000000E+00 0.  1.
         11    1    1    2    0    0 -0.51479581610E-01 -0.68313612308E-01  0.85224940814E+00  0.85653150073E+00  0.51100000000E-03 0. -1.
    9000002    1    1    2    0    0  0.37074969052E+00  0.20471532405E+00  0.12259362583E+00  0.10364540000E+01  0.93800000000E+00 0.  1.
         22    1    1    2    0    0 -0.31927010891E+00 -0.13640171174E+00  0.30251569334E+01  0.30450144993E+01  0.00000000000E+00 0. -1.
</event>
<event>
 5    1  0.6440325E+001  0.1599676E+01  0.7818608E-02  0.3353715E+00
         11   -1    0    0    0    0  0.00000000000E+00  0.00000000000E+00  0.39999999674E+01  0.40000000000E+01  0.51100000000E-03 0.  1.
    9000002   -1    0    0    0    0 -0.00000000000E+00 -0.00000000000E+00  0.00000000000E+00  0.93800000000E+00  0.93800000000E+00 0. -1.
         11    1    1    2    0    0  0.12457276562E+00 -0.23864581761E-01  0.13649163236E+01  0.13707971126E+01  0.51100000000E-03 0.  1.
    9000002    1    1    2    0    0 -0.35783550533E+00  0.71802387926E-01  0.89465271506E-01  0.10104701216E+01  0.93800000000E+00 0. -1.
         22    1    1    2    0    0  0.23326273972E+00 -0.47937806164E-01  0.25456183722E+01  0.25567327659E+01  0.00000000000E+00 0.  1.
</event>
<event>
 5    1  0.6440325E+001  0.1599634E+01  0.7818608E-02  0.3353761E+00
         11   -1    0    0    0    0  0.00000000000E+00  0.00000000000E+00  0.39999999674E+01  0.40000000000E+01  0.51100000000E-03 0. -1.
    9000002   -1    0    0    0    0 -0.00000000000E+00 -0.00000000000E+00  0.00000000000E+00  0.93800000000E+00  0.93800000000E+00 0. -1.
         11    1    1    2    0    0 -0.65832711190E-01  0.79691949211E-01  0.11173905986E+01  0.11221616477E+01  0.51100000000E-03 0. -1.
    9000002    1    1    2    0    0  0.25360133015E+00 -0.27013528950E+00  0.92302566276E-01  0.10127440313E+01  0.93800000000E+00 0. -1.
         22    1    1    2    0    0 -0.18776861896E+00  0.19044334028E+00  0.27903068025E+01  0.28030943209E+01  0.00000000000E+00 0. -1.
</event>
<event>
 5    1  0.6440325E+001  0.1597354E+01  0.7818608E-02  0.3356240E+00
         11   -1    0    0    0    0  0.00000000000E+00  0.00000000000E+00  0.39999999674E+01  0.40000000000E+01  0.51100000000E-03 0.  1.
    9000002   -1    0    0    0    0 -0.00000000000E+00 -0.00000000000E+00  0.00000000000E+00  0.93800000000E+00  0.93800000000E+00 0. -1.
         11    1    1    2    0    0  0.21353462545E+00 -0.10161560464E+00  0.12683921988E+01  0.12902487351E+01  0.51100000000E-03 0.  1.
    9000002    1    1    2    0    0 -0.73511810506E+00  0.20217057333E+00  0.42583141393E+00  0.12815802598E+01  0.93800000000E+00 0. -1.
         22    1    1    2    0    0  0.52158347961E+00 -0.10055496869E+00  0.23057763547E+01  0.23661710052E+01  0.00000000000E+00 0.  1.
</event>
<event>
 5    1  0.6591421E+001  0.1597208E+01  0.7818608E-02  0.3356400E+00
         11   -1    0    0    0    0  0.00000000000E+00  0.00000000000E+00  0.39999999674E+01  0.40000000000E+01  0.51100000000E-03 0. -1.
    9000002   -1    0    0    0    0 -0.00000000000E+00 -0.00000000000E+00  0.00000000000E+00  0.93800000000E+00  0.93800000000E+00 0.  1.
         11    1    1    2    0    0  0.66203455656E-01  0.52838053946E-01  0.12159568415E+01  0.12189036299E+01  0.51100000000E-03 0. -1.
    9000002    1    1    2    0    0 -0.31650163123E+00 -0.24359575222E-01  0.69288722338E-01  0.99267900074E+00  0.93800000000E+00 0.  1.
         22    1    1    2    0    0  0.25029817557E+00 -0.28478478724E-01  0.27147544035E+01  0.27264173694E+01  0.00000000000E+00 0. -1.
</event>
<event>
 5    1  0.6440325E+001  0.1594896E+01  0.7818608E-02  0.3358922E+00
         11   -1    0    0    0    0  0.00000000000E+00  0.00000000000E+00  0.39999999674E+01  0.40000000000E+01  0.51100000000E-03 0. -1.
    9000002   -1    0    0    0    0 -0.00000000000E+00 -0.00000000000E+00  0.00000000000E+00  0.93800000000E+00  0.93800000000E+00 0.  1.
         11    1    1    2    0    0 -0.16290215048E+00  0.16156981019E+00  0.14787701993E+01  0.14964636573E+01  0.51100000000E-03 0. -1.
    9000002    1    1    2    0    0  0.22403931967E+00 -0.49038958896E+00  0.20484061093E+00  0.11011263513E+01  0.93800000000E+00 0.  1.
         22    1    1    2    0    0 -0.61137169183E-01  0.32881977877E+00  0.23163891572E+01  0.23404099914E+01  0.00000000000E+00 0. -1.
</event>
<event>
 5    1  0.6440325E+001  0.1599672E+01  0.7818608E-02  0.3353719E+00
         11   -1    0    0    0    0  0.00000000000E+00  0.00000000000E+00  0.39999999674E+01  0.40000000000E+01  0.51100000000E-03 0.  1.
    9000002   -1    0    0    0    0 -0.00000000000E+00 -0.00000000000E+00  0.00000000000E+00  0.93800000000E+00  0.93800000000E+00 0. -1.
         11    1    1    2    0    0 -0.53436252770E-01  0.11328822126E+00  0.12116059481E+01  0.12180635816E+01  0.51100000000E-03 0.  1.
    9000002    1    1    2    0    0  0.16750555157E+00 -0.37024853898E+00  0.11148764570E+00  0.10283071455E+01  0.93800000000E+00 0. -1.
         22    1    1    2    0    0 -0.11406929880E+00  0.25696031772E+00  0.26769063736E+01  0.26916292729E+01  0.00000000000E+00 0.  1.
</event>
<event>
 5    1  0.6440325E+001  0.1571343E+01  0.7818608E-02  0.3385067E+00
         11   -1    0    0    0    0  0.00000000000E+00  0.00000000000E+00  0.39999999674E+01  0.40000000000E+01  0.51100000000E-03 0. -1.
    9000002   -1    0    0    0    0 -0.00000000000E+00 -0.00000000000E+00  0.00000000000E+00  0.93800000000E+00  0.93800000000E+00 0.  1.
         11    1    1    2    0    0 -0.10829289561E+00 -0.46458409440E-01  0.80534100453E+00  0.81391653734E+00  0.51100000000E-03 0. -1.
    9000002    1    1    2    0    0 -0.25869801074E+00  0.95540674887E-01  0.72867289292E-01  0.98041130306E+00  0.93800000000E+00 0.  1.
         22    1    1    2    0    0  0.36699090635E+00 -0.49082265447E-01  0.31217916735E+01  0.31436721596E+01  0.00000000000E+00 0. -1.
</event>
<event>
 5    1  0.1034424E+002  0.1557597E+01  0.7818608E-02  0.3400712E+00
         11   -1    0    0    0    0  0.00000000000E+00  0.00000000000E+00  0.39999999674E+01  0.40000000000E+01  0.51100000000E-03 0.  1.
    9000002   -1    0    0    0    0 -0.00000000000E+00 -0.00000000000E+00  0.00000000000E+00  0.93800000000E+00  0.93800000000E+00 0.  1.
         11    1    1    2    0    0  0.93050157311E-01  0.16392355468E+00  0.92901747762E+00  0.94794672762E+00  0.51100000000E-03 0.  1.
    9000002    1    1    2    0    0  0.43977692265E-01  0.77776362940E-01  0.36578256751E-01  0.94295554981E+00  0.93800000000E+00 0.  1.
         22    1    1    2    0    0 -0.13702784958E+00 -0.24169991762E+00  0.30344042330E+01  0.30470977226E+01  0.00000000000E+00 0.  1.
</event>
<event>
 5    1  0.6440325E+001  0.1598600E+01  0.7818608E-02  0.3354884E+00
         11   -1    0    0    0    0  0.00000000000E+00  0.00000000000E+00  0.39999999674E+01  0.40000000000E+01  0.51100000000E-03 0. -1.
    9000002   -1    0    0    0    0 -0.00000000000E+00 -0.00000000000E+00  0.00000000000E+00  0.93800000000E+00  0.93800000000E+00 0.  1.
         11    1    1    2    0    0  0.20996181022E-02  0.59093184718E-01  0.47695670259E+00  0.48060833341E+00  0.51100000000E-03 0. -1.
    9000002    1    1    2    0    0 -0.20326781428E+00 -0.38114225456E+00  0.12731605822E+00  0.10405001688E+01  0.93800000000E+00 0.  1.
         22    1    1    2    0    0  0.20116819617E+00  0.32204906985E+00  0.33957272065E+01  0.34168914978E+01  0.00000000000E+00 0. -1.
</event>
<event>
 5    1  0.6440325E+001  0.1599645E+01  0.7818608E-02  0.3353748E+00
         11   -1    0    0    0    0  0.00000000000E+00  0.00000000000E+00  0.39999999674E+01  0.40000000000E+01  0.51100000000E-03 0.  1.
    9000002   -1    0    0    0    0 -0.00000000000E+00 -0.00000000000E+00  0.00000000000E+00  0.93800000000E+00  0.93800000000E+00 0. -1.
         11    1    1    2    0    0  0.13428512989E-01 -0.25929108216E-01  0.25629654052E+00  0.25795507635E+00  0.51100000000E-03 0.  1.
    9000002    1    1    2    0    0 -0.15814159848E+00  0.37171591718E+00  0.11015173650E+00  0.10272092743E+01  0.93800000000E+00 0. -1.
         22    1    1    2    0    0  0.14471308550E+00 -0.34578680897E+00  0.36335516903E+01  0.36528356493E+01  0.00000000000E+00 0.  1.
</event>
<event>
 5    1  0.6440325E+001  0.1599625E+01  0.7818608E-02  0.3353770E+00
         11   -1    0    0    0    0  0.00000000000E+00  0.00000000000E+00  0.39999999674E+01  0.40000000000E+01  0.51100000000E-03 0.  1.
    9000002   -1    0    0    0    0 -0.00000000000E+00 -0.00000000000E+00  0.00000000000E+00  0.93800000000E+00  0.93800000000E+00 0. -1.
         11    1    1    2    0    0  0.92148525791E-01 -0.52445316718E-01  0.10782130701E+01  0.10834138395E+01  0.51100000000E-03 0.  1.
    9000002    1    1    2    0    0 -0.35846153917E+00  0.19896124830E+00  0.11356437067E+00  0.10299617079E+01  0.93800000000E+00 0. -1.
         22    1    1    2    0    0  0.26631301338E+00 -0.14651593158E+00  0.28082225266E+01  0.28246244526E+01  0.00000000000E+00 0.  1.
</event>
<event>
 5    1  0.6440325E+001  0.1599676E+01  0.7818608E-02  0.3353715E+00
         11   -1    0    0    0    0  0.00000000000E+00  0.00000000000E+00  0.39999999674E+01  0.40000000000E+01  0.51100000000E-03 0.  1.
    9000002   -1    0    0    0    0 -0.00000000000E+00 -0.00000000000E+00  0.00000000000E+00  0.93800000000E+00  0.93800000000E+00 0.  1.
         11    1    1    2    0    0  0.13607024398E+00  0.27493522994E-01  0.99947358451E+00  0.10090682397E+01  0.51100000000E-03 0.  1.
    9000002    1    1    2    0    0 -0.51851501558E+00 -0.10044672581E+00  0.19189355666E+00  0.10934415866E+01  0.93800000000E+00 0.  1.
         22    1    1    2    0    0  0.38244477161E+00  0.72953202813E-01  0.28086328262E+01  0.28354901738E+01  0.00000000000E+00 0.  1.
</event>
<event>
 5    1  0.6440325E+001  0.1599217E+01  0.7818608E-02  0.3354213E+00
         11   -1    0    0    0    0  0.00000000000E+00  0.00000000000E+00  0.39999999674E+01  0.40000000000E+01  0.51100000000E-03 0. -1.
    9000002   -1    0    0    0    0 -0.00000000000E+00 -0.00000000000E+00  0.00000000000E+00  0.93800000000E+00  0.93800000000E+00 0.  1.
         11    1    1    2    0    0  0.19332802773E+00 -0.71071889942E-01  0.11470105206E+01  0.11653584579E+01  0.51100000000E-03 0. -1.
    9000002    1    1    2    0    0 -0.61030448209E+00  0.15488257198E+00  0.27890289331E+00  0.11636541565E+01  0.93800000000E+00 0.  1.
         22    1    1    2    0    0  0.41697645435E+00 -0.83810682034E-01  0.25740865534E+01  0.26089873856E+01  0.00000000000E+00 0. -1.
</event>
<event>
 5    1  0.6440325E+001  0.1526118E+01  0.7818608E-02  0.3437675E+00
         11   -1    0    0    0    0  0.00000000000E+00  0.00000000000E+00  0.39999999674E+01  0.40000000000E+01  0.51100000000E-03 0.  1.
    9000002   -1    0    0    0    0 -0.00000000000E+00 -0.00000000000E+00  0.00000000000E+00  0.93800000000E+00  0.93800000000E+00 0. -1.
         11    1    1    2    0    0 -0.23580113470E-01  0.82813442815E-01  0.51656527510E+00  0.52369268911E+00  0.51100000000E-03 0.  1.
    9000002    1    1    2    0    0 -0.77425059767E+00  0.64178280997E+00  0.97980406194E+00  0.16885523868E+01  0.93800000000E+00 0. -1.
         22    1    1    2    0    0  0.79783071114E+00 -0.72459625278E+00  0.25036306303E+01  0.27257549241E+01  0.00000000000E+00 0.  1.
</event>
<event>
 5    1  0.6440325E+001  0.1599676E+01  0.7818608E-02  0.3353715E+00
         11   -1    0    0    0    0  0.00000000000E+00  0.00000000000E+00  0.39999999674E+01  0.40000000000E+01  0.51100000000E-03 0. -1.
    9000002   -1    0    0    0    0 -0.00000000000E+00 -0.00000000000E+00  0.00000000000E+00  0.93800000000E+00  0.93800000000E+00 0.  1.
         11    1    1    2    0    0  0.99721382927E-01 -0.25349440207E+00  0.13869218335E+01  0.14134200364E+01  0.51100000000E-03 0. -1.
    9000002    1    1    2    0    0 -0.26019270882E+00  0.66692095406E+00  0.36785723596E+00  0.12359800770E+01  0.93800000000E+00 0.  1.
         22    1    1    2    0    0  0.16047132590E+00 -0.41342655199E+00  0.22452208979E+01  0.22885998866E+01  0.00000000000E+00 0.  1.
</event>
<event>
 5    1  0.6440325E+001  0.1598657E+01  0.7818608E-02  0.3354822E+00
         11   -1    0    0    0    0  0.00000000000E+00  0.00000000000E+00  0.39999999674E+01  0.40000000000E+01  0.51100000000E-03 0.  1.
    9000002   -1    0    0    0    0 -0.00000000000E+00 -0.00000000000E+00  0.00000000000E+00  0.93800000000E+00  0.93800000000E+00 0.  1.
         11    1    1    2    0    0  0.76682261242E-01 -0.34687056466E-01  0.42885489981E+00  0.43703563618E+00  0.51100000000E-03 0.  1.
    9000002    1    1    2    0    0 -0.55895760356E+00  0.12209063068E+00  0.22805685094E+00  0.11221379826E+01  0.93800000000E+00 0.  1.
         22    1    1    2    0    0  0.48227534232E+00 -0.87403574210E-01  0.33430882166E+01  0.33788263813E+01  0.00000000000E+00 0.  1.
</event>
<event>
 5    1  0.6440325E+001  0.1599642E+01  0.7818608E-02  0.3353752E+00
         11   -1    0    0    0    0  0.00000000000E+00  0.00000000000E+00  0.39999999674E+01  0.40000000000E+01  0.51100000000E-03 0.  1.
    9000002   -1    0    0    0    0 -0.00000000000E+00 -0.00000000000E+00  0.00000000000E+00  0.93800000000E+00  0.93800000000E+00 0. -1.
         11    1    1    2    0    0 -0.18267378973E-01 -0.13645620871E+00  0.11274242118E+01  0.11357991057E+01  0.51100000000E-03 0.  1.
    9000002    1    1    2    0    0  0.75438765198E-01  0.44894603051E+00  0.14089656846E+00  0.10521118708E+01  0.93800000000E+00 0. -1.
         22    1    1    2    0    0 -0.57171386225E-01 -0.31248982180E+00  0.27316791871E+01  0.27500890235E+01  0.00000000000E+00 0.  1.
</event>
<event>
 5    1  0.6440325E+001  0.1557177E+01  0.7818608E-02  0.3401196E+00
         11   -1    0    0    0    0  0.00000000000E+00  0.00000000000E+00  0.39999999674E+01  0.40000000000E+01  0.51100000000E-03 0.  1.
    9000002   -1    0    0    0    0 -0.00000000000E+00 -0.00000000000E+00  0.00000000000E+00  0.93800000000E+00  0.93800000000E+00 0.  1.
         11    1    1    2    0    0 -0.73406791885E-01  0.12549489195E-01  0.50951490975E-01  0.90235039355E-01  0.51100000000E-03 0.  1.
    9000002    1    1    2    0    0  0.45115799681E+00  0.59766156699E-01  0.17861185142E+00  0.10577626033E+01  0.93800000000E+00 0.  1.
         22    1    1    2    0    0 -0.37775120493E+00 -0.72315645894E-01  0.37704366250E+01  0.37900023573E+01  0.00000000000E+00 0.  1.
</event>
<event>
 5    1  0.6440325E+001  0.1599676E+01  0.7818608E-02  0.3353715E+00
         11   -1    0    0    0    0  0.00000000000E+00  0.00000000000E+00  0.39999999674E+01  0.40000000000E+01  0.51100000000E-03 0.  1.
    9000002   -1    0    0    0    0 -0.00000000000E+00 -0.00000000000E+00  0.00000000000E+00  0.93800000000E+00  0.93800000000E+00 0. -1.
         11    1    1    2    0    0  0.47130635321E-01  0.29870893301E-01  0.53077265925E+00  0.53369789580E+00  0.51100000000E-03 0.  1.
    9000002    1    1    2    0    0 -0.34124950465E+00 -0.21455277288E+00  0.10964351037E+00  0.10268153759E+01  0.93800000000E+00 0. -1.
         22    1    1    2    0    0  0.29411886933E+00  0.18468187958E+00  0.33595837977E+01  0.33774867283E+01  0.00000000000E+00 0.  1.
</event>
<event>
 5    1  0.6440325E+001  0.1599654E+01  0.7818608E-02  0.3353739E+00
         11   -1    0    0    0    0  0.00000000000E+00  0.00000000000E+00  0.39999999674E+01  0.40000000000E+01  0.51100000000E-03 0.  1.
    9000002   -1    0    0    0    0 -0.00000000000E+00 -0.00000000000E+00  0.00000000000E+00  0.93800000000E+00  0.93800000000E+00 0. -1.
         11    1    1    2    0    0 -0.91599882179E-01  0.23409061860E+00  0.13117184345E+01  0.13355876866E+01  0.51100000000E-03 0.  1.
    9000002    1    1    2    0    0  0.25399508113E+00 -0.63831645999E+00  0.33616333002E+00  0.12102938440E+01  0.93800000000E+00 0. -1.
         22    1    1    2    0    0 -0.16239519895E+00  0.40422584139E+00  0.23521182028E+01  0.23921184694E+01  0.00000000000E+00 0.  1.
</event>
<event>
 5    1  0.6440325E+001  0.1483986E+01  0.7818608E-02  0.3489782E+00
         11   -1    0    0    0    0  0.00000000000E+00  0.00000000000E+00  0.39999999674E+01  0.40000000000E+01  0.51100000000E-03 0.  1.
    9000002   -1    0    0    0    0 -0.00000000000E+00 -0.00000000000E+00  0.00000000000E+00  0.93800000000E+00  0.93800000000E+00 0.  1.
         11    1    1    2    0    0 -0.17482678359E+00  0.10419530263E+00  0.25157007217E+00  0.32358743437E+00  0.51100000000E-03 0.  1.
    9000002    1    1    2    0    0 -0.92737721298E-01  0.94292993136E-01  0.10195284848E+00  0.95274856957E+00  0.93800000000E+00 0.  1.
         22    1    1    2    0    0  0.26756450489E+00 -0.19848829576E+00  0.36464770467E+01  0.36616639961E+01  0.00000000000E+00 0.  1.
</event>
<event>
 5    1  0.6440325E+001  0.1599540E+01  0.7818608E-02  0.3353863E+00
         11   -1    0    0    0    0  0.00000000000E+00  0.00000000000E+00  0.39999999674E+01  0.40000000000E+01  0.51100000000E-03 0.  1.
    9000002   -1    0    0    0    0 -0.00000000000E+00 -0.00000000000E+00  0.00000000000E+00  0.93800000000E+00  0.93800000000E+00 0.  1.
         11    1    1    2    0    0 -0.40819721129E-01 -0.85462657985E-01  0.60358193326E+00  0.61096769703E+00  0.51100000000E-03 0.  1.
    9000002    1    1    2    0    0  0.22109386306E+00  0.48413356035E+00  0.19513544954E+00  0.10959879763E+01  0.93800000000E+00 0.  1.
         22    1    1    2    0    0 -0.18027414193E+00 -0.39867090236E+00  0.32012825846E+01  0.32310443267E+01  0.00000000000E+00 0.  1.
</event>
<event>
 5    1  0.6440325E+001  0.1599642E+01  0.7818608E-02  0.3353752E+00
         11   -1    0    0    0    0  0.00000000000E+00  0.00000000000E+00  0.39999999674E+01  0.40000000000E+01  0.51100000000E-03 0. -1.
    9000002   -1    0    0    0    0 -0.00000000000E+00 -0.00000000000E+00  0.00000000000E+00  0.93800000000E+00  0.93800000000E+00 0. -1.
         11    1    1    2    0    0 -0.10055774920E+00  0.35057273407E-01  0.10486830043E+01  0.10540764574E+01  0.51100000000E-03 0. -1.
    9000002    1    1    2    0    0  0.35503240554E+00 -0.14404603953E+00  0.98837438734E-01  0.10180422927E+01  0.93800000000E+00 0. -1.
         22    1    1    2    0    0 -0.25447465634E+00  0.10898876612E+00  0.28524795243E+01  0.28658812499E+01  0.00000000000E+00 0. -1.
</event>
<event>
 5    1  0.6440325E+001  0.1599313E+01  0.7818608E-02  0.3354110E+00
         11   -1    0    0    0    0  0.00000000000E+00  0.00000000000E+00  0.39999999674E+01  0.40000000000E+01  0.51100000000E-03 0.  1.
    9000002   -1    0    0    0    0 -0.00000000000E+00 -0.00000000000E+00  0.00000000000E+00  0.93800000000E+00  0.93800000000E+00 0. -1.
         11    1    1    2    0    0 -0.87723159415E-01  0.83005742571E-01  0.87684167694E+00  0.88511970577E+00  0.51100000000E-03 0.  1.
    9000002    1    1    2    0    0  0.43084784698E+00 -0.29296361402E+00  0.18683671470E+00  0.10891324549E+01  0.93800000000E+00 0. -1.
         22    1    1    2    0    0 -0.34312468757E+00  0.20995787145E+00  0.29363215757E+01  0.29637478393E+01  0.00000000000E+00 0.  1.
</event>
<event>
 5    1  0.6440325E+001  0.1599670E+01  0.7818608E-02  0.3353722E+00
         11   -1    0    0    0    0  0.00000000000E+00  0.00000000000E+00  0.39999999674E+01  0.40000000000E+01  0.51100000000E-03 0.  1.
    9000002   -1    0    0    0    0 -0.00000000000E+00 -0.00000000000E+00  0.00000000000E+00  0.93800000000E+00  0.93800000000E+00 0. -1.
         11    1    1    2    0    0 -0.13827574017E+00 -0.25306426441E+00  0.13099190889E+01  0.13412866893E+01  0.51100000000E-03 0.  1.
    9000002    1    1    2    0    0  0.37145311848E+00  0.69314847505E+00  0.45349783141E+00  0.13053491911E+01  0.93800000000E+00 0. -1.
         22    1    1    2    0    0 -0.23317737831E+00 -0.44008421064E+00  0.22365830470E+01  0.22913641196E+01  0.00000000000E+00 0.  1.
</event>
<event>
 5    1  0.6440325E+001  0.1599675E+01  0.7818608E-02  0.3353716E+00
         11   -1    0    0    0    0  0.00000000000E+00  0.00000000000E+00  0.39999999674E+01  0.40000000000E+01  0.51100000000E-03 0.  1.
    9000002   -1    0    0    0    0 -0.00000000000E+00 -0.00000000000E+00  0.00000000000E+00  0.93800000000E+00  0.93800000000E+00 0. -1.
         11    1    1    2    0    0 -0.43833555331E-02 -0.11606790517E+00  0.11337496174E+01  0.11396839161E+01  0.51100000000E-03 0.  1.
    9000002    1    1    2    0    0  0.11095312335E-01  0.40128532180E+00  0.10872249728E+00  0.10260690020E+01  0.93800000000E+00 0. -1.
         22    1    1    2    0    0 -0.67119568022E-02 -0.28521741663E+00  0.27575278527E+01  0.27722470819E+01  0.00000000000E+00 0.  1.
</event>
<event>
 5    1  0.6440325E+001  0.1599616E+01  0.7818608E-02  0.3353780E+00
         11   -1    0    0    0    0  0.00000000000E+00  0.00000000000E+00  0.39999999674E+01  0.40000000000E+01  0.51100000000E-03 0.  1.
    9000002   -1    0    0    0    0 -0.00000000000E+00 -0.00000000000E+00  0.00000000000E+00  0.93800000000E+00  0.93800000000E+00 0.  1.
         11    1    1    2    0    0  0.11501966164E-01 -0.50647170309E-01  0.57556764822E+00  0.57790640236E+00  0.51100000000E-03 0.  1.
    9000002    1    1    2    0    0 -0.12302458690E+00  0.33907589579E+00  0.87392575690E-01  0.10087561521E+01  0.93800000000E+00 0.  1.
         22    1    1    2    0    0  0.11152262074E+00 -0.28842872548E+00  0.33370397434E+01  0.33513374456E+01  0.00000000000E+00 0.  1.
</event>
<event>
 5    1  0.6440325E+001  0.1539697E+01  0.7818608E-02  0.3421533E+00
         11   -1    0    0    0    0  0.00000000000E+00  0.00000000000E+00  0.39999999674E+01  0.40000000000E+01  0.51100000000E-03 0.  1.
    9000002   -1    0    0    0    0 -0.00000000000E+00 -0.00000000000E+00  0.00000000000E+00  0.93800000000E+00  0.93800000000E+00 0. -1.
         11    1    1    2    0    0 -0.97221306469E-01 -0.12576146455E+00  0.17400148725E+00  0.23567924618E+00  0.51100000000E-03 0.  1.
    9000002    1    1    2    0    0  0.21588205691E+00  0.44937172397E+00  0.22621608252E+00  0.10860744564E+01  0.93800000000E+00 0. -1.
         22    1    1    2    0    0 -0.11866075044E+00 -0.32361025943E+00  0.35997823976E+01  0.36162462974E+01  0.00000000000E+00 0.  1.
</event>
<event>
 5    1  0.6440325E+001  0.1579667E+01  0.7818608E-02  0.3375732E+00
         11   -1    0    0    0    0  0.00000000000E+00  0.00000000000E+00  0.39999999674E+01  0.40000000000E+01  0.51100000000E-03 0. -1.
    9000002   -1    0    0    0    0 -0.00000000000E+00 -0.00000000000E+00  0.00000000000E+00  0.93800000000E+00  0.93800000000E+00 0.  1.
         11    1    1    2    0    0 -0.13275617375E+00 -0.43484485548E-01  0.54194864504E+00  0.55966391444E+00  0.51100000000E-03 0. -1.
    9000002    1    1    2    0    0  0.49053048250E+00 -0.41444215334E+00  0.31163253440E+00  0.11787032236E+01  0.93800000000E+00 0.  1.
         22    1    1    2    0    0 -0.35777430876E+00  0.45792663888E+00  0.31464187879E+01  0.31996328620E+01  0.00000000000E+00 0. -1.
</event>
<event>
 5    1  0.6440325E+001  0.1599677E+01  0.7818608E-02  0.3353714E+00
         11   -1    0    0    0    0  0.00000000000E+00  0.00000000000E+00  0.39999999674E+01  0.40000000000E+01  0.51100000000E-03 0. -1.
    9000002   -1    0    0    0    0 -0.00000000000E+00 -0.00000000000E+00  0.00000000000E+00  0.93800000000E+00  0.93800000000E+00 0. -1.
         11    1    1    2    0    0  0.29970909629E-01 -0.85332827901E-01  0.93828865917E+00  0.94263769074E+00  0.51100000000E-03 0.  1.
    9000002    1    1    2    0    0 -0.12279464331E+00  0.35463405409E+00  0.94712034144E-01  0.10147207528E+01  0.93800000000E+00 0. -1.
         22    1    1    2    0    0  0.92823733678E-01 -0.26930122619E+00  0.29669992740E+01  0.29806415565E+01  0.00000000000E+00 0. -1.
</event>
<event>
 5    1  0.6440325E+001  0.1599575E+01  0.7818608E-02  0.3353825E+00
         11   -1    0    0    0    0  0.00000000000E+00  0.00000000000E+00  0.39999999674E+01  0.40000000000E+01  0.51100000000E-03 0. -1.
    9000002   -1    0    0    0    0 -0.00000000000E+00 -0.00000000000E+00  0.00000000000E+00  0.93800000000E+00  0.93800000000E+00 0.  1.
         11    1    1    2    0    0  0.19668508110E+00 -0.11995257986E+00  0.13948586698E+01  0.14137554995E+01  0.51100000000E-03 0. -1.
    9000002    1    1    2    0    0 -0.49757821868E+00  0.32672959202E+00  0.24707218450E+00  0.11380795114E+01  0.93800000000E+00 0.  1.
         22    1    1    2    0    0  0.30089313759E+00 -0.20677701216E+00  0.23580691131E+01  0.23861649891E+01  0.00000000000E+00 0. -1.
</event>
<event>
 5    1  0.6440325E+001  0.1598425E+01  0.7818608E-02  0.3355075E+00
         11   -1    0    0    0    0  0.00000000000E+00  0.00000000000E+00  0.39999999674E+01  0.40000000000E+01  0.51100000000E-03 0.  1.
    9000002   -1    0    0    0    0 -0.00000000000E+00 -0.00000000000E+00  0.00000000000E+00  0.93800000000E+00  0.93800000000E+00 0.  1.
         11    1    1    2    0    0 -0.27912295248E-01 -0.94883388332E-01  0.95557227471E+00  0.96067715021E+00  0.51100000000E-03 0.  1.
    9000002    1    1    2    0    0 -0.35554589286E-01  0.38935998394E+00  0.10402904404E+00  0.10215338310E+01  0.93800000000E+00 0.  1.
         22    1    1    2    0    0  0.63466884535E-01 -0.29447659560E+00  0.29403986486E+01  0.29557890188E+01  0.00000000000E+00 0.  1.
</event>
<event>
 5    1  0.6440325E+001  0.1596565E+01  0.7818608E-02  0.3357100E+00
         11   -1    0    0    0    0  0.00000000000E+00  0.00000000000E+00  0.39999999674E+01  0.40000000000E+01  0.51100000000E-03 0. -1.
    9000002   -1    0    0    0    0 -0.00000000000E+00 -0.00000000000E+00  0.00000000000E+00  0.93800000000E+00  0.93800000000E+00 0. -1.
         11    1    1    2    0    0 -0.65504981943E-01 -0.47956605828E-01  0.24090111318E+00  0.25421319036E+00  0.51100000000E-03 0. -1.
    9000002    1    1    2    0    0  0.65986155525E+00  0.31433387088E+00  0.38874375515E+00  0.12510750424E+01  0.93800000000E+00 0. -1.
         22    1    1    2    0    0 -0.59435657330E+00 -0.26637726505E+00  0.33703550990E+01  0.34327117673E+01  0.00000000000E+00 0. -1.
</event>
<event>
 5    1  0.6440325E+001  0.1599311E+01  0.7818608E-02  0.3354112E+00
         11   -1    0    0    0    0  0.00000000000E+00  0.00000000000E+00  0.39999999674E+01  0.40000000000E+01  0.51100000000E-03 0.  1.
    9000002   -1    0    0    0    0 -0.00000000000E+00 -0.00000000000E+00  0.00000000000E+00  0.93800000000E+00  0.93800000000E+00 0. -1.
         11    1    1    2    0    0 -0.25802209536E-01 -0.13271697392E-01  0.19624321776E+00  0.19837730113E+00  0.51100000000E-03 0.  1.
    9000002    1    1    2    0    0  0.49199015462E+00  0.61205055020E-01  0.16847448083E+00  0.10742569626E+01  0.93800000000E+00 0. -1.
         22    1    1    2    0    0 -0.46618794509E+00 -0.47933357628E-01  0.36352822688E+01  0.36653657363E+01  0.00000000000E+00 0.  1.
</event>
<event>
 5    1  0.6440325E+001  0.1599668E+01  0.7818608E-02  0.3353724E+00
         11   -1    0    0    0    0  0.00000000000E+00  0.00000000000E+00  0.39999999674E+01  0.40000000000E+01  0.51100000000E-03 0.  1.
    9000002   -1    0    0    0    0 -0.00000000000E+00 -0.00000000000E+00  0.00000000000E+00  0.93800000000E+00  0.93800000000E+00 0. -1.
         11    1    1    2    0    0  0.53034515652E-01 -0.34934742722E-01  0.66605243039E+00  0.66907338704E+00  0.51100000000E-03 0.  1.
    9000002    1    1    2    0    0 -0.30260631302E+00  0.21841189661E+00  0.93640503197E-01  0.10138475630E+01  0.93800000000E+00 0. -1.
         22    1    1    2    0    0  0.24957179737E+00 -0.18347715389E+00  0.32403070338E+01  0.32550790499E+01  0.00000000000E+00 0.  1.
</event>
<event>
 5    1  0.6440325E+001  0.1599328E+01  0.7818608E-02  0.3354093E+00
         11   -1    0    0    0    0  0.00000000000E+00  0.00000000000E+00  0.39999999674E+01  0.40000000000E+01  0.51100000000E-03 0.  1.
    9000002   -1    0    0    0    0 -0.00000000000E+00 -0.00000000000E+00  0.00000000000E+00  0.93800000000E+00  0.93800000000E+00 0.  1.
         11    1    1    2    0    0 -0.79274626806E-03  0.11023959167E+00  0.12813564592E+01  0.12860902117E+01  0.51100000000E-03 0.  1.
    9000002    1    1    2    0    0  0.57099113522E-01 -0.37011842594E+00  0.94587729094E-01  0.10144154950E+01  0.93800000000E+00 0.  1.
         22    1    1    2    0    0 -0.56306367254E-01  0.25987883427E+00  0.26240557791E+01  0.26374942933E+01  0.00000000000E+00 0.  1.
</event>
<event>
 5    1  0.6440325E+001  0.1598852E+01  0.7818608E-02  0.3354610E+00
         11   -1    0    0    0    0  0.00000000000E+00  0.00000000000E+00  0.39999999674E+01  0.40000000000E+01  0.51100000000E-03 0. -1.
    9000002   -1    0    0    0    0 -0.00000000000E+00 -0.00000000000E+00  0.00000000000E+00  0.93800000000E+00  0.93800000000E+00 0.  1.
         11    1    1    2    0    0  0.36076003699E-01 -0.11194689084E+00  0.13652917193E+01  0.13703486142E+01  0.51100000000E-03 0. -1.
    9000002    1    1    2    0    0 -0.15945315715E+00  0.39295224633E+00  0.12239046908E+00  0.10366581906E+01  0.93800000000E+00 0.  1.
         22    1    1    2    0    0  0.12337715345E+00 -0.28100535548E+00  0.25123177790E+01  0.25309931952E+01  0.00000000000E+00 0. -1.
</event>
<event>
 5    1  0.6440325E+001  0.1599674E+01  0.7818608E-02  0.3353717E+00
         11   -1    0    0    0    0  0.00000000000E+00  0.00000000000E+00  0.39999999674E+01  0.40000000000E+01  0.51100000000E-03 0. -1.
    9000002   -1    0    0    0    0 -0.00000000000E+00 -0.00000000000E+00  0.00000000000E+00  0.93800000000E+00  0.93800000000E+00 0.  1.
         11    1    1    2    0    0  0.51600850433E-01 -0.89091737331E-02  0.55050920286E+00  0.55299427185E+00  0.51100000000E-03 0. -1.
    9000002    1    1    2    0    0 -0.37286068503E+00  0.56896222899E-01  0.95689395847E-01  0.10155110689E+01  0.93800000000E+00 0.  1.
         22    1    1    2    0    0  0.32125983460E+00 -0.47987049166E-01  0.33538013687E+01  0.33694946592E+01  0.00000000000E+00 0. -1.
</event>
<event>
 5    1  0.6440325E+001  0.1598178E+01  0.7818608E-02  0.3355343E+00
         11   -1    0    0    0    0  0.00000000000E+00  0.00000000000E+00  0.39999999674E+01  0.40000000000E+01  0.51100000000E-03 0. -1.
    9000002   -1    0    0    0    0 -0.00000000000E+00 -0.00000000000E+00  0.00000000000E+00  0.93800000000E+00  0.93800000000E+00 0. -1.
         11    1    1    2    0    0 -0.25458057952E-01 -0.11727931166E+00  0.14811758965E+01  0.14860298944E+01  0.51100000000E-03 0. -1.
    9000002    1    1    2    0    0  0.18227270533E+00  0.33930585147E+00  0.10111527655E+00  0.10190289982E+01  0.93800000000E+00 0. -1.
         22    1    1    2    0    0 -0.15681464738E+00 -0.22202653981E+00  0.24177087944E+01  0.24329411074E+01  0.00000000000E+00 0. -1.
</event>
<event>
 5    1  0.6440325E+001  0.1598810E+01  0.7818608E-02  0.3354656E+00
         11   -1    0    0    0    0  0.00000000000E+00  0.00000000000E+00  0.39999999674E+01  0.40000000000E+01  0.51100000000E-03 0. -1.
    9000002   -1    0    0    0    0 -0.00000000000E+00 -0.00000000000E+00  0.00000000000E+00  0.93800000000E+00  0.93800000000E+00 0.  1.
         11    1    1    2    0    0  0.37210927395E+00  0.10389668073E+00  0.14042079950E+01  0.14563860019E+01  0.51100000000E-03 0. -1.
    9000002    1    1    2    0    0 -0.91019730189E+00 -0.16794069731E+00  0.66467044830E+00  0.14759044722E+01  0.93800000000E+00 0.  1.
         22    1    1    2    0    0  0.53808802794E+00  0.64044016584E-01  0.19311215240E+01  0.20057095259E+01  0.00000000000E+00 0.  1.
</event>
<event>
 5    1  0.6440325E+001  0.1540891E+01  0.7818608E-02  0.3420128E+00
         11   -1    0    0    0    0  0.00000000000E+00  0.00000000000E+00  0.39999999674E+01  0.40000000000E+01  0.51100000000E-03 0.  1.
    9000002   -1    0    0    0    0 -0.00000000000E+00 -0.00000000000E+00  0.00000000000E+00  0.93800000000E+00  0.93800000000E+00 0. -1.
         11    1    1    2    0    0 -0.34613080546E-01  0.14266604096E+00  0.39460650446E+00  0.42102995032E+00  0.51100000000E-03 0.  1.
    9000002    1    1    2    0    0  0.15241588863E-02  0.30902527609E+00  0.11152727809E+00  0.99387186200E+00  0.93800000000E+00 0. -1.
         22    1    1    2    0    0  0.33088921659E-01 -0.45169131705E+00  0.34938661848E+01  0.35230981877E+01  0.00000000000E+00 0.  1.
</event>
<event>
 5    1  0.6440325E+001  0.1597046E+01  0.7818608E-02  0.3356576E+00
         11   -1    0    0    0    0  0.00000000000E+00  0.00000000000E+00  0.39999999674E+01  0.40000000000E+01  0.51100000000E-03 0. -1.
    9000002   -1    0    0    0    0 -0.00000000000E+00 -0.00000000000E+00  0.00000000000E+00  0.93800000000E+00  0.93800000000E+00 0. -1.
         11    1    1    2    0    0 -0.64412411328E-02 -0.81209831995E-02  0.97033417151E-01  0.97586808128E-01  0.51100000000E-03 0. -1.
    9000002    1    1    2    0    0 -0.50125605432E+00  0.20150951054E+00  0.20368578758E+00  0.11014515944E+01  0.93800000000E+00 0. -1.
         22    1    1    2    0    0  0.50769729546E+00 -0.19338852734E+00  0.36992807626E+01  0.37389615974E+01  0.00000000000E+00 0. -1.
</event>
<event>
 5    1  0.6440325E+001  0.1599339E+01  0.7818608E-02  0.3354081E+00
         11   -1    0    0    0    0  0.00000000000E+00  0.00000000000E+00  0.39999999674E+01  0.40000000000E+01  0.51100000000E-03 0. -1.
    9000002   -1    0    0    0    0 -0.00000000000E+00 -0.00000000000E+00  0.00000000000E+00  0.93800000000E+00  0.93800000000E+00 0.  1.
         11    1    1    2    0    0  0.39543339409E-02  0.25635441002E-01  0.14784449688E+00  0.15010352751E+00  0.51100000000E-03 0. -1.
    9000002    1    1    2    0    0  0.35963579815E-01 -0.49092992223E+00  0.16596072148E+00  0.10722371607E+01  0.93800000000E+00 0.  1.
         22    1    1    2    0    0 -0.39917913756E-01  0.46529448123E+00  0.36861947490E+01  0.37156593118E+01  0.00000000000E+00 0. -1.
</event>
<event>
 5    1  0.6440325E+001  0.1597744E+01  0.7818608E-02  0.3355816E+00
         11   -1    0    0    0    0  0.00000000000E+00  0.00000000000E+00  0.39999999674E+01  0.40000000000E+01  0.51100000000E-03 0. -1.
    9000002   -1    0    0    0    0 -0.00000000000E+00 -0.00000000000E+00  0.00000000000E+00  0.93800000000E+00  0.93800000000E+00 0. -1.
         11    1    1    2    0    0 -0.10689386264E-01  0.94873025620E-04  0.21037298797E-01  0.23602987973E-01  0.51100000000E-03 0. -1.
    9000002    1    1    2    0    0  0.46587193312E+00  0.13798297737E-01  0.14958821294E+00  0.10580395477E+01  0.93800000000E+00 0. -1.
         22    1    1    2    0    0 -0.45518254685E+00 -0.13893170763E-01  0.38293744556E+01  0.38563574643E+01  0.00000000000E+00 0. -1.
</event>
<event>
 5    1  0.6440325E+001  0.1599446E+01  0.7818608E-02  0.3353964E+00
         11   -1    0    0    0    0  0.00000000000E+00  0.00000000000E+00  0.39999999674E+01  0.40000000000E+01  0.51100000000E-03 0. -1.
    9000002   -1    0    0    0    0 -0.00000000000E+00 -0.00000000000E+00  0.00000000000E+00  0.93800000000E+00  0.93800000000E+00 0.  1.
         11    1    1    2    0    0 -0.92876493595E-04  0.29838637678E-02  0.13326445710E-01  0.13666284985E-01  0.51100000000E-03 0.  1.
    9000002    1    1    2    0    0  0.37601086916E+00 -0.36248512979E+00  0.18766465705E+00  0.10898814920E+01  0.93800000000E+00 0.  1.
         22    1    1    2    0    0 -0.37591799266E+00  0.35950126602E+00  0.37990088646E+01  0.38344522230E+01  0.00000000000E+00 0. -1.
</event>
<event>
 5    1  0.6440325E+001  0.1599673E+01  0.7818608E-02  0.3353718E+00
         11   -1    0    0    0    0  0.00000000000E+00  0.00000000000E+00  0.39999999674E+01  0.40000000000E+01  0.51100000000E-03 0.  1.
    9000002   -1    0    0    0    0 -0.00000000000E+00 -0.00000000000E+00  0.00000000000E+00  0.93800000000E+00  0.93800000000E+00 0.  1.
         11    1    1    2    0    0 -0.26115990769E-01  0.23786622775E-01  0.35658590673E+00  0.35833171558E+00  0.51100000000E-03 0.  1.
    9000002    1    1    2    0    0  0.29313755320E+00 -0.24824755772E+00  0.99335024237E-01  0.10184635104E+01  0.93800000000E+00 0.  1.
         22    1    1    2    0    0 -0.26702156243E+00  0.22446093495E+00  0.35440790364E+01  0.35612047740E+01  0.00000000000E+00 0.  1.
</event>
<event>
 5    1  0.6440325E+001  0.1597983E+01  0.7818608E-02  0.3355556E+00
         11   -1    0    0    0    0  0.00000000000E+00  0.00000000000E+00  0.39999999674E+01  0.40000000000E+01  0.51100000000E-03 0.  1.
    9000002   -1    0    0    0    0 -0.00000000000E+00 -0.00000000000E+00  0.00000000000E+00  0.93800000000E+00  0.93800000000E+00 0.  1.
         11    1    1    2    0    0  0.18198490169E-01  0.44639910843E-01  0.67214459706E+00  0.67387129866E+00  0.51100000000E-03 0.  1.
    9000002    1    1    2    0    0  0.54167743548E-01 -0.40527328679E+00  0.11431682699E+00  0.10296081383E+01  0.93800000000E+00 0.  1.
         22    1    1    2    0    0 -0.72366233717E-01  0.36063337595E+00  0.32135385433E+01  0.32345205631E+01  0.00000000000E+00 0.  1.
</event>
<event>
 5    1  0.6440325E+001  0.1598817E+01  0.7818608E-02  0.3354649E+00
         11   -1    0    0    0    0  0.00000000000E+00  0.00000000000E+00  0.39999999674E+01  0.40000000000E+01  0.51100000000E-03 0. -1.
    9000002   -1    0    0    0    0 -0.00000000000E+00 -0.00000000000E+00  0.00000000000E+00  0.93800000000E+00  0.93800000000E+00 0. -1.
         11    1    1    2    0    0 -0.37862665894E-01 -0.35954283052E-01  0.59863391697E+00  0.60090691426E+00  0.51100000000E-03 0. -1.
    9000002    1    1    2    0    0  0.40857766606E+00  0.22607757671E+00  0.14922669275E+00  0.10583758244E+01  0.93800000000E+00 0. -1.
         22    1    1    2    0    0 -0.37071500017E+00 -0.19012329366E+00  0.32521393576E+01  0.32787172613E+01  0.00000000000E+00 0. -1.
</event>
<event>
 5    1  0.6440325E+001  0.1574187E+01  0.7818608E-02  0.3381866E+00
         11   -1    0    0    0    0  0.00000000000E+00  0.00000000000E+00  0.39999999674E+01  0.40000000000E+01  0.51100000000E-03 0. -1.
    9000002   -1    0    0    0    0 -0.00000000000E+00 -0.00000000000E+00  0.00000000000E+00  0.93800000000E+00  0.93800000000E+00 0.  1.
         11    1    1    2    0    0  0.30009478888E+00 -0.62309713790E-01  0.90443688679E+00  0.95495849441E+00  0.51100000000E-03 0. -1.
    9000002    1    1    2    0    0 -0.54461973784E+00  0.22903332138E+00  0.26861305910E+00  0.11406418792E+01  0.93800000000E+00 0.  1.
         22    1    1    2    0    0  0.24452494897E+00 -0.16672360759E+00  0.28269500215E+01  0.28423996263E+01  0.00000000000E+00 0. -1.
</event>
<event>
 5    1  0.6440325E+001  0.1599596E+01  0.7818608E-02  0.3353802E+00
         11   -1    0    0    0    0  0.00000000000E+00  0.00000000000E+00  0.39999999674E+01  0.40000000000E+01  0.51100000000E-03 0. -1.
    9000002   -1    0    0    0    0 -0.00000000000E+00 -0.00000000000E+00  0.00000000000E+00  0.93800000000E+00  0.93800000000E+00 0.  1.
         11    1    1    2    0    0  0.17022296598E+00  0.11523947345E+00  0.13339054762E+01  0.13496518347E+01  0.51100000000E-03 0. -1.
    9000002    1    1    2    0    0 -0.48428050315E+00 -0.35264399764E+00  0.25042434008E+00  0.11408074969E+01  0.93800000000E+00 0.  1.
         22    1    1    2    0    0  0.31405753717E+00  0.23740452419E+00  0.24156701511E+01  0.24475406685E+01  0.00000000000E+00 0. -1.
</event>
<event>
 5    1  0.6440325E+001  0.1599004E+01  0.7818608E-02  0.3354446E+00
         11   -1    0    0    0    0  0.00000000000E+00  0.00000000000E+00  0.39999999674E+01  0.40000000000E+01  0.51100000000E-03 0. -1.
    9000002   -1    0    0    0    0 -0.00000000000E+00 -0.00000000000E+00  0.00000000000E+00  0.93800000000E+00  0.93800000000E+00 0.  1.
         11    1    1    2    0    0  0.68556576583E-01 -0.76020820645E-01  0.11370618594E+01  0.11416606776E+01  0.51100000000E-03 0. -1.
    9000002    1    1    2    0    0 -0.30180232161E+00  0.18961555516E+00  0.85786336616E-01  0.10070958225E+01  0.93800000000E+00 0.  1.
         22    1    1    2    0    0  0.23324574503E+00 -0.11359473451E+00  0.27771517713E+01  0.27892435000E+01  0.00000000000E+00 0. -1.
</event>
<event>
 5    1  0.6440325E+001  0.1599471E+01  0.7818608E-02  0.3353938E+00
         11   -1    0    0    0    0  0.00000000000E+00  0.00000000000E+00  0.39999999674E+01  0.40000000000E+01  0.51100000000E-03 0. -1.
    9000002   -1    0    0    0    0 -0.00000000000E+00 -0.00000000000E+00  0.00000000000E+00  0.93800000000E+00  0.93800000000E+00 0.  1.
         11    1    1    2    0    0 -0.48852755710E-01 -0.61403768204E-01  0.43455402209E+00  0.44158178600E+00  0.51100000000E-03 0. -1.
    9000002    1    1    2    0    0  0.45642334378E+00  0.58809020861E+00  0.40131276773E+00  0.12629601339E+01  0.93800000000E+00 0.  1.
         22    1    1    2    0    0 -0.40757058807E+00 -0.52668644040E+00  0.31641331775E+01  0.32334580801E+01  0.00000000000E+00 0. -1.
</event>
<event>
 5    1  0.6440325E+001  0.1599677E+01  0.7818608E-02  0.3353714E+00
         11   -1    0    0    0    0  0.00000000000E+00  0.00000000000E+00  0.39999999674E+01  0.40000000000E+01  0.51100000000E-03 0.  1.
    9000002   -1    0    0    0    0 -0.00000000000E+00 -0.00000000000E+00  0.00000000000E+00  0.93800000000E+00  0.93800000000E+00 0. -1.
         11    1    1    2    0    0  0.42671575896E-01  0.97101730753E-01  0.76948315027E+00  0.77675877155E+00  0.51100000000E-03 0. -1.
    9000002    1    1    2    0    0 -0.21308664469E+00 -0.48236729920E+00  0.19127083854E+00  0.10929376300E+01  0.93800000000E+00 0. -1.
         22    1    1    2    0    0  0.17041506879E+00  0.38526556845E+00  0.30392459786E+01  0.30683035984E+01  0.00000000000E+00 0.  1.
</event>
<event>
 5    1  0.6440325E+001  0.1570468E+01  0.7818608E-02  0.3386054E+00
         11   -1    0    0    0    0  0.00000000000E+00  0.00000000000E+00  0.39999999674E+01  0.40000000000E+01  0.51100000000E-03 0.  1.
    9000002   -1    0    0    0    0 -0.00000000000E+00 -0.00000000000E+00  0.00000000000E+00  0.93800000000E+00  0.93800000000E+00 0. -1.
         11    1    1    2    0    0 -0.33800013565E+00 -0.14968135314E+00  0.12890406460E+01  0.13409976314E+01  0.51100000000E-03 0.  1.
    9000002    1    1    2    0    0  0.40714044023E+00  0.41545759634E+00  0.26423607310E+00  0.11349154395E+01  0.93800000000E+00 0. -1.
         22    1    1    2    0    0 -0.69140304583E-01 -0.26577624320E+00  0.24467232482E+01  0.24620869291E+01  0.00000000000E+00 0. -1.
</event>
<event>
 5    1  0.6440325E+001  0.1599665E+01  0.7818608E-02  0.3353727E+00
         11   -1    0    0    0    0  0.00000000000E+00  0.00000000000E+00  0.39999999674E+01  0.40000000000E+01  0.51100000000E-03 0. -1.
    9000002   -1    0    0    0    0 -0.00000000000E+00 -0.00000000000E+00  0.00000000000E+00  0.93800000000E+00  0.93800000000E+00 0. -1.
         11    1    1    2    0    0  0.24831193300E-01  0.12205972168E-01  0.22705830176E+00  0.22873851324E+00  0.51100000000E-03 0. -1.
    9000002    1    1    2    0    0 -0.39526268259E+00 -0.22532716153E+00  0.14070864866E+00  0.10519733085E+01  0.93800000000E+00 0. -1.
         22    1    1    2    0    0  0.37043148929E+00  0.21312118936E+00  0.36322330169E+01  0.36572881783E+01  0.00000000000E+00 0. -1.
</event>
<event>
 5    1  0.6440325E+001  0.1578099E+01  0.7818608E-02  0.3377483E+00
         11   -1    0    0    0    0  0.00000000000E+00  0.00000000000E+00  0.39999999674E+01  0.40000000000E+01  0.51100000000E-03 0. -1.
    9000002   -1    0    0    0    0 -0.00000000000E+00 -0.00000000000E+00  0.00000000000E+00  0.93800000000E+00  0.93800000000E+00 0. -1.
         11    1    1    2    0    0  0.80850127906E-01 -0.12629920675E+00  0.13050315239E+01  0.13136193408E+01  0.51100000000E-03 0. -1.
    9000002    1    1    2    0    0  0.18838353550E+00  0.12594377357E+00  0.50566160232E-01  0.96630798771E+00  0.93800000000E+00 0. -1.
         22    1    1    2    0    0 -0.26923366340E+00  0.35543317483E-03  0.26444022832E+01  0.26580726715E+01  0.00000000000E+00 0. -1.
</event>
<event>
 5    1  0.6440325E+001  0.1599673E+01  0.7818608E-02  0.3353718E+00
         11   -1    0    0    0    0  0.00000000000E+00  0.00000000000E+00  0.39999999674E+01  0.40000000000E+01  0.51100000000E-03 0.  1.
    9000002   -1    0    0    0    0 -0.00000000000E+00 -0.00000000000E+00  0.00000000000E+00  0.93800000000E+00  0.93800000000E+00 0.  1.
         11    1    1    2    0    0 -0.13341440662E+00 -0.17324738522E+00  0.70239895138E+00  0.73564842717E+00  0.51100000000E-03 0.  1.
    9000002    1    1    2    0    0  0.61182114551E+00  0.78272044784E+00  0.79107411838E+00  0.15788029245E+01  0.93800000000E+00 0.  1.
         22    1    1    2    0    0 -0.47840673890E+00 -0.60947306262E+00  0.25065268976E+01  0.26235486484E+01  0.00000000000E+00 0.  1.
</event>
<event>
 5    1  0.6440325E+001  0.1598864E+01  0.7818608E-02  0.3354597E+00
         11   -1    0    0    0    0  0.00000000000E+00  0.00000000000E+00  0.39999999674E+01  0.40000000000E+01  0.51100000000E-03 0.  1.
    9000002   -1    0    0    0    0 -0.00000000000E+00 -0.00000000000E+00  0.00000000000E+00  0.93800000000E+00  0.93800000000E+00 0. -1.
         11    1    1    2    0    0 -0.44864372347E-02 -0.20699402831E-01  0.13057192612E+00  0.13227956157E+00  0.51100000000E-03 0.  1.
    9000002    1    1    2    0    0  0.28298295021E+00  0.27941630195E+00  0.10732100966E+00  0.10244582076E+01  0.93800000000E+00 0. -1.
         22    1    1    2    0    0 -0.27849651297E+00 -0.25871689912E+00  0.37621070316E+01  0.37812622309E+01  0.00000000000E+00 0.  1.
</event>
<event>
 5    1  0.6440325E+001  0.1599509E+01  0.7818608E-02  0.3353896E+00
         11   -1    0    0    0    0  0.00000000000E+00  0.00000000000E+00  0.39999999674E+01  0.40000000000E+01  0.51100000000E-03 0. -1.
    9000002   -1    0    0    0    0 -0.00000000000E+00 -0.00000000000E+00  0.00000000000E+00  0.93800000000E+00  0.93800000000E+00 0. -1.
         11    1    1    2    0    0  0.13699186777E+00  0.32444055079E-01  0.12662561456E+01  0.12740581918E+01  0.51100000000E-03 0. -1.
    9000002    1    1    2    0    0 -0.38113425170E+00 -0.80068810805E-01  0.10230943713E+00  0.10207769361E+01  0.93800000000E+00 0. -1.
         22    1    1    2    0    0  0.24414238393E+00  0.47624755726E-01  0.26314343846E+01  0.26431648722E+01  0.00000000000E+00 0. -1.
</event>
<event>
 5    1  0.6440325E+001  0.1599627E+01  0.7818608E-02  0.3353768E+00
         11   -1    0    0    0    0  0.00000000000E+00  0.00000000000E+00  0.39999999674E+01  0.40000000000E+01  0.51100000000E-03 0. -1.
    9000002   -1    0    0    0    0 -0.00000000000E+00 -0.00000000000E+00  0.00000000000E+00  0.93800000000E+00  0.93800000000E+00 0. -1.
         11    1    1    2    0    0  0.22743044981E-01  0.18329063188E-01  0.24016880031E+00  0.24193907171E+00  0.51100000000E-03 0. -1.
    9000002    1    1    2    0    0 -0.35826405088E+00 -0.23048949853E+00  0.12287809258E+00  0.10375073806E+01  0.93800000000E+00 0. -1.
         22    1    1    2    0    0  0.33552100590E+00  0.21216043534E+00  0.36369530745E+01  0.36585535477E+01  0.00000000000E+00 0. -1.
</event>
<event>
 5    1  0.6440325E+001  0.1599618E+01  0.7818608E-02  0.3353778E+00
         11   -1    0    0    0    0  0.00000000000E+00  0.00000000000E+00  0.39999999674E+01  0.40000000000E+01  0.51100000000E-03 0.  1.
    9000002   -1    0    0    0    0 -0.00000000000E+00 -0.00000000000E+00  0.00000000000E+00  0.93800000000E+00  0.93800000000E+00 0. -1.
         11    1    1    2    0    0 -0.31836158655E-02  0.22733580486E-01  0.24421455334E+00  0.24529158215E+00  0.51100000000E-03 0.  1.
    9000002    1    1    2    0    0  0.63050294740E-01 -0.43074605539E+00  0.12849531625E+00  0.10420520861E+01  0.93800000000E+00 0. -1.
         22    1    1    2    0    0 -0.59866678875E-01  0.40801247491E+00  0.36272900978E+01  0.36506563317E+01  0.00000000000E+00 0.  1.
</event>
<event>
 5    1  0.6440325E+001  0.1595284E+01  0.7818608E-02  0.3358498E+00
         11   -1    0    0    0    0  0.00000000000E+00  0.00000000000E+00  0.39999999674E+01  0.40000000000E+01  0.51100000000E-03 0. -1.
    9000002   -1    0    0    0    0 -0.00000000000E+00 -0.00000000000E+00  0.00000000000E+00  0.93800000000E+00  0.93800000000E+00 0.  1.
         11    1    1    2    0    0 -0.48310447600E-01 -0.15695419396E+00  0.95550604547E+00  0.96951564320E+00  0.51100000000E-03 0. -1.
    9000002    1    1    2    0    0 -0.83112169517E-01  0.61890129653E+00  0.27803335458E+00  0.11606433534E+01  0.93800000000E+00 0.  1.
         22    1    1    2    0    0  0.13142261712E+00 -0.46194710256E+00  0.27664605673E+01  0.28078410034E+01  0.00000000000E+00 0. -1.
</event>
<event>
 5    1  0.6440325E+001  0.1599659E+01  0.7818608E-02  0.3353734E+00
         11   -1    0    0    0    0  0.00000000000E+00  0.00000000000E+00  0.39999999674E+01  0.40000000000E+01  0.51100000000E-03 0. -1.
    9000002   -1    0    0    0    0 -0.00000000000E+00 -0.00000000000E+00  0.00000000000E+00  0.93800000000E+00  0.93800000000E+00 0. -1.
         11    1    1    2    0    0  0.12519020603E+00  0.90597173313E-02  0.95015881842E+00  0.95841364113E+00  0.51100000000E-03 0. -1.
    9000002    1    1    2    0    0 -0.49607857604E+00 -0.52373899658E-01  0.17032624166E+00  0.10759609694E+01  0.93800000000E+00 0. -1.
         22    1    1    2    0    0  0.37088837001E+00  0.43314182327E-01  0.28795149073E+01  0.29036253895E+01  0.00000000000E+00 0. -1.
</event>
<event>
 5    1  0.6440325E+001  0.1597799E+01  0.7818608E-02  0.3355756E+00
         11   -1    0    0    0    0  0.00000000000E+00  0.00000000000E+00  0.39999999674E+01  0.40000000000E+01  0.51100000000E-03 0. -1.
    9000002   -1    0    0    0    0 -0.00000000000E+00 -0.00000000000E+00  0.00000000000E+00  0.93800000000E+00  0.93800000000E+00 0.  1.
         11    1    1    2    0    0  0.36798203996E-01  0.21281034059E+00  0.12986666734E+01  0.13165020845E+01  0.51100000000E-03 0. -1.
    9000002    1    1    2    0    0 -0.17691676570E+00 -0.49565256521E+00  0.19220348323E+00  0.10925919578E+01  0.93800000000E+00 0.  1.
         22    1    1    2    0    0  0.14011856170E+00  0.28284222462E+00  0.25091298107E+01  0.25289059576E+01  0.00000000000E+00 0. -1.
</event>
<event>
 5    1  0.6806927E+001  0.1599676E+01  0.7818608E-02  0.3353715E+00
         11   -1    0    0    0    0  0.00000000000E+00  0.00000000000E+00  0.39999999674E+01  0.40000000000E+01  0.51100000000E-03 0. -1.
    9000002   -1    0    0    0    0 -0.00000000000E+00 -0.00000000000E+00  0.00000000000E+00  0.93800000000E+00  0.93800000000E+00 0. -1.
         11    1    1    2    0    0 -0.24931929831E-01  0.11659077042E+00  0.13036971807E+01  0.13091377349E+01  0.51100000000E-03 0. -1.
    9000002    1    1    2    0    0  0.75399828084E-01 -0.34739727846E+00  0.84784674062E-01  0.10066789181E+01  0.93800000000E+00 0. -1.
         22    1    1    2    0    0 -0.50467898253E-01  0.23080650804E+00  0.26115181126E+01  0.26221833470E+01  0.00000000000E+00 0. -1.
</event>
<event>
 5    1  0.6440325E+001  0.1599675E+01  0.7818608E-02  0.3353717E+00
         11   -1    0    0    0    0  0.00000000000E+00  0.00000000000E+00  0.39999999674E+01  0.40000000000E+01  0.51100000000E-03 0.  1.
    9000002   -1    0    0    0    0 -0.00000000000E+00 -0.00000000000E+00  0.00000000000E+00  0.93800000000E+00  0.93800000000E+00 0. -1.
         11    1    1    2    0    0 -0.33763470348E-01  0.13585449491E+00  0.11779909387E+01  0.11862796165E+01  0.51100000000E-03 0.  1.
    9000002    1    1    2    0    0  0.11319815561E+00 -0.44945121791E+00  0.14620042895E+00  0.10564273686E+01  0.93800000000E+00 0. -1.
         22    1    1    2    0    0 -0.79434685263E-01  0.31359672300E+00  0.26758085997E+01  0.26952930149E+01  0.00000000000E+00 0.  1.
</event>
<event>
 5    1  0.6440325E+001  0.1595347E+01  0.7818608E-02  0.3358429E+00
         11   -1    0    0    0    0  0.00000000000E+00  0.00000000000E+00  0.39999999674E+01  0.40000000000E+01  0.51100000000E-03 0. -1.
    9000002   -1    0    0    0    0 -0.00000000000E+00 -0.00000000000E+00  0.00000000000E+00  0.93800000000E+00  0.93800000000E+00 0.  1.
         11    1    1    2    0    0 -0.59134941893E-01  0.15637304695E-01  0.46471773212E+00  0.46872625094E+00  0.51100000000E-03 0. -1.
    9000002    1    1    2    0    0  0.83904304291E+00 -0.18885379732E+00  0.56313689034E+00  0.13916271562E+01  0.93800000000E+00 0.  1.
         22    1    1    2    0    0 -0.77990810101E+00  0.17321649262E+00  0.29721453449E+01  0.30776465929E+01  0.00000000000E+00 0. -1.
</event>
<event>
 5    1  0.6440325E+001  0.1565326E+01  0.7818608E-02  0.3391879E+00
         11   -1    0    0    0    0  0.00000000000E+00  0.00000000000E+00  0.39999999674E+01  0.40000000000E+01  0.51100000000E-03 0.  1.
    9000002   -1    0    0    0    0 -0.00000000000E+00 -0.00000000000E+00  0.00000000000E+00  0.93800000000E+00  0.93800000000E+00 0.  1.
         11    1    1    2    0    0  0.24991703003E+00 -0.57376455847E+00  0.12858139252E+01  0.14300286717E+01  0.51100000000E-03 0.  1.
    9000002    1    1    2    0    0 -0.30139917033E+00  0.93781975559E+00  0.84136958435E+00  0.15994043051E+01  0.93800000000E+00 0.  1.
         22    1    1    2    0    0  0.51482140299E-01 -0.36405519712E+00  0.18728164578E+01  0.19085670231E+01  0.00000000000E+00 0.  1.
</event>
<event>
 5    1  0.6440325E+001  0.1599677E+01  0.7818608E-02  0.3353715E+00
         11   -1    0    0    0    0  0.00000000000E+00  0.00000000000E+00  0.39999999674E+01  0.40000000000E+01  0.51100000000E-03 0.  1.
    9000002   -1    0    0    0    0 -0.00000000000E+00 -0.00000000000E+00  0.00000000000E+00  0.93800000000E+00  0.93800000000E+00 0.  1.
         11    1    1    2    0    0  0.53662430676E-02 -0.12972645459E+00  0.14145344786E+01  0.14204808348E+01  0.51100000000E-03 0.  1.
    9000002    1    1    2    0    0 -0.14322209328E-01  0.35690700978E+00  0.85617950386E-01  0.10073540454E+01  0.93800000000E+00 0.  1.
         22    1    1    2    0    0  0.89559662601E-02 -0.22718055519E+00  0.24998475383E+01  0.25101651199E+01  0.00000000000E+00 0.  1.
</event>
<event>
 5    1  0.6440325E+001  0.1599676E+01  0.7818608E-02  0.3353715E+00
         11   -1    0    0    0    0  0.00000000000E+00  0.00000000000E+00  0.39999999674E+01  0.40000000000E+01  0.51100000000E-03 0. -1.
    9000002   -1    0    0    0    0 -0.00000000000E+00 -0.00000000000E+00  0.00000000000E+00  0.93800000000E+00  0.93800000000E+00 0.  1.
         11    1    1    2    0    0  0.28479325314E-02 -0.25518806789E+00  0.87051625307E+00  0.90715371833E+00  0.51100000000E-03 0. -1.
    9000002    1    1    2    0    0 -0.14527082091E-01  0.95827022349E+00  0.72253240373E+00  0.15232826172E+01  0.93800000000E+00 0.  1.
         22    1    1    2    0    0  0.11679149560E-01 -0.70308215561E+00  0.24069513106E+01  0.25075636645E+01  0.00000000000E+00 0. -1.
</event>
<event>
 5    1  0.6440325E+001  0.1596051E+01  0.7818608E-02  0.3357660E+00
         11   -1    0    0    0    0  0.00000000000E+00  0.00000000000E+00  0.39999999674E+01  0.40000000000E+01  0.51100000000E-03 0.  1.
    9000002   -1    0    0    0    0 -0.00000000000E+00 -0.00000000000E+00  0.00000000000E+00  0.93800000000E+00  0.93800000000E+00 0.  1.
         11    1    1    2    0    0  0.17060534239E-01 -0.37458809755E-01  0.11493377656E+01  0.11500746866E+01  0.51100000000E-03 0.  1.
    9000002    1    1    2    0    0  0.10468224230E+00  0.28459772085E+00  0.64210286272E-01  0.98788723822E+00  0.93800000000E+00 0.  1.
         22    1    1    2    0    0 -0.12174277654E+00 -0.24713891110E+00  0.27864519155E+01  0.28000380751E+01  0.00000000000E+00 0.  1.
</event>
<event>
 5    1  0.6440325E+001  0.1594621E+01  0.7818608E-02  0.3359222E+00
         11   -1    0    0    0    0  0.00000000000E+00  0.00000000000E+00  0.39999999674E+01  0.40000000000E+01  0.51100000000E-03 0.  1.
    9000002   -1    0    0    0    0 -0.00000000000E+00 -0.00000000000E+00  0.00000000000E+00  0.93800000000E+00  0.93800000000E+00 0.  1.
         11    1    1    2    0    0  0.38600685043E-01 -0.10159485687E+00  0.14084984118E+01  0.14126852321E+01  0.51100000000E-03 0.  1.
    9000002    1    1    2    0    0 -0.16700099082E+00  0.49114446073E+00  0.18946394595E+00  0.10885094391E+01  0.93800000000E+00 0.  1.
         22    1    1    2    0    0  0.12840030577E+00 -0.38954960386E+00  0.24020376096E+01  0.24368053287E+01  0.00000000000E+00 0.  1.
</event>
<event>
 5    1  0.6440325E+001  0.1599593E+01  0.7818608E-02  0.3353805E+00
         11   -1    0    0    0    0  0.00000000000E+00  0.00000000000E+00  0.39999999674E+01  0.40000000000E+01  0.51100000000E-03 0.  1.
    9000002   -1    0    0    0    0 -0.00000000000E+00 -0.00000000000E+00  0.00000000000E+00  0.93800000000E+00  0.93800000000E+00 0. -1.
         11    1    1    2    0    0  0.13095592712E+00 -0.45809604717E-01  0.13305756898E+01  0.13377891845E+01  0.51100000000E-03 0.  1.
    9000002    1    1    2    0    0 -0.40720648901E+00  0.11652753745E+00  0.12145629242E+00  0.10363355743E+01  0.93800000000E+00 0. -1.
         22    1    1    2    0    0  0.27625056189E+00 -0.70717932738E-01  0.25479679851E+01  0.25638752411E+01  0.00000000000E+00 0.  1.
</event>
<event>
 5    1  0.6440325E+001  0.1599663E+01  0.7818608E-02  0.3353729E+00
         11   -1    0    0    0    0  0.00000000000E+00  0.00000000000E+00  0.39999999674E+01  0.40000000000E+01  0.51100000000E-03 0. -1.
    9000002   -1    0    0    0    0 -0.00000000000E+00 -0.00000000000E+00  0.00000000000E+00  0.93800000000E+00  0.93800000000E+00 0. -1.
         11    1    1    2    0    0  0.72634249929E-02  0.98788018009E-01  0.85079305560E+00  0.85654008337E+00  0.51100000000E-03 0. -1.
    9000002    1    1    2    0    0 -0.49874338482E-01 -0.44880451475E+00  0.13853867359E+00  0.10502142192E+01  0.93800000000E+00 0. -1.
         22    1    1    2    0    0  0.42610913489E-01  0.35001649674E+00  0.30106682382E+01  0.30312456974E+01  0.00000000000E+00 0. -1.
</event>
<event>
 5    1  0.6440325E+001  0.1599464E+01  0.7818608E-02  0.3353946E+00
         11   -1    0    0    0    0  0.00000000000E+00  0.00000000000E+00  0.39999999674E+01  0.40000000000E+01  0.51100000000E-03 0. -1.
    9000002   -1    0    0    0    0 -0.00000000000E+00 -0.00000000000E+00  0.00000000000E+00  0.93800000000E+00  0.93800000000E+00 0. -1.
         11    1    1    2    0    0  0.10063277868E+00  0.13876512471E+00  0.11030005043E+01  0.11162406056E+01  0.51100000000E-03 0. -1.
    9000002    1    1    2    0    0 -0.38925668141E+00 -0.44415819746E+00  0.24308174157E+00  0.11347819180E+01  0.93800000000E+00 0. -1.
         22    1    1    2    0    0  0.28862390273E+00  0.30539307275E+00  0.26539177215E+01  0.26869774764E+01  0.00000000000E+00 0. -1.
</event>
<event>
 5    1  0.6440325E+001  0.1599661E+01  0.7818608E-02  0.3353731E+00
         11   -1    0    0    0    0  0.00000000000E+00  0.00000000000E+00  0.39999999674E+01  0.40000000000E+01  0.51100000000E-03 0. -1.
    9000002   -1    0    0    0    0 -0.00000000000E+00 -0.00000000000E+00  0.00000000000E+00  0.93800000000E+00  0.93800000000E+00 0.  1.
         11    1    1    2    0    0 -0.26426119696E-01 -0.12015021742E+00  0.87425856802E+00  0.88287185900E+00  0.51100000000E-03 0. -1.
    9000002    1    1    2    0    0  0.13187034279E+00  0.51875254219E+00  0.19735259979E+00  0.10978551981E+01  0.93800000000E+00 0.  1.
         22    1    1    2    0    0 -0.10544422310E+00 -0.39860232477E+00  0.29283887996E+01  0.29572729429E+01  0.00000000000E+00 0. -1.
</event>
<event>
 5    1  0.6440325E+001  0.1599677E+01  0.7818608E-02  0.3353714E+00
         11   -1    0    0    0    0  0.00000000000E+00  0.00000000000E+00  0.39999999674E+01  0.40000000000E+01  0.51100000000E-03 0.  1.
    9000002   -1    0    0    0    0 -0.00000000000E+00 -0.00000000000E+00  0.00000000000E+00  0.93800000000E+00  0.93800000000E+00 0. -1.
         11    1    1    2    0    0 -0.22955085766E+00  0.23815537264E-01  0.14231505447E+01  0.14417414851E+01  0.51100000000E-03 0.  1.
    9000002    1    1    2    0    0  0.60418510494E+00 -0.63222686166E-01  0.25789231872E+00  0.11469041796E+01  0.93800000000E+00 0. -1.
         22    1    1    2    0    0 -0.37463424728E+00  0.39407148902E-01  0.23189571040E+01  0.23493543353E+01  0.00000000000E+00 0.  1.
</event>
<event>
 5    1  0.6440325E+001  0.1599216E+01  0.7818608E-02  0.3354215E+00
         11   -1    0    0    0    0  0.00000000000E+00  0.00000000000E+00  0.39999999674E+01  0.40000000000E+01  0.51100000000E-03 0.  1.
    9000002   -1    0    0    0    0 -0.00000000000E+00 -0.00000000000E+00  0.00000000000E+00  0.93800000000E+00  0.93800000000E+00 0.  1.
         11    1    1    2    0    0  0.36844295998E-01  0.43245866163E-01  0.26195371126E+00  0.26804424085E+00  0.51100000000E-03 0.  1.
    9000002    1    1    2    0    0 -0.54778348324E+00 -0.42003124961E+00  0.34016876048E+00  0.12132814104E+01  0.93800000000E+00 0.  1.
         22    1    1    2    0    0  0.51093918724E+00  0.37678538344E+00  0.33978774956E+01  0.34566743488E+01  0.00000000000E+00 0.  1.
</event>
<event>
 5    1  0.6440325E+001  0.1599675E+01  0.7818608E-02  0.3353717E+00
         11   -1    0    0    0    0  0.00000000000E+00  0.00000000000E+00  0.39999999674E+01  0.40000000000E+01  0.51100000000E-03 0. -1.
    9000002   -1    0    0    0    0 -0.00000000000E+00 -0.00000000000E+00  0.00000000000E+00  0.93800000000E+00  0.93800000000E+00 0. -1.
         11    1    1    2    0    0 -0.24075855897E-01  0.11587788851E-01  0.27324141710E+00  0.27454518176E+00  0.51100000000E-03 0. -1.
    9000002    1    1    2    0    0  0.33530911965E+00 -0.17404079384E+00  0.96005729644E-01  0.10157674457E+01  0.93800000000E+00 0. -1.
         22    1    1    2    0    0 -0.31123326376E+00  0.16245300499E+00  0.36307528206E+01  0.36476873725E+01  0.00000000000E+00 0. -1.
</event>
<event>
 5    1  0.6440325E+001  0.1597601E+01  0.7818608E-02  0.3355972E+00
         11   -1    0    0    0    0  0.00000000000E+00  0.00000000000E+00  0.39999999674E+01  0.40000000000E+01  0.51100000000E-03 0.  1.
    9000002   -1    0    0    0    0 -0.00000000000E+00 -0.00000000000E+00  0.00000000000E+00  0.93800000000E+00  0.93800000000E+00 0.  1.
         11    1    1    2    0    0 -0.41632820754E-01 -0.95285283362E-02  0.81352883476E+00  0.81464931764E+00  0.51100000000E-03 0.  1.
    9000002    1    1    2    0    0  0.32277762663E+00  0.22043374362E+00  0.10465012027E+00  0.10215537574E+01  0.93800000000E+00 0.  1.
         22    1    1    2    0    0 -0.28114480588E+00 -0.21090521529E+00  0.30818210123E+01  0.31017969250E+01  0.00000000000E+00 0.  1.
</event>
<event>
 5    1  0.6440325E+001  0.1599638E+01  0.7818608E-02  0.3353757E+00
         11   -1    0    0    0    0  0.00000000000E+00  0.00000000000E+00  0.39999999674E+01  0.40000000000E+01  0.51100000000E-03 0.  1.
    9000002   -1    0    0    0    0 -0.00000000000E+00 -0.00000000000E+00  0.00000000000E+00  0.93800000000E+00  0.93800000000E+00 0. -1.
         11    1    1    2    0    0 -0.22054900022E-02  0.55572677354E-01  0.55779407140E+00  0.56056014295E+00  0.51100000000E-03 0.  1.
    9000002    1    1    2    0    0 -0.14551165473E-01 -0.40887468465E+00  0.11307532837E+00  0.10295728600E+01  0.93800000000E+00 0. -1.
         22    1    1    2    0    0  0.16756655475E-01  0.35330200729E+00  0.33291305676E+01  0.33478669971E+01  0.00000000000E+00 0.  1.
</event>
<event>
 5    1  0.6440325E+001  0.1599674E+01  0.7818608E-02  0.3353718E+00
         11   -1    0    0    0    0  0.00000000000E+00  0.00000000000E+00  0.39999999674E+01  0.40000000000E+01  0.51100000000E-03 0.  1.
    9000002   -1    0    0    0    0 -0.00000000000E+00 -0.00000000000E+00  0.00000000000E+00  0.93800000000E+00  0.93800000000E+00 0.  1.
         11    1    1    2    0    0 -0.12087174028E-01 -0.62341432684E-02  0.91003302580E-01  0.92015360238E-01  0.51100000000E-03 0.  1.
    9000002    1    1    2    0    0  0.48567966622E+00  0.25247964698E+00  0.20685596298E+00  0.11055605364E+01  0.93800000000E+00 0.  1.
         22    1    1    2    0    0 -0.47359249220E+00 -0.24624550371E+00  0.37021407018E+01  0.37404241033E+01  0.00000000000E+00 0.  1.
</event>
<event>
 5    1  0.6440325E+001  0.1569360E+01  0.7818608E-02  0.3387306E+00
         11   -1    0    0    0    0  0.00000000000E+00  0.00000000000E+00  0.39999999674E+01  0.40000000000E+01  0.51100000000E-03 0. -1.
    9000002   -1    0    0    0    0 -0.00000000000E+00 -0.00000000000E+00  0.00000000000E+00  0.93800000000E+00  0.93800000000E+00 0. -1.
         11    1    1    2    0    0 -0.99765023822E-01  0.29338332364E-01  0.12492238477E+01  0.12535446862E+01  0.51100000000E-03 0. -1.
    9000002    1    1    2    0    0  0.51214459080E-02  0.43395943810E+00  0.15396061696E+00  0.10449377468E+01  0.93800000000E+00 0. -1.
         22    1    1    2    0    0  0.94643577914E-01 -0.46329777047E+00  0.25968155027E+01  0.26395175669E+01  0.00000000000E+00 0. -1.
</event>
<event>
 5    1  0.6440325E+001  0.1599670E+01  0.7818608E-02  0.3353722E+00
         11   -1    0    0    0    0  0.00000000000E+00  0.00000000000E+00  0.39999999674E+01  0.40000000000E+01  0.51100000000E-03 0. -1.
    9000002   -1    0    0    0    0 -0.00000000000E+00 -0.00000000000E+00  0.00000000000E+00  0.93800000000E+00  0.93800000000E+00 0. -1.
         11    1    1    2    0    0 -0.15802233030E+00  0.85031426157E-01  0.11727526911E+01  0.11864023500E+01  0.51100000000E-03 0. -1.
    9000002    1    1    2    0    0  0.50163211975E+00 -0.26703294448E+00  0.22385573466E+00  0.11193287126E+01  0.93800000000E+00 0. -1.
         22    1    1    2    0    0 -0.34360978945E+00  0.18200151833E+00  0.26033915416E+01  0.26322689374E+01  0.00000000000E+00 0. -1.
</event>
<event>
 5    1  0.6440325E+001  0.1598823E+01  0.7818608E-02  0.3354642E+00
         11   -1    0    0    0    0  0.00000000000E+00  0.00000000000E+00  0.39999999674E+01  0.40000000000E+01  0.51100000000E-03 0. -1.
    9000002   -1    0    0    0    0 -0.00000000000E+00 -0.00000000000E+00  0.00000000000E+00  0.93800000000E+00  0.93800000000E+00 0. -1.
         11    1    1    2    0    0  0.97749615310E-01  0.15477295840E-01  0.80236521082E+00  0.80844587118E+00  0.51100000000E-03 0. -1.
    9000002    1    1    2    0    0 -0.35825649640E+00 -0.14990937000E+00  0.10228753621E+00  0.10203564458E+01  0.93800000000E+00 0. -1.
         22    1    1    2    0    0  0.26050688109E+00  0.13443207416E+00  0.30953472203E+01  0.31091976830E+01  0.00000000000E+00 0.  1.
</event>
<event>
 5    1  0.6440325E+001  0.1595410E+01  0.7818608E-02  0.3358361E+00
         11   -1    0    0    0    0  0.00000000000E+00  0.00000000000E+00  0.39999999674E+01  0.40000000000E+01  0.51100000000E-03 0.  1.
    9000002   -1    0    0    0    0 -0.00000000000E+00 -0.00000000000E+00  0.00000000000E+00  0.93800000000E+00  0.93800000000E+00 0. -1.
         11    1    1    2    0    0 -0.15654006619E+00  0.17249600958E+00  0.11918798017E+01  0.12144288322E+01  0.51100000000E-03 0.  1.
    9000002    1    1    2    0    0  0.33166603882E+00 -0.38853486140E+00  0.18286410266E+00  0.10836258487E+01  0.93800000000E+00 0. -1.
         22    1    1    2    0    0 -0.17512597264E+00  0.21603885182E+00  0.26252560630E+01  0.26399453191E+01  0.00000000000E+00 0.  1.
</event>
<event>
 5    1  0.6440325E+001  0.1599256E+01  0.7818608E-02  0.3354171E+00
         11   -1    0    0    0    0  0.00000000000E+00  0.00000000000E+00  0.39999999674E+01  0.40000000000E+01  0.51100000000E-03 0.  1.
    9000002   -1    0    0    0    0 -0.00000000000E+00 -0.00000000000E+00  0.00000000000E+00  0.93800000000E+00  0.93800000000E+00 0. -1.
         11    1    1    2    0    0 -0.12591840055E+00 -0.13570322372E+00  0.10047348029E+01  0.10216472453E+01  0.51100000000E-03 0.  1.
    9000002    1    1    2    0    0  0.44535685081E+00  0.42522754843E+00  0.26587551977E+00  0.11531240109E+01  0.93800000000E+00 0. -1.
         22    1    1    2    0    0 -0.31943845025E+00 -0.28952432471E+00  0.27293896447E+01  0.27632287438E+01  0.00000000000E+00 0.  1.
</event>
<event>
 5    1  0.6440325E+001  0.1599673E+01  0.7818608E-02  0.3353718E+00
         11   -1    0    0    0    0  0.00000000000E+00  0.00000000000E+00  0.39999999674E+01  0.40000000000E+01  0.51100000000E-03 0.  1.
    9000002   -1    0    0    0    0 -0.00000000000E+00 -0.00000000000E+00  0.00000000000E+00  0.93800000000E+00  0.93800000000E+00 0. -1.
         11    1    1    2    0    0 -0.21391943578E-01 -0.40160578713E-01  0.33173618504E+00  0.33484271669E+00  0.51100000000E-03 0.  1.
    9000002    1    1    2    0    0  0.25734601568E+00  0.45195564304E+00  0.18581145250E+00  0.10885131010E+01  0.93800000000E+00 0. -1.
         22    1    1    2    0    0 -0.23595407210E+00 -0.41179506433E+00  0.34824523298E+01  0.35146441824E+01  0.00000000000E+00 0.  1.
</event>
<event>
 5    1  0.6440325E+001  0.1599676E+01  0.7818608E-02  0.3353715E+00
         11   -1    0    0    0    0  0.00000000000E+00  0.00000000000E+00  0.39999999674E+01  0.40000000000E+01  0.51100000000E-03 0.  1.
    9000002   -1    0    0    0    0 -0.00000000000E+00 -0.00000000000E+00  0.00000000000E+00  0.93800000000E+00  0.93800000000E+00 0. -1.
         11    1    1    2    0    0  0.88562314176E-01 -0.34900911070E-01  0.94829608504E+00  0.95306195134E+00  0.51100000000E-03 0.  1.
    9000002    1    1    2    0    0 -0.36068454367E+00  0.14295990698E+00  0.10138289050E+00  0.10201241912E+01  0.93800000000E+00 0. -1.
         22    1    1    2    0    0  0.27212222949E+00 -0.10805899591E+00  0.29503209918E+01  0.29648138574E+01  0.00000000000E+00 0.  1.
</event>
<event>
 5    1  0.6440325E+001  0.1597672E+01  0.7818608E-02  0.3355895E+00
         11   -1    0    0    0    0  0.00000000000E+00  0.00000000000E+00  0.39999999674E+01  0.40000000000E+01  0.51100000000E-03 0.  1.
    9000002   -1    0    0    0    0 -0.00000000000E+00 -0.00000000000E+00  0.00000000000E+00  0.93800000000E+00  0.93800000000E+00 0. -1.
         11    1    1    2    0    0  0.60747039730E-01  0.15015534021E+00  0.14164353469E+01  0.14256669254E+01  0.51100000000E-03 0.  1.
    9000002    1    1    2    0    0 -0.28941680504E+00 -0.34058980247E+00  0.13734525893E+00  0.10480797778E+01  0.93800000000E+00 0. -1.
         22    1    1    2    0    0  0.22866976531E+00  0.19043446226E+00  0.24462193615E+01  0.24642532968E+01  0.00000000000E+00 0.  1.
</event>
<event>
 5    1  0.6440325E+001  0.1598684E+01  0.7818608E-02  0.3354793E+00
         11   -1    0    0    0    0  0.00000000000E+00  0.00000000000E+00  0.39999999674E+01  0.40000000000E+01  0.51100000000E-03 0.  1.
    9000002   -1    0    0    0    0 -0.00000000000E+00 -0.00000000000E+00  0.00000000000E+00  0.93800000000E+00  0.93800000000E+00 0.  1.
         11    1    1    2    0    0  0.65114459146E-02 -0.13215909956E-01  0.21351708178E+00  0.21402538292E+00  0.51100000000E-03 0.  1.
    9000002    1    1    2    0    0 -0.39121643716E+00  0.83182591172E-01  0.10872895797E+00  0.10254928720E+01  0.93800000000E+00 0.  1.
         22    1    1    2    0    0  0.38470499124E+00 -0.69966681216E-01  0.36777539276E+01  0.36984817451E+01  0.00000000000E+00 0.  1.
</event>
<event>
 5    1  0.6440325E+001  0.1596773E+01  0.7818608E-02  0.3356873E+00
         11   -1    0    0    0    0  0.00000000000E+00  0.00000000000E+00  0.39999999674E+01  0.40000000000E+01  0.51100000000E-03 0.  1.
    9000002   -1    0    0    0    0 -0.00000000000E+00 -0.00000000000E+00  0.00000000000E+00  0.93800000000E+00  0.93800000000E+00 0. -1.
         11    1    1    2    0    0 -0.22315720178E-01  0.48793700362E-01  0.12751167472E+01  0.12762451946E+01  0.51100000000E-03 0.  1.
    9000002    1    1    2    0    0  0.22375566691E+00 -0.25490389878E+00  0.79373509558E-01  0.10005931991E+01  0.93800000000E+00 0. -1.
         22    1    1    2    0    0 -0.20143994673E+00  0.20611019842E+00  0.26455097106E+01  0.26611616063E+01  0.00000000000E+00 0.  1.
</event>
<event>
 5    1  0.6440325E+001  0.1485924E+01  0.7818608E-02  0.3487315E+00
         11   -1    0    0    0    0  0.00000000000E+00  0.00000000000E+00  0.39999999674E+01  0.40000000000E+01  0.51100000000E-03 0. -1.
    9000002   -1    0    0    0    0 -0.00000000000E+00 -0.00000000000E+00  0.00000000000E+00  0.93800000000E+00  0.93800000000E+00 0. -1.
         11    1    1    2    0    0 -0.28711990202E+00  0.33647952515E+00  0.68534236160E+00  0.81569033505E+00  0.51100000000E-03 0. -1.
    9000002    1    1    2    0    0  0.23871827253E+00  0.52870961249E-02  0.19971942581E+00  0.98830471823E+00  0.93800000000E+00 0. -1.
         22    1    1    2    0    0  0.48401629496E-01 -0.34176662127E+00  0.31149381799E+01  0.31340049467E+01  0.00000000000E+00 0. -1.
</event>
<event>
 5    1  0.6440325E+001  0.1599628E+01  0.7818608E-02  0.3353768E+00
         11   -1    0    0    0    0  0.00000000000E+00  0.00000000000E+00  0.39999999674E+01  0.40000000000E+01  0.51100000000E-03 0.  1.
    9000002   -1    0    0    0    0 -0.00000000000E+00 -0.00000000000E+00  0.00000000000E+00  0.93800000000E+00  0.93800000000E+00 0. -1.
         11    1    1    2    0    0  0.20021576614E-01 -0.18591551161E-01  0.33585625887E+00  0.33696616603E+00  0.51100000000E-03 0.  1.
    9000002    1    1    2    0    0 -0.28829276510E+00  0.21339457478E+00  0.86384861192E-01  0.10079465795E+01  0.93800000000E+00 0. -1.
         22    1    1    2    0    0  0.26827118848E+00 -0.19480302362E+00  0.35777588473E+01  0.35930872544E+01  0.00000000000E+00 0.  1.
</event>
<event>
 5    1  0.6440325E+001  0.1599660E+01  0.7818608E-02  0.3353733E+00
         11   -1    0    0    0    0  0.00000000000E+00  0.00000000000E+00  0.39999999674E+01  0.40000000000E+01  0.51100000000E-03 0. -1.
    9000002   -1    0    0    0    0 -0.00000000000E+00 -0.00000000000E+00  0.00000000000E+00  0.93800000000E+00  0.93800000000E+00 0. -1.
         11    1    1    2    0    0  0.17397363057E+00  0.61110739405E-01  0.11707714931E+01  0.11852035677E+01  0.51100000000E-03 0. -1.
    9000002    1    1    2    0    0 -0.56476555121E+00 -0.18288568149E+00  0.24555944006E+00  0.11369040148E+01  0.93800000000E+00 0. -1.
         22    1    1    2    0    0  0.39079192063E+00  0.12177494209E+00  0.25836690342E+01  0.26158924175E+01  0.00000000000E+00 0. -1.
</event>
<event>
 5    1  0.6440325E+001  0.1475297E+01  0.7818608E-02  0.3500928E+00
         11   -1    0    0    0    0  0.00000000000E+00  0.00000000000E+00  0.39999999674E+01  0.40000000000E+01  0.51100000000E-03 0.  1.
    9000002   -1    0    0    0    0 -0.00000000000E+00 -0.00000000000E+00  0.00000000000E+00  0.93800000000E+00  0.93800000000E+00 0. -1.
         11    1    1    2    0    0 -0.61472195979E-01 -0.29201770677E+00  0.31605294824E+00  0.43467562522E+00  0.51100000000E-03 0.  1.
    9000002    1    1    2    0    0 -0.35330134226E+00  0.52251075934E+00  0.42123069388E+00  0.12062829807E+01  0.93800000000E+00 0. -1.
         22    1    1    2    0    0  0.41477353824E+00 -0.23049305257E+00  0.32627163252E+01  0.32970413941E+01  0.00000000000E+00 0.  1.
</event>
<event>
 5    1  0.6440325E+001  0.1599369E+01  0.7818608E-02  0.3354048E+00
         11   -1    0    0    0    0  0.00000000000E+00  0.00000000000E+00  0.39999999674E+01  0.40000000000E+01  0.51100000000E-03 0.  1.
    9000002   -1    0    0    0    0 -0.00000000000E+00 -0.00000000000E+00  0.00000000000E+00  0.93800000000E+00  0.93800000000E+00 0.  1.
         11    1    1    2    0    0 -0.95001036389E-01 -0.23948036297E-01  0.75191047572E+00  0.75826666152E+00  0.51100000000E-03 0.  1.
    9000002    1    1    2    0    0  0.40909498692E+00  0.15611136871E+00  0.13025412296E+00  0.10433310138E+01  0.93800000000E+00 0.  1.
         22    1    1    2    0    0 -0.31409395053E+00 -0.13216333241E+00  0.31178353687E+01  0.31364023247E+01  0.00000000000E+00 0.  1.
</event>
<event>
 5    1  0.6440325E+001  0.1599666E+01  0.7818608E-02  0.3353726E+00
         11   -1    0    0    0    0  0.00000000000E+00  0.00000000000E+00  0.39999999674E+01  0.40000000000E+01  0.51100000000E-03 0.  1.
    9000002   -1    0    0    0    0 -0.00000000000E+00 -0.00000000000E+00  0.00000000000E+00  0.93800000000E+00  0.93800000000E+00 0.  1.
         11    1    1    2    0    0 -0.80219477162E-01  0.54549379756E-01  0.87408015844E+00  0.87944708985E+00  0.51100000000E-03 0.  1.
    9000002    1    1    2    0    0  0.34157132860E+00 -0.24551570603E+00  0.11969143858E+00  0.10349487789E+01  0.93800000000E+00 0.  1.
         22    1    1    2    0    0 -0.26135185144E+00  0.19096632627E+00  0.30062283703E+01  0.30236041313E+01  0.00000000000E+00 0.  1.
</event>
<event>
 5    1  0.6440325E+001  0.1593451E+01  0.7818608E-02  0.3360502E+00
         11   -1    0    0    0    0  0.00000000000E+00  0.00000000000E+00  0.39999999674E+01  0.40000000000E+01  0.51100000000E-03 0. -1.
    9000002   -1    0    0    0    0 -0.00000000000E+00 -0.00000000000E+00  0.00000000000E+00  0.93800000000E+00  0.93800000000E+00 0. -1.
         11    1    1    2    0    0 -0.15972326422E+00  0.11272237960E+00  0.11053066590E+01  0.11224619938E+01  0.51100000000E-03 0. -1.
    9000002    1    1    2    0    0  0.25760003822E+00 -0.36694898946E+00  0.14187894113E+00  0.10492773582E+01  0.93800000000E+00 0. -1.
         22    1    1    2    0    0 -0.97876773995E-01  0.25422660986E+00  0.27528143673E+01  0.27662606480E+01  0.00000000000E+00 0. -1.
</event>
<event>
 5    1  0.6440325E+001  0.1599607E+01  0.7818608E-02  0.3353790E+00
         11   -1    0    0    0    0  0.00000000000E+00  0.00000000000E+00  0.39999999674E+01  0.40000000000E+01  0.51100000000E-03 0. -1.
    9000002   -1    0    0    0    0 -0.00000000000E+00 -0.00000000000E+00  0.00000000000E+00  0.93800000000E+00  0.93800000000E+00 0. -1.
         11    1    1    2    0    0  0.81814906497E-01 -0.81326039343E-01  0.10684361857E+01  0.10746458708E+01  0.51100000000E-03 0. -1.
    9000002    1    1    2    0    0 -0.28595986502E+00  0.26626593659E+00  0.10291618070E+00  0.10213257725E+01  0.93800000000E+00 0. -1.
         22    1    1    2    0    0  0.20414495852E+00 -0.18493989725E+00  0.28286476009E+01  0.28420283566E+01  0.00000000000E+00 0. -1.
</event>
<event>
 5    1  0.6440325E+001  0.1590768E+01  0.7818608E-02  0.3363445E+00
         11   -1    0    0    0    0  0.00000000000E+00  0.00000000000E+00  0.39999999674E+01  0.40000000000E+01  0.51100000000E-03 0.  1.
    9000002   -1    0    0    0    0 -0.00000000000E+00 -0.00000000000E+00  0.00000000000E+00  0.93800000000E+00  0.93800000000E+00 0. -1.
         11    1    1    2    0    0 -0.78766026418E-01  0.29402461066E-01  0.14046067132E+01  0.14071207737E+01  0.51100000000E-03 0.  1.
    9000002    1    1    2    0    0  0.51245733689E+00 -0.86365801788E-01  0.19372113953E+00  0.10896987904E+01  0.93800000000E+00 0. -1.
         22    1    1    2    0    0 -0.43369131047E+00  0.56963340722E-01  0.24016721146E+01  0.24411804360E+01  0.00000000000E+00 0.  1.
</event>
<event>
 5    1  0.6440325E+001  0.1599350E+01  0.7818608E-02  0.3354070E+00
         11   -1    0    0    0    0  0.00000000000E+00  0.00000000000E+00  0.39999999674E+01  0.40000000000E+01  0.51100000000E-03 0. -1.
    9000002   -1    0    0    0    0 -0.00000000000E+00 -0.00000000000E+00  0.00000000000E+00  0.93800000000E+00  0.93800000000E+00 0. -1.
         11    1    1    2    0    0 -0.10685921617E+00  0.65265679258E-01  0.12033319756E+01  0.12098291638E+01  0.51100000000E-03 0. -1.
    9000002    1    1    2    0    0  0.37465101241E+00 -0.15284006569E+00  0.11077422193E+00  0.10275399725E+01  0.93800000000E+00 0. -1.
         22    1    1    2    0    0 -0.26779179624E+00  0.87574386428E-01  0.26858937699E+01  0.27006308638E+01  0.00000000000E+00 0. -1.
</event>
<event>
 5    1  0.6440325E+001  0.1599643E+01  0.7818608E-02  0.3353751E+00
         11   -1    0    0    0    0  0.00000000000E+00  0.00000000000E+00  0.39999999674E+01  0.40000000000E+01  0.51100000000E-03 0. -1.
    9000002   -1    0    0    0    0 -0.00000000000E+00 -0.00000000000E+00  0.00000000000E+00  0.93800000000E+00  0.93800000000E+00 0. -1.
         11    1    1    2    0    0 -0.56450464564E-01  0.10898538371E+00  0.11418736465E+01  0.11484511982E+01  0.51100000000E-03 0. -1.
    9000002    1    1    2    0    0  0.18658372835E+00 -0.35057027633E+00  0.10636975946E+00  0.10241442926E+01  0.93800000000E+00 0. -1.
         22    1    1    2    0    0 -0.13013326378E+00  0.24158489262E+00  0.27517565614E+01  0.27654045092E+01  0.00000000000E+00 0. -1.
</event>
<event>
 5    1  0.6914082E+001  0.1546232E+01  0.7818608E-02  0.3413872E+00
         11   -1    0    0    0    0  0.00000000000E+00  0.00000000000E+00  0.39999999674E+01  0.40000000000E+01  0.51100000000E-03 0. -1.
    9000002   -1    0    0    0    0 -0.00000000000E+00 -0.00000000000E+00  0.00000000000E+00  0.93800000000E+00  0.93800000000E+00 0. -1.
         11    1    1    2    0    0  0.23383874568E+00  0.15444025500E-01  0.10766105548E+01  0.11018210493E+01  0.51100000000E-03 0. -1.
    9000002    1    1    2    0    0  0.51727985209E-01 -0.87526191946E-01  0.46908543083E-01  0.94465921376E+00  0.93800000000E+00 0. -1.
         22    1    1    2    0    0 -0.28556673089E+00  0.72082166446E-01  0.28764808695E+01  0.28915197369E+01  0.00000000000E+00 0. -1.
</event>
<event>
 5    1  0.6440325E+001  0.1597885E+01  0.7818608E-02  0.3355662E+00
         11   -1    0    0    0    0  0.00000000000E+00  0.00000000000E+00  0.39999999674E+01  0.40000000000E+01  0.51100000000E-03 0.  1.
    9000002   -1    0    0    0    0 -0.00000000000E+00 -0.00000000000E+00  0.00000000000E+00  0.93800000000E+00  0.93800000000E+00 0.  1.
         11    1    1    2    0    0  0.39198085372E-01 -0.13539732290E-01  0.30473538845E+00  0.30754468349E+00  0.51100000000E-03 0.  1.
    9000002    1    1    2    0    0 -0.33590324069E+00 -0.13475024497E+00  0.89402166920E-01  0.10093687944E+01  0.93800000000E+00 0.  1.
         22    1    1    2    0    0  0.29670515532E+00  0.14828997726E+00  0.36058624120E+01  0.36210865221E+01  0.00000000000E+00 0.  1.
</event>
<event>
 5    1  0.6440325E+001  0.1599382E+01  0.7818608E-02  0.3354034E+00
         11   -1    0    0    0    0  0.00000000000E+00  0.00000000000E+00  0.39999999674E+01  0.40000000000E+01  0.51100000000E-03 0.  1.
    9000002   -1    0    0    0    0 -0.00000000000E+00 -0.00000000000E+00  0.00000000000E+00  0.93800000000E+00  0.93800000000E+00 0. -1.
         11    1    1    2    0    0  0.24832966793E-01  0.69362137158E-01  0.54099418836E+00  0.54598787099E+00  0.51100000000E-03 0.  1.
    9000002    1    1    2    0    0 -0.27222352888E+00 -0.50471270433E+00  0.22845781606E+00  0.11228880342E+01  0.93800000000E+00 0. -1.
         22    1    1    2    0    0  0.24739056209E+00  0.43535056717E+00  0.32305479629E+01  0.32691240948E+01  0.00000000000E+00 0.  1.
</event>
<event>
 5    1  0.6440325E+001  0.1584028E+01  0.7818608E-02  0.3370883E+00
         11   -1    0    0    0    0  0.00000000000E+00  0.00000000000E+00  0.39999999674E+01  0.40000000000E+01  0.51100000000E-03 0.  1.
    9000002   -1    0    0    0    0 -0.00000000000E+00 -0.00000000000E+00  0.00000000000E+00  0.93800000000E+00  0.93800000000E+00 0. -1.
         11    1    1    2    0    0  0.89922883916E-01 -0.36391324607E-01  0.90004269530E+00  0.90525552638E+00  0.51100000000E-03 0.  1.
    9000002    1    1    2    0    0 -0.40485404942E-01 -0.26656000083E+00  0.60529027976E-01  0.97785533965E+00  0.93800000000E+00 0. -1.
         22    1    1    2    0    0 -0.49437478973E-01  0.30295132544E+00  0.30394282441E+01  0.30548891340E+01  0.00000000000E+00 0.  1.
</event>
<event>
 5    1  0.6440325E+001  0.1597443E+01  0.7818608E-02  0.3356143E+00
         11   -1    0    0    0    0  0.00000000000E+00  0.00000000000E+00  0.39999999674E+01  0.40000000000E+01  0.51100000000E-03 0. -1.
    9000002   -1    0    0    0    0 -0.00000000000E+00 -0.00000000000E+00  0.00000000000E+00  0.93800000000E+00  0.93800000000E+00 0.  1.
         11    1    1    2    0    0  0.11592883368E-01  0.27714888608E-01  0.69950465496E+00  0.70014965074E+00  0.51100000000E-03 0. -1.
    9000002    1    1    2    0    0 -0.25059045081E+00 -0.31133411337E+00  0.10959295010E+00  0.10254653182E+01  0.93800000000E+00 0.  1.
         22    1    1    2    0    0  0.23899756744E+00  0.28361922476E+00  0.31909023623E+01  0.32123850310E+01  0.00000000000E+00 0. -1.
</event>
<event>
 5    1  0.6440325E+001  0.1599676E+01  0.7818608E-02  0.3353715E+00
         11   -1    0    0    0    0  0.00000000000E+00  0.00000000000E+00  0.39999999674E+01  0.40000000000E+01  0.51100000000E-03 0. -1.
    9000002   -1    0    0    0    0 -0.00000000000E+00 -0.00000000000E+00  0.00000000000E+00  0.93800000000E+00  0.93800000000E+00 0. -1.
         11    1    1    2    0    0  0.34547934426E-01 -0.10370890436E+00  0.10305932810E+01  0.10363743863E+01  0.51100000000E-03 0. -1.
    9000002    1    1    2    0    0 -0.13156475884E+00  0.38849613280E+00  0.11363113586E+00  0.10300459048E+01  0.93800000000E+00 0. -1.
         22    1    1    2    0    0  0.97016824416E-01 -0.28478722845E+00  0.28557755505E+01  0.28715797089E+01  0.00000000000E+00 0. -1.
</event>
<event>
 5    1  0.6440325E+001  0.1596817E+01  0.7818608E-02  0.3356826E+00
         11   -1    0    0    0    0  0.00000000000E+00  0.00000000000E+00  0.39999999674E+01  0.40000000000E+01  0.51100000000E-03 0. -1.
    9000002   -1    0    0    0    0 -0.00000000000E+00 -0.00000000000E+00  0.00000000000E+00  0.93800000000E+00  0.93800000000E+00 0.  1.
         11    1    1    2    0    0  0.98840059475E-01 -0.20795591679E-01  0.77267136833E+00  0.77924522363E+00  0.51100000000E-03 0. -1.
    9000002    1    1    2    0    0 -0.31190329011E+00  0.28528543728E+00  0.12330362611E+00  0.10362042402E+01  0.93800000000E+00 0.  1.
         22    1    1    2    0    0  0.21306323064E+00 -0.26448984560E+00  0.31040249729E+01  0.31225505362E+01  0.00000000000E+00 0. -1.
</event>
<event>
 5    1  0.6440325E+001  0.1599588E+01  0.7818608E-02  0.3353811E+00
         11   -1    0    0    0    0  0.00000000000E+00  0.00000000000E+00  0.39999999674E+01  0.40000000000E+01  0.51100000000E-03 0. -1.
    9000002   -1    0    0    0    0 -0.00000000000E+00 -0.00000000000E+00  0.00000000000E+00  0.93800000000E+00  0.93800000000E+00 0.  1.
         11    1    1    2    0    0 -0.13481520608E-01  0.14578522164E-02  0.12020010894E+00  0.12096364760E+00  0.51100000000E-03 0. -1.
    9000002    1    1    2    0    0  0.36166865772E+00  0.53282291747E-01  0.89839363368E-01  0.10107216886E+01  0.93800000000E+00 0.  1.
         22    1    1    2    0    0 -0.34818713711E+00 -0.54740143963E-01  0.37899604951E+01  0.38063146638E+01  0.00000000000E+00 0. -1.
</event>
<event>
 5    1  0.6440325E+001  0.1599534E+01  0.7818608E-02  0.3353870E+00
         11   -1    0    0    0    0  0.00000000000E+00  0.00000000000E+00  0.39999999674E+01  0.40000000000E+01  0.51100000000E-03 0. -1.
    9000002   -1    0    0    0    0 -0.00000000000E+00 -0.00000000000E+00  0.00000000000E+00  0.93800000000E+00  0.93800000000E+00 0.  1.
         11    1    1    2    0    0 -0.13041912778E+00  0.15287951593E-01  0.12087896604E+01  0.12159011369E+01  0.51100000000E-03 0. -1.
    9000002    1    1    2    0    0  0.45586944491E+00 -0.32478572918E-01  0.14213529897E+00  0.10530518751E+01  0.93800000000E+00 0.  1.
         22    1    1    2    0    0 -0.32545031713E+00  0.17190621325E-01  0.26490750079E+01  0.26690469880E+01  0.00000000000E+00 0. -1.
</event>
<event>
 5    1  0.6440325E+001  0.1599677E+01  0.7818608E-02  0.3353714E+00
         11   -1    0    0    0    0  0.00000000000E+00  0.00000000000E+00  0.39999999674E+01  0.40000000000E+01  0.51100000000E-03 0.  1.
    9000002   -1    0    0    0    0 -0.00000000000E+00 -0.00000000000E+00  0.00000000000E+00  0.93800000000E+00  0.93800000000E+00 0.  1.
         11    1    1    2    0    0 -0.41415672580E-01  0.14926314490E+00  0.10532104535E+01  0.10645408704E+01  0.51100000000E-03 0.  1.
    9000002    1    1    2    0    0  0.15078323200E+00 -0.53545221392E+00  0.21399085288E+00  0.11113418653E+01  0.93800000000E+00 0.  1.
         22    1    1    2    0    0 -0.10936755942E+00  0.38618906902E+00  0.27327986610E+01  0.27621172643E+01  0.00000000000E+00 0.  1.
</event>
<event>
 5    1  0.6440325E+001  0.1599370E+01  0.7818608E-02  0.3354048E+00
         11   -1    0    0    0    0  0.00000000000E+00  0.00000000000E+00  0.39999999674E+01  0.40000000000E+01  0.51100000000E-03 0. -1.
    9000002   -1    0    0    0    0 -0.00000000000E+00 -0.00000000000E+00  0.00000000000E+00  0.93800000000E+00  0.93800000000E+00 0.  1.
         11    1    1    2    0    0 -0.79632658204E-01 -0.46730478579E-01  0.65308405963E+00  0.65957876554E+00  0.51100000000E-03 0. -1.
    9000002    1    1    2    0    0  0.39038300457E+00  0.22724682834E+00  0.13888132916E+00  0.10503199678E+01  0.93800000000E+00 0.  1.
         22    1    1    2    0    0 -0.31075034637E+00 -0.18051634976E+00  0.32080345786E+01  0.32281012666E+01  0.00000000000E+00 0. -1.
</event>
<event>
 5    1  0.6440325E+001  0.1599651E+01  0.7818608E-02  0.3353742E+00
         11   -1    0    0    0    0  0.00000000000E+00  0.00000000000E+00  0.39999999674E+01  0.40000000000E+01  0.51100000000E-03 0. -1.
    9000002   -1    0    0    0    0 -0.00000000000E+00 -0.00000000000E+00  0.00000000000E+00  0.93800000000E+00  0.93800000000E+00 0. -1.
         11    1    1    2    0    0  0.72837980123E-01 -0.11744249092E+00  0.11699424280E+01  0.11780762522E+01  0.51100000000E-03 0. -1.
    9000002    1    1    2    0    0 -0.23146230757E+00  0.37240710652E+00  0.13038481583E+00  0.10436024401E+01  0.93800000000E+00 0. -1.
         22    1    1    2    0    0  0.15862432745E+00 -0.25496461560E+00  0.26996727235E+01  0.27163213077E+01  0.00000000000E+00 0. -1.
</event>
<event>
 5    1  0.6440325E+001  0.1599366E+01  0.7818608E-02  0.3354052E+00
         11   -1    0    0    0    0  0.00000000000E+00  0.00000000000E+00  0.39999999674E+01  0.40000000000E+01  0.51100000000E-03 0.  1.
    9000002   -1    0    0    0    0 -0.00000000000E+00 -0.00000000000E+00  0.00000000000E+00  0.93800000000E+00  0.93800000000E+00 0.  1.
         11    1    1    2    0    0  0.12866527456E-02 -0.10312621403E+00  0.10566682335E+01  0.10616895442E+01  0.51100000000E-03 0.  1.
    9000002    1    1    2    0    0  0.16555256283E-01  0.44358038838E+00  0.13397284169E+00  0.10463414164E+01  0.93800000000E+00 0.  1.
         22    1    1    2    0    0 -0.17841909028E-01 -0.34045417434E+00  0.28093588922E+01  0.28299690394E+01  0.00000000000E+00 0.  1.
</event>
<event>
 5    1  0.6440325E+001  0.1485839E+01  0.7818608E-02  0.3487423E+00
         11   -1    0    0    0    0  0.00000000000E+00  0.00000000000E+00  0.39999999674E+01  0.40000000000E+01  0.51100000000E-03 0.  1.
    9000002   -1    0    0    0    0 -0.00000000000E+00 -0.00000000000E+00  0.00000000000E+00  0.93800000000E+00  0.93800000000E+00 0. -1.
         11    1    1    2    0    0  0.18813243433E+00  0.22884451508E+00  0.61322802381E+00  0.68103780749E+00  0.51100000000E-03 0.  1.
    9000002    1    1    2    0    0  0.16370402556E+00 -0.10942307729E+00  0.11632603061E+00  0.96547820443E+00  0.93800000000E+00 0. -1.
         22    1    1    2    0    0 -0.35183645988E+00 -0.11942143778E+00  0.32704459129E+01  0.32914839881E+01  0.00000000000E+00 0.  1.
</event>
<event>
 5    1  0.6440325E+001  0.1599569E+01  0.7818608E-02  0.3353832E+00
         11   -1    0    0    0    0  0.00000000000E+00  0.00000000000E+00  0.39999999674E+01  0.40000000000E+01  0.51100000000E-03 0. -1.
    9000002   -1    0    0    0    0 -0.00000000000E+00 -0.00000000000E+00  0.00000000000E+00  0.93800000000E+00  0.93800000000E+00 0.  1.
         11    1    1    2    0    0  0.11160723067E+00 -0.59733181954E-01  0.92611822197E+00  0.93472961286E+00  0.51100000000E-03 0. -1.
    9000002    1    1    2    0    0 -0.49726690571E+00  0.25978109005E+00  0.21797081520E+00  0.11145025198E+01  0.93800000000E+00 0.  1.
         22    1    1    2    0    0  0.38565967504E+00 -0.20004790810E+00  0.28559109302E+01  0.28887678674E+01  0.00000000000E+00 0. -1.
</event>
<event>
 5    1  0.6440325E+001  0.1599673E+01  0.7818608E-02  0.3353718E+00
         11   -1    0    0    0    0  0.00000000000E+00  0.00000000000E+00  0.39999999674E+01  0.40000000000E+01  0.51100000000E-03 0.  1.
    9000002   -1    0    0    0    0 -0.00000000000E+00 -0.00000000000E+00  0.00000000000E+00  0.93800000000E+00  0.93800000000E+00 0.  1.
         11    1    1    2    0    0 -0.65720775729E-01 -0.88680955762E-01  0.12338443346E+01  0.12387718254E+01  0.51100000000E-03 0.  1.
    9000002    1    1    2    0    0  0.21182310691E+00  0.28762164194E+00  0.85625957729E-01  0.10073584477E+01  0.93800000000E+00 0.  1.
         22    1    1    2    0    0 -0.14610233119E+00 -0.19894068618E+00  0.26805296750E+01  0.26918697269E+01  0.00000000000E+00 0.  1.
</event>
<event>
 5    1  0.6440325E+001  0.1583167E+01  0.7818608E-02  0.3371838E+00
         11   -1    0    0    0    0  0.00000000000E+00  0.00000000000E+00  0.39999999674E+01  0.40000000000E+01  0.51100000000E-03 0.  1.
    9000002   -1    0    0    0    0 -0.00000000000E+00 -0.00000000000E+00  0.00000000000E+00  0.93800000000E+00  0.93800000000E+00 0.  1.
         11    1    1    2    0    0  0.29760961435E-01  0.11062395337E+00  0.40165553203E+00  0.41767307959E+00  0.51100000000E-03 0.  1.
    9000002    1    1    2    0    0  0.28081703524E+00 -0.34392105730E+00  0.14810861938E+00  0.10482938825E+01  0.93800000000E+00 0.  1.
         22    1    1    2    0    0 -0.31057799667E+00  0.23329710393E+00  0.34502358160E+01  0.34720330379E+01  0.00000000000E+00 0.  1.
</event>
<event>
 5    1  0.6440325E+001  0.1541791E+01  0.7818608E-02  0.3419070E+00
         11   -1    0    0    0    0  0.00000000000E+00  0.00000000000E+00  0.39999999674E+01  0.40000000000E+01  0.51100000000E-03 0. -1.
    9000002   -1    0    0    0    0 -0.00000000000E+00 -0.00000000000E+00  0.00000000000E+00  0.93800000000E+00  0.93800000000E+00 0.  1.
         11    1    1    2    0    0 -0.74574088292E-01 -0.12340793724E+00  0.17108422089E+00  0.22374290017E+00  0.51100000000E-03 0. -1.
    9000002    1    1    2    0    0 -0.36532865579E+00  0.59657481982E+00  0.41777905158E+00  0.12424773150E+01  0.93800000000E+00 0.  1.
         22    1    1    2    0    0  0.43990274408E+00 -0.47316688258E+00  0.34111366949E+01  0.34717797848E+01  0.00000000000E+00 0. -1.
</event>
<event>
 5    1  0.6440325E+001  0.1598458E+01  0.7818608E-02  0.3355038E+00
         11   -1    0    0    0    0  0.00000000000E+00  0.00000000000E+00  0.39999999674E+01  0.40000000000E+01  0.51100000000E-03 0. -1.
    9000002   -1    0    0    0    0 -0.00000000000E+00 -0.00000000000E+00  0.00000000000E+00  0.93800000000E+00  0.93800000000E+00 0.  1.
         11    1    1    2    0    0  0.10652785631E+00  0.93271095272E-01  0.13652963817E+01  0.13726187207E+01  0.51100000000E-03 0. -1.
    9000002    1    1    2    0    0 -0.19779159876E+00 -0.30782063840E+00  0.90917718339E-01  0.10109327839E+01  0.93800000000E+00 0.  1.
         22    1    1    2    0    0  0.91263742453E-01  0.21454954313E+00  0.25437858673E+01  0.25544484955E+01  0.00000000000E+00 0. -1.
</event>
<event>
 5    1  0.6440325E+001  0.1599525E+01  0.7818608E-02  0.3353880E+00
         11   -1    0    0    0    0  0.00000000000E+00  0.00000000000E+00  0.39999999674E+01  0.40000000000E+01  0.51100000000E-03 0. -1.
    9000002   -1    0    0    0    0 -0.00000000000E+00 -0.00000000000E+00  0.00000000000E+00  0.93800000000E+00  0.93800000000E+00 0.  1.
         11    1    1    2    0    0 -0.10112346420E+00 -0.16335269958E+00  0.13578697287E+01  0.13713936418E+01  0.51100000000E-03 0. -1.
    9000002    1    1    2    0    0  0.30596410484E+00  0.48497069126E+00  0.22829815201E+00  0.11228422200E+01  0.93800000000E+00 0.  1.
         22    1    1    2    0    0 -0.20484064065E+00 -0.32161799168E+00  0.24138320866E+01  0.24437641382E+01  0.00000000000E+00 0. -1.
</event>
<event>
 5    1  0.6440325E+001  0.1599676E+01  0.7818608E-02  0.3353715E+00
         11   -1    0    0    0    0  0.00000000000E+00  0.00000000000E+00  0.39999999674E+01  0.40000000000E+01  0.51100000000E-03 0. -1.
    9000002   -1    0    0    0    0 -0.00000000000E+00 -0.00000000000E+00  0.00000000000E+00  0.93800000000E+00  0.93800000000E+00 0. -1.
         11    1    1    2    0    0 -0.11228814461E-01  0.37025630587E-01  0.42300742460E+00  0.42477349962E+00  0.51100000000E-03 0. -1.
    9000002    1    1    2    0    0  0.10120141325E+00 -0.33950413012E+00  0.84192672758E-01  0.10061993771E+01  0.93800000000E+00 0. -1.
         22    1    1    2    0    0 -0.89972598791E-01  0.30247849954E+00  0.34927998700E+01  0.35070271232E+01  0.00000000000E+00 0. -1.
</event>
<event>
 5    1  0.6440325E+001  0.1599676E+01  0.7818608E-02  0.3353715E+00
         11   -1    0    0    0    0  0.00000000000E+00  0.00000000000E+00  0.39999999674E+01  0.40000000000E+01  0.51100000000E-03 0.  1.
    9000002   -1    0    0    0    0 -0.00000000000E+00 -0.00000000000E+00  0.00000000000E+00  0.93800000000E+00  0.93800000000E+00 0. -1.
         11    1    1    2    0    0 -0.14083043871E-01  0.25214294876E-01  0.30096542247E+00  0.30234837428E+00  0.51100000000E-03 0. -1.
    9000002    1    1    2    0    0  0.18285623479E+00 -0.33167220580E+00  0.96500050385E-01  0.10161688415E+01  0.93800000000E+00 0. -1.
         22    1    1    2    0    0 -0.16877319092E+00  0.30645791093E+00  0.36025344945E+01  0.36194827842E+01  0.00000000000E+00 0.  1.
</event>
<event>
 5    1  0.6440325E+001  0.1599671E+01  0.7818608E-02  0.3353721E+00
         11   -1    0    0    0    0  0.00000000000E+00  0.00000000000E+00  0.39999999674E+01  0.40000000000E+01  0.51100000000E-03 0. -1.
    9000002   -1    0    0    0    0 -0.00000000000E+00 -0.00000000000E+00  0.00000000000E+00  0.93800000000E+00  0.93800000000E+00 0. -1.
         11    1    1    2    0    0 -0.15296469911E-02 -0.99314711106E-02  0.86192810166E-01  0.86778082392E-01  0.51100000000E-03 0. -1.
    9000002    1    1    2    0    0  0.49070149129E-01  0.41942685507E+00  0.12064618117E+00  0.10357249960E+01  0.93800000000E+00 0. -1.
         22    1    1    2    0    0 -0.47540502138E-01 -0.40949538396E+00  0.37931609760E+01  0.38154969216E+01  0.00000000000E+00 0. -1.
</event>
<event>
 5    1  0.6440325E+001  0.1501805E+01  0.7818608E-02  0.3467360E+00
         11   -1    0    0    0    0  0.00000000000E+00  0.00000000000E+00  0.39999999674E+01  0.40000000000E+01  0.51100000000E-03 0.  1.
    9000002   -1    0    0    0    0 -0.00000000000E+00 -0.00000000000E+00  0.00000000000E+00  0.93800000000E+00  0.93800000000E+00 0.  1.
         11    1    1    2    0    0  0.63753116261E-01 -0.22811439999E+00  0.50438470875E+00  0.55722960695E+00  0.51100000000E-03 0.  1.
    9000002    1    1    2    0    0  0.39339319468E-01 -0.14341888072E+00  0.90637130867E-01  0.95403126096E+00  0.93800000000E+00 0.  1.
         22    1    1    2    0    0 -0.10309243573E+00  0.37153328071E+00  0.34049781277E+01  0.34267391321E+01  0.00000000000E+00 0.  1.
</event>
<event>
 5    1  0.6440325E+001  0.1599677E+01  0.7818608E-02  0.3353714E+00
         11   -1    0    0    0    0  0.00000000000E+00  0.00000000000E+00  0.39999999674E+01  0.40000000000E+01  0.51100000000E-03 0.  1.
    9000002   -1    0    0    0    0 -0.00000000000E+00 -0.00000000000E+00  0.00000000000E+00  0.93800000000E+00  0.93800000000E+00 0. -1.
         11    1    1    2    0    0 -0.62610743023E-01  0.85920230178E-01  0.10663717079E+01  0.10716581879E+01  0.51100000000E-03 0.  1.
    9000002    1    1    2    0    0  0.22830247454E+00 -0.31234502549E+00  0.10079676241E+00  0.10196496566E+01  0.93800000000E+00 0. -1.
         22    1    1    2    0    0 -0.16569173152E+00  0.22642479532E+00  0.28328314971E+01  0.28466921556E+01  0.00000000000E+00 0.  1.
</event>
<event>
 5    1  0.6440325E+001  0.1596109E+01  0.7818608E-02  0.3357598E+00
         11   -1    0    0    0    0  0.00000000000E+00  0.00000000000E+00  0.39999999674E+01  0.40000000000E+01  0.51100000000E-03 0.  1.
    9000002   -1    0    0    0    0 -0.00000000000E+00 -0.00000000000E+00  0.00000000000E+00  0.93800000000E+00  0.93800000000E+00 0.  1.
         11    1    1    2    0    0  0.26029212668E-01 -0.20532096122E-01  0.33311045413E+00  0.33475651249E+00  0.51100000000E-03 0.  1.
    9000002    1    1    2    0    0  0.14494621917E+00  0.37791140890E+00  0.11355684492E+00  0.10278937671E+01  0.93800000000E+00 0.  1.
         22    1    1    2    0    0 -0.17097543183E+00 -0.35737931278E+00  0.35533326683E+01  0.35753497204E+01  0.00000000000E+00 0.  1.
</event>
<event>
 5    1  0.6440325E+001  0.1599677E+01  0.7818608E-02  0.3353714E+00
         11   -1    0    0    0    0  0.00000000000E+00  0.00000000000E+00  0.39999999674E+01  0.40000000000E+01  0.51100000000E-03 0.  1.
    9000002   -1    0    0    0    0 -0.00000000000E+00 -0.00000000000E+00  0.00000000000E+00  0.93800000000E+00  0.93800000000E+00 0. -1.
         11    1    1    2    0    0  0.21684293631E+00 -0.19514604341E-02  0.13116798495E+01  0.13294844700E+01  0.51100000000E-03 0. -1.
    9000002    1    1    2    0    0 -0.61722587814E+00  0.50755107589E-02  0.26682037101E+00  0.11541363246E+01  0.93800000000E+00 0. -1.
         22    1    1    2    0    0  0.40038294184E+00 -0.31240503248E-02  0.24214997469E+01  0.24543792054E+01  0.00000000000E+00 0.  1.
</event>
<event>
 5    1  0.6440325E+001  0.1599676E+01  0.7818608E-02  0.3353715E+00
         11   -1    0    0    0    0  0.00000000000E+00  0.00000000000E+00  0.39999999674E+01  0.40000000000E+01  0.51100000000E-03 0. -1.
    9000002   -1    0    0    0    0 -0.00000000000E+00 -0.00000000000E+00  0.00000000000E+00  0.93800000000E+00  0.93800000000E+00 0. -1.
         11    1    1    2    0    0  0.66657065032E-01 -0.62592971021E-02  0.65587482221E+00  0.65928323705E+00  0.51100000000E-03 0. -1.
    9000002    1    1    2    0    0 -0.39953250134E+00  0.34527415557E-01  0.10849023993E+00  0.10258813256E+01  0.93800000000E+00 0. -1.
         22    1    1    2    0    0  0.33287543631E+00 -0.28268118455E-01  0.32356349052E+01  0.32528354374E+01  0.00000000000E+00 0.  1.
</event>
<event>
 5    1  0.6440325E+001  0.1599641E+01  0.7818608E-02  0.3353753E+00
         11   -1    0    0    0    0  0.00000000000E+00  0.00000000000E+00  0.39999999674E+01  0.40000000000E+01  0.51100000000E-03 0. -1.
    9000002   -1    0    0    0    0 -0.00000000000E+00 -0.00000000000E+00  0.00000000000E+00  0.93800000000E+00  0.93800000000E+00 0.  1.
         11    1    1    2    0    0 -0.24095995369E+00 -0.11961893206E+00  0.14527109874E+01  0.14774098491E+01  0.51100000000E-03 0. -1.
    9000002    1    1    2    0    0  0.59352239622E+00  0.30064028748E+00  0.31356732866E+00  0.11919823350E+01  0.93800000000E+00 0.  1.
         22    1    1    2    0    0 -0.35256244253E+00 -0.18102135542E+00  0.22337216513E+01  0.22686078159E+01  0.00000000000E+00 0. -1.
</event>
<event>
 5    1  0.6440325E+001  0.1598056E+01  0.7818608E-02  0.3355476E+00
         11   -1    0    0    0    0  0.00000000000E+00  0.00000000000E+00  0.39999999674E+01  0.40000000000E+01  0.51100000000E-03 0.  1.
    9000002   -1    0    0    0    0 -0.00000000000E+00 -0.00000000000E+00  0.00000000000E+00  0.93800000000E+00  0.93800000000E+00 0.  1.
         11    1    1    2    0    0  0.20724120014E-01  0.24524393029E-01  0.75448897451E+00  0.75517203919E+00  0.51100000000E-03 0.  1.
    9000002    1    1    2    0    0 -0.25176375159E+00 -0.26349766359E+00  0.90517577399E-01  0.10103729198E+01  0.93800000000E+00 0.  1.
         22    1    1    2    0    0  0.23103963157E+00  0.23897327056E+00  0.31549934155E+01  0.31724550410E+01  0.00000000000E+00 0.  1.
</event>
<event>
 5    1  0.6440325E+001  0.1502315E+01  0.7818608E-02  0.3466727E+00
         11   -1    0    0    0    0  0.00000000000E+00  0.00000000000E+00  0.39999999674E+01  0.40000000000E+01  0.51100000000E-03 0.  1.
    9000002   -1    0    0    0    0 -0.00000000000E+00 -0.00000000000E+00  0.00000000000E+00  0.93800000000E+00  0.93800000000E+00 0.  1.
         11    1    1    2    0    0  0.40605123543E+00 -0.69076810132E-01  0.11805809029E+01  0.12503682421E+01  0.51100000000E-03 0.  1.
    9000002    1    1    2    0    0 -0.18770508839E+00  0.21893543299E+00  0.13545607776E+00  0.99063528759E+00  0.93800000000E+00 0.  1.
         22    1    1    2    0    0 -0.21834614705E+00 -0.14985862285E+00  0.26839629867E+01  0.26969964703E+01  0.00000000000E+00 0.  1.
</event>
<event>
 5    1  0.6440325E+001  0.1591931E+01  0.7818608E-02  0.3362168E+00
         11   -1    0    0    0    0  0.00000000000E+00  0.00000000000E+00  0.39999999674E+01  0.40000000000E+01  0.51100000000E-03 0.  1.
    9000002   -1    0    0    0    0 -0.00000000000E+00 -0.00000000000E+00  0.00000000000E+00  0.93800000000E+00  0.93800000000E+00 0.  1.
         11    1    1    2    0    0 -0.33348432167E+00 -0.85705452325E-01  0.12459486997E+01  0.12926506260E+01  0.51100000000E-03 0.  1.
    9000002    1    1    2    0    0  0.73039277809E+00  0.65744523585E-01  0.39708802743E+00  0.12551170679E+01  0.93800000000E+00 0.  1.
         22    1    1    2    0    0 -0.39690845642E+00  0.19960928739E-01  0.23569632402E+01  0.23902323061E+01  0.00000000000E+00 0.  1.
</event>
<event>
 5    1  0.6440325E+001  0.1503906E+01  0.7818608E-02  0.3464754E+00
         11   -1    0    0    0    0  0.00000000000E+00  0.00000000000E+00  0.39999999674E+01  0.40000000000E+01  0.51100000000E-03 0.  1.
    9000002   -1    0    0    0    0 -0.00000000000E+00 -0.00000000000E+00  0.00000000000E+00  0.93800000000E+00  0.93800000000E+00 0. -1.
         11    1    1    2    0    0 -0.25078469563E+00  0.13206540579E+00  0.75191780587E+00  0.80356386359E+00  0.51100000000E-03 0.  1.
    9000002    1    1    2    0    0 -0.52805995029E-01  0.35586320275E-01  0.75752368635E-01  0.94320585275E+00  0.93800000000E+00 0. -1.
         22    1    1    2    0    0  0.30359069066E+00 -0.16765172607E+00  0.31723297929E+01  0.31912302837E+01  0.00000000000E+00 0.  1.
</event>
<event>
 5    1  0.6440325E+001  0.1451445E+01  0.7818608E-02  0.3532270E+00
         11   -1    0    0    0    0  0.00000000000E+00  0.00000000000E+00  0.39999999674E+01  0.40000000000E+01  0.51100000000E-03 0.  1.
    9000002   -1    0    0    0    0 -0.00000000000E+00 -0.00000000000E+00  0.00000000000E+00  0.93800000000E+00  0.93800000000E+00 0.  1.
         11    1    1    2    0    0 -0.95358043043E-01 -0.54177331248E+00  0.12683543144E+01  0.13825101831E+01  0.51100000000E-03 0.  1.
    9000002    1    1    2    0    0 -0.28275060177E+00  0.37690649302E+00  0.30368230244E+00  0.10927366325E+01  0.93800000000E+00 0.  1.
         22    1    1    2    0    0  0.37810864481E+00  0.16486681946E+00  0.24279633505E+01  0.24627531843E+01  0.00000000000E+00 0.  1.
</event>
<event>
 5    1  0.6440325E+001  0.1599677E+01  0.7818608E-02  0.3353714E+00
         11   -1    0    0    0    0  0.00000000000E+00  0.00000000000E+00  0.39999999674E+01  0.40000000000E+01  0.51100000000E-03 0.  1.
    9000002   -1    0    0    0    0 -0.00000000000E+00 -0.00000000000E+00  0.00000000000E+00  0.93800000000E+00  0.93800000000E+00 0.  1.
         11    1    1    2    0    0 -0.15429117112E+00 -0.57294084164E-01  0.14120072894E+01  0.14215671718E+01  0.51100000000E-03 0.  1.
    9000002    1    1    2    0    0  0.42372363978E+00  0.15692694656E+00  0.13870573954E+00  0.10503575923E+01  0.93800000000E+00 0.  1.
         22    1    1    2    0    0 -0.26943246866E+00 -0.99632862391E-01  0.24492869384E+01  0.24660752359E+01  0.00000000000E+00 0.  1.
</event>
<event>
 5    1  0.6440325E+001  0.1599670E+01  0.7818608E-02  0.3353721E+00
         11   -1    0    0    0    0  0.00000000000E+00  0.00000000000E+00  0.39999999674E+01  0.40000000000E+01  0.51100000000E-03 0.  1.
    9000002   -1    0    0    0    0 -0.00000000000E+00 -0.00000000000E+00  0.00000000000E+00  0.93800000000E+00  0.93800000000E+00 0. -1.
         11    1    1    2    0    0  0.81371843027E-01 -0.25126106957E-01  0.82691491561E+00  0.83128890097E+00  0.51100000000E-03 0.  1.
    9000002    1    1    2    0    0 -0.38763373213E+00  0.12896974657E+00  0.11270318726E+00  0.10292905878E+01  0.93800000000E+00 0. -1.
         22    1    1    2    0    0  0.30626188910E+00 -0.10384363961E+00  0.30603818645E+01  0.30774205112E+01  0.00000000000E+00 0.  1.
</event>
<event>
 5    1  0.6440325E+001  0.1587725E+01  0.7818608E-02  0.3366795E+00
         11   -1    0    0    0    0  0.00000000000E+00  0.00000000000E+00  0.39999999674E+01  0.40000000000E+01  0.51100000000E-03 0. -1.
    9000002   -1    0    0    0    0 -0.00000000000E+00 -0.00000000000E+00  0.00000000000E+00  0.93800000000E+00  0.93800000000E+00 0.  1.
         11    1    1    2    0    0  0.59539059923E-02  0.14478883772E-01  0.80114992876E+00  0.80130303665E+00  0.51100000000E-03 0. -1.
    9000002    1    1    2    0    0  0.24008568159E+00  0.36954811894E+00  0.14204341958E+00  0.10460531916E+01  0.93800000000E+00 0.  1.
         22    1    1    2    0    0 -0.24603958758E+00 -0.38402700271E+00  0.30568066190E+01  0.30906437717E+01  0.00000000000E+00 0. -1.
</event>
<event>
 5    1  0.6440325E+001  0.1598879E+01  0.7818608E-02  0.3354581E+00
         11   -1    0    0    0    0  0.00000000000E+00  0.00000000000E+00  0.39999999674E+01  0.40000000000E+01  0.51100000000E-03 0. -1.
    9000002   -1    0    0    0    0 -0.00000000000E+00 -0.00000000000E+00  0.00000000000E+00  0.93800000000E+00  0.93800000000E+00 0.  1.
         11    1    1    2    0    0  0.12142743817E+00 -0.86490673028E-01  0.11727565864E+01  0.11821943713E+01  0.51100000000E-03 0. -1.
    9000002    1    1    2    0    0 -0.40810203606E+00  0.18216629525E+00  0.13628124705E+00  0.10479257651E+01  0.93800000000E+00 0.  1.
         22    1    1    2    0    0  0.28667459789E+00 -0.95675622223E-01  0.26909621339E+01  0.27078798636E+01  0.00000000000E+00 0. -1.
</event>
<event>
 5    1  0.6440325E+001  0.1599677E+01  0.7818608E-02  0.3353715E+00
         11   -1    0    0    0    0  0.00000000000E+00  0.00000000000E+00  0.39999999674E+01  0.40000000000E+01  0.51100000000E-03 0.  1.
    9000002   -1    0    0    0    0 -0.00000000000E+00 -0.00000000000E+00  0.00000000000E+00  0.93800000000E+00  0.93800000000E+00 0. -1.
         11    1    1    2    0    0  0.98641742220E-01  0.87686026391E-01  0.10632514872E+01  0.10714116943E+01  0.51100000000E-03 0. -1.
    9000002    1    1    2    0    0 -0.35493621811E+00 -0.31890124611E+00  0.15527892470E+00  0.10637825286E+01  0.93800000000E+00 0. -1.
         22    1    1    2    0    0  0.25629447589E+00  0.23121521971E+00  0.27814695555E+01  0.28028057771E+01  0.00000000000E+00 0.  1.
</event>
<event>
 5    1  0.6440325E+001  0.1599306E+01  0.7818608E-02  0.3354117E+00
         11   -1    0    0    0    0  0.00000000000E+00  0.00000000000E+00  0.39999999674E+01  0.40000000000E+01  0.51100000000E-03 0. -1.
    9000002   -1    0    0    0    0 -0.00000000000E+00 -0.00000000000E+00  0.00000000000E+00  0.93800000000E+00  0.93800000000E+00 0. -1.
         11    1    1    2    0    0 -0.14743709592E-01  0.21625539014E-01  0.41358299592E+00  0.41441066172E+00  0.51100000000E-03 0. -1.
    9000002    1    1    2    0    0  0.16105904706E+00 -0.33749053335E+00  0.94325086375E-01  0.10141898731E+01  0.93800000000E+00 0. -1.
         22    1    1    2    0    0 -0.14631533746E+00  0.31586499433E+00  0.34920918851E+01  0.35093994652E+01  0.00000000000E+00 0. -1.
</event>
<event>
 5    1  0.6440325E+001  0.1599676E+01  0.7818608E-02  0.3353715E+00
         11   -1    0    0    0    0  0.00000000000E+00  0.00000000000E+00  0.39999999674E+01  0.40000000000E+01  0.51100000000E-03 0.  1.
    9000002   -1    0    0    0    0 -0.00000000000E+00 -0.00000000000E+00  0.00000000000E+00  0.93800000000E+00  0.93800000000E+00 0. -1.
         11    1    1    2    0    0 -0.68531077852E-02 -0.68162818591E-01  0.75166019356E+00  0.75477575652E+00  0.51100000000E-03 0.  1.
    9000002    1    1    2    0    0  0.38833830300E-01  0.35498256741E+00  0.85572106874E-01  0.10073168692E+01  0.93800000000E+00 0. -1.
         22    1    1    2    0    0 -0.31980722515E-01 -0.28681974882E+00  0.31627676669E+01  0.31759073743E+01  0.00000000000E+00 0.  1.
</event>
<event>
 5    1  0.6440325E+001  0.1598396E+01  0.7818608E-02  0.3355106E+00
         11   -1    0    0    0    0  0.00000000000E+00  0.00000000000E+00  0.39999999674E+01  0.40000000000E+01  0.51100000000E-03 0.  1.
    9000002   -1    0    0    0    0 -0.00000000000E+00 -0.00000000000E+00  0.00000000000E+00  0.93800000000E+00  0.93800000000E+00 0.  1.
         11    1    1    2    0    0  0.26681747667E-01  0.36865213756E-01  0.46566459533E+00  0.46788325051E+00  0.51100000000E-03 0.  1.
    9000002    1    1    2    0    0 -0.20741840544E+00 -0.52960095172E+00  0.22548989388E+00  0.11199059136E+01  0.93800000000E+00 0.  1.
         22    1    1    2    0    0  0.18073665777E+00  0.49273573797E+00  0.33088454781E+01  0.33502108359E+01  0.00000000000E+00 0.  1.
</event>
<event>
 5    1  0.6440325E+001  0.1599443E+01  0.7818608E-02  0.3353969E+00
         11   -1    0    0    0    0  0.00000000000E+00  0.00000000000E+00  0.39999999674E+01  0.40000000000E+01  0.51100000000E-03 0.  1.
    9000002   -1    0    0    0    0 -0.00000000000E+00 -0.00000000000E+00  0.00000000000E+00  0.93800000000E+00  0.93800000000E+00 0.  1.
         11    1    1    2    0    0  0.23886792097E-01  0.47109496705E-01  0.43050891878E+00  0.43373733272E+00  0.51100000000E-03 0.  1.
    9000002    1    1    2    0    0 -0.17702276392E+00 -0.32993116750E+00  0.94455139688E-01  0.10143753781E+01  0.93800000000E+00 0.  1.
         22    1    1    2    0    0  0.15313597182E+00  0.28282167079E+00  0.34750359089E+01  0.34898872892E+01  0.00000000000E+00 0.  1.
</event>
<event>
 5    1  0.6440325E+001  0.1595150E+01  0.7818608E-02  0.3358644E+00
         11   -1    0    0    0    0  0.00000000000E+00  0.00000000000E+00  0.39999999674E+01  0.40000000000E+01  0.51100000000E-03 0. -1.
    9000002   -1    0    0    0    0 -0.00000000000E+00 -0.00000000000E+00  0.00000000000E+00  0.93800000000E+00  0.93800000000E+00 0.  1.
         11    1    1    2    0    0  0.51945042617E-01 -0.62920524874E-01  0.58150629759E+00  0.58720278879E+00  0.51100000000E-03 0. -1.
    9000002    1    1    2    0    0 -0.43992610943E+00  0.45146866362E-01  0.13657592439E+00  0.10459781090E+01  0.93800000000E+00 0.  1.
         22    1    1    2    0    0  0.38798106682E+00  0.17773658512E-01  0.32819177454E+01  0.33048191022E+01  0.00000000000E+00 0. -1.
</event>
<event>
 5    1  0.7697811E+001  0.1599676E+01  0.7818608E-02  0.3353715E+00
         11   -1    0    0    0    0  0.00000000000E+00  0.00000000000E+00  0.39999999674E+01  0.40000000000E+01  0.51100000000E-03 0.  1.
    9000002   -1    0    0    0    0 -0.00000000000E+00 -0.00000000000E+00  0.00000000000E+00  0.93800000000E+00  0.93800000000E+00 0.  1.
         11    1    1    2    0    0 -0.58093028962E-02  0.13798476417E+00  0.14928715867E+01  0.14992462702E+01  0.51100000000E-03 0.  1.
    9000002    1    1    2    0    0  0.17621692593E-01 -0.36243611336E+00  0.88414905587E-01  0.10096195600E+01  0.93800000000E+00 0.  1.
         22    1    1    2    0    0 -0.11812389697E-01  0.22445134920E+00  0.24187134751E+01  0.24291341698E+01  0.00000000000E+00 0.  1.
</event>
<event>
 5    1  0.6440325E+001  0.1599670E+01  0.7818608E-02  0.3353722E+00
         11   -1    0    0    0    0  0.00000000000E+00  0.00000000000E+00  0.39999999674E+01  0.40000000000E+01  0.51100000000E-03 0.  1.
    9000002   -1    0    0    0    0 -0.00000000000E+00 -0.00000000000E+00  0.00000000000E+00  0.93800000000E+00  0.93800000000E+00 0. -1.
         11    1    1    2    0    0 -0.14719044229E+00 -0.15961480230E+00  0.13024216567E+01  0.13203955257E+01  0.51100000000E-03 0.  1.
    9000002    1    1    2    0    0  0.42180310466E+00  0.46514159093E+00  0.27679300068E+00  0.11622103613E+01  0.93800000000E+00 0. -1.
         22    1    1    2    0    0 -0.27461266237E+00 -0.30552678863E+00  0.24207853100E+01  0.24553941130E+01  0.00000000000E+00 0. -1.
</event>
<event>
 5    1  0.6440325E+001  0.1599652E+01  0.7818608E-02  0.3353741E+00
         11   -1    0    0    0    0  0.00000000000E+00  0.00000000000E+00  0.39999999674E+01  0.40000000000E+01  0.51100000000E-03 0.  1.
    9000002   -1    0    0    0    0 -0.00000000000E+00 -0.00000000000E+00  0.00000000000E+00  0.93800000000E+00  0.93800000000E+00 0.  1.
         11    1    1    2    0    0  0.20589147291E-01 -0.10164077968E-01  0.23293044802E+00  0.23405998420E+00  0.51100000000E-03 0.  1.
    9000002    1    1    2    0    0 -0.37624491860E+00  0.20178873589E+00  0.12341436372E+00  0.10379566647E+01  0.93800000000E+00 0.  1.
         22    1    1    2    0    0  0.35565577131E+00 -0.19162465792E+00  0.36436551556E+01  0.36659833511E+01  0.00000000000E+00 0.  1.
</event>
<event>
 5    1  0.6440325E+001  0.1599050E+01  0.7818608E-02  0.3354395E+00
         11   -1    0    0    0    0  0.00000000000E+00  0.00000000000E+00  0.39999999674E+01  0.40000000000E+01  0.51100000000E-03 0. -1.
    9000002   -1    0    0    0    0 -0.00000000000E+00 -0.00000000000E+00  0.00000000000E+00  0.93800000000E+00  0.93800000000E+00 0.  1.
         11    1    1    2    0    0  0.42994691572E-03  0.43874776834E-04  0.46562971035E-01  0.46567780407E-01  0.51100000000E-03 0. -1.
    9000002    1    1    2    0    0  0.45467133932E+00 -0.23480559162E+00  0.18018646199E+00  0.10835916453E+01  0.93800000000E+00 0.  1.
         22    1    1    2    0    0 -0.45510128624E+00  0.23476171685E+00  0.37732505343E+01  0.38078405743E+01  0.00000000000E+00 0. -1.
</event>
<event>
 5    1  0.6440325E+001  0.1598917E+01  0.7818608E-02  0.3354540E+00
         11   -1    0    0    0    0  0.00000000000E+00  0.00000000000E+00  0.39999999674E+01  0.40000000000E+01  0.51100000000E-03 0.  1.
    9000002   -1    0    0    0    0 -0.00000000000E+00 -0.00000000000E+00  0.00000000000E+00  0.93800000000E+00  0.93800000000E+00 0.  1.
         11    1    1    2    0    0  0.16364750039E+00 -0.89585217644E-01  0.72371444343E+00  0.74737465328E+00  0.51100000000E-03 0.  1.
    9000002    1    1    2    0    0 -0.66664954392E+00  0.47249693472E+00  0.49575654675E+00  0.13391390971E+01  0.93800000000E+00 0.  1.
         22    1    1    2    0    0  0.50300204353E+00 -0.38291171708E+00  0.27805289772E+01  0.28514862496E+01  0.00000000000E+00 0.  1.
</event>
<event>
 5    1  0.6440325E+001  0.1557957E+01  0.7818608E-02  0.3400299E+00
         11   -1    0    0    0    0  0.00000000000E+00  0.00000000000E+00  0.39999999674E+01  0.40000000000E+01  0.51100000000E-03 0. -1.
    9000002   -1    0    0    0    0 -0.00000000000E+00 -0.00000000000E+00  0.00000000000E+00  0.93800000000E+00  0.93800000000E+00 0. -1.
         11    1    1    2    0    0 -0.30310119605E+00 -0.44627881314E-01  0.13803795758E+01  0.14139695956E+01  0.51100000000E-03 0. -1.
    9000002    1    1    2    0    0  0.20236514055E+00  0.25370216772E+00  0.10429007004E+00  0.99801646215E+00  0.93800000000E+00 0. -1.
         22    1    1    2    0    0  0.10073605550E+00 -0.20907428641E+00  0.25153303215E+01  0.25260139423E+01  0.00000000000E+00 0. -1.
</event>
<event>
 5    1  0.6440325E+001  0.1599435E+01  0.7818608E-02  0.3353977E+00
         11   -1    0    0    0    0  0.00000000000E+00  0.00000000000E+00  0.39999999674E+01  0.40000000000E+01  0.51100000000E-03 0. -1.
    9000002   -1    0    0    0    0 -0.00000000000E+00 -0.00000000000E+00  0.00000000000E+00  0.93800000000E+00  0.93800000000E+00 0. -1.
         11    1    1    2    0    0  0.35927875871E-01  0.62903875728E-01  0.93190953837E+00  0.93472100580E+00  0.51100000000E-03 0. -1.
    9000002    1    1    2    0    0 -0.18414645895E+00 -0.32196546293E+00  0.92660946597E-01  0.10129174343E+01  0.93800000000E+00 0. -1.
         22    1    1    2    0    0  0.14821858308E+00  0.25906158721E+00  0.29754294824E+01  0.29903615599E+01  0.00000000000E+00 0. -1.
</event>
<event>
 5    1  0.6440325E+001  0.1599664E+01  0.7818608E-02  0.3353729E+00
         11   -1    0    0    0    0  0.00000000000E+00  0.00000000000E+00  0.39999999674E+01  0.40000000000E+01  0.51100000000E-03 0.  1.
    9000002   -1    0    0    0    0 -0.00000000000E+00 -0.00000000000E+00  0.00000000000E+00  0.93800000000E+00  0.93800000000E+00 0.  1.
         11    1    1    2    0    0 -0.16634591332E-01 -0.66013036846E-01  0.34007579502E+00  0.34682306460E+00  0.51100000000E-03 0.  1.
    9000002    1    1    2    0    0  0.20058378959E+00  0.69031507929E+00  0.37125730641E+00  0.12387270696E+01  0.93800000000E+00 0.  1.
         22    1    1    2    0    0 -0.18394919826E+00 -0.62430204245E+00  0.32886668659E+01  0.33524498658E+01  0.00000000000E+00 0.  1.
</event>
<event>
 5    1  0.6440325E+001  0.1545958E+01  0.7818608E-02  0.3414191E+00
         11   -1    0    0    0    0  0.00000000000E+00  0.00000000000E+00  0.39999999674E+01  0.40000000000E+01  0.51100000000E-03 0.  1.
    9000002   -1    0    0    0    0 -0.00000000000E+00 -0.00000000000E+00  0.00000000000E+00  0.93800000000E+00  0.93800000000E+00 0.  1.
         11    1    1    2    0    0  0.56493438639E-01 -0.17141586423E+00  0.59496670432E+00  0.62173993558E+00  0.51100000000E-03 0.  1.
    9000002    1    1    2    0    0  0.34189938456E+00  0.96859970316E-02  0.12274816956E+00  0.10059324634E+01  0.93800000000E+00 0.  1.
         22    1    1    2    0    0 -0.39839282320E+00  0.16172986720E+00  0.32822850935E+01  0.33103276011E+01  0.00000000000E+00 0.  1.
</event>
<event>
 5    1  0.6440325E+001  0.1599671E+01  0.7818608E-02  0.3353721E+00
         11   -1    0    0    0    0  0.00000000000E+00  0.00000000000E+00  0.39999999674E+01  0.40000000000E+01  0.51100000000E-03 0. -1.
    9000002   -1    0    0    0    0 -0.00000000000E+00 -0.00000000000E+00  0.00000000000E+00  0.93800000000E+00  0.93800000000E+00 0. -1.
         11    1    1    2    0    0 -0.33242145245E-01 -0.19063209258E-01  0.39238702435E+00  0.39425408580E+00  0.51100000000E-03 0. -1.
    9000002    1    1    2    0    0  0.34779939330E+00  0.18938151089E+00  0.10573643604E+00  0.10236473849E+01  0.93800000000E+00 0. -1.
         22    1    1    2    0    0 -0.31455724805E+00 -0.17031830163E+00  0.35018765070E+01  0.35200985293E+01  0.00000000000E+00 0. -1.
</event>
<event>
 5    1  0.6440325E+001  0.1526690E+01  0.7818608E-02  0.3436989E+00
         11   -1    0    0    0    0  0.00000000000E+00  0.00000000000E+00  0.39999999674E+01  0.40000000000E+01  0.51100000000E-03 0.  1.
    9000002   -1    0    0    0    0 -0.00000000000E+00 -0.00000000000E+00  0.00000000000E+00  0.93800000000E+00  0.93800000000E+00 0. -1.
         11    1    1    2    0    0  0.35943051324E+00 -0.24569680539E+00  0.73104661656E+00  0.85087403928E+00  0.51100000000E-03 0.  1.
    9000002    1    1    2    0    0 -0.76309001780E+00  0.21850119588E+00  0.56390776269E+00  0.13519930150E+01  0.93800000000E+00 0. -1.
         22    1    1    2    0    0  0.40365950456E+00  0.27195609510E-01  0.27050455881E+01  0.27351329457E+01  0.00000000000E+00 0. -1.
</event>
<event>
 5    1  0.6440325E+001  0.1583385E+01  0.7818608E-02  0.3371596E+00
         11   -1    0    0    0    0  0.00000000000E+00  0.00000000000E+00  0.39999999674E+01  0.40000000000E+01  0.51100000000E-03 0. -1.
    9000002   -1    0    0    0    0 -0.00000000000E+00 -0.00000000000E+00  0.00000000000E+00  0.93800000000E+00  0.93800000000E+00 0.  1.
         11    1    1    2    0    0  0.17457341281E+00  0.10997471650E+00  0.11810422834E+01  0.11989292936E+01  0.51100000000E-03 0. -1.
    9000002    1    1    2    0    0 -0.49601239325E+00  0.98710012716E-01  0.19016216735E+00  0.10824867716E+01  0.93800000000E+00 0.  1.
         22    1    1    2    0    0  0.32143898045E+00 -0.20868472921E+00  0.26287955166E+01  0.26565839348E+01  0.00000000000E+00 0. -1.
</event>
<event>
 5    1  0.6440325E+001  0.1599660E+01  0.7818608E-02  0.3353732E+00
         11   -1    0    0    0    0  0.00000000000E+00  0.00000000000E+00  0.39999999674E+01  0.40000000000E+01  0.51100000000E-03 0.  1.
    9000002   -1    0    0    0    0 -0.00000000000E+00 -0.00000000000E+00  0.00000000000E+00  0.93800000000E+00  0.93800000000E+00 0.  1.
         11    1    1    2    0    0 -0.17485801913E-01 -0.13913870969E-01  0.18896372176E+00  0.19028110346E+00  0.51100000000E-03 0.  1.
    9000002    1    1    2    0    0  0.37698216171E+00  0.24711197352E+00  0.13802623924E+00  0.10497976569E+01  0.93800000000E+00 0.  1.
         22    1    1    2    0    0 -0.35949635979E+00 -0.23319810255E+00  0.36730100064E+01  0.36979212396E+01  0.00000000000E+00 0.  1.
</event>
<event>
 5    1  0.6440325E+001  0.1599555E+01  0.7818608E-02  0.3353847E+00
         11   -1    0    0    0    0  0.00000000000E+00  0.00000000000E+00  0.39999999674E+01  0.40000000000E+01  0.51100000000E-03 0.  1.
    9000002   -1    0    0    0    0 -0.00000000000E+00 -0.00000000000E+00  0.00000000000E+00  0.93800000000E+00  0.93800000000E+00 0.  1.
         11    1    1    2    0    0  0.30192146660E-01  0.69514577885E-02  0.38667179576E+00  0.38791136519E+00  0.51100000000E-03 0.  1.
    9000002    1    1    2    0    0 -0.36864406176E+00 -0.20929422091E-01  0.91714955372E-01  0.10122213780E+01  0.93800000000E+00 0.  1.
         22    1    1    2    0    0  0.33845191510E+00  0.13977964302E-01  0.35216132162E+01  0.35378672568E+01  0.00000000000E+00 0. -1.
</event>
<event>
 5    1  0.6440325E+001  0.1599474E+01  0.7818608E-02  0.3353935E+00
         11   -1    0    0    0    0  0.00000000000E+00  0.00000000000E+00  0.39999999674E+01  0.40000000000E+01  0.51100000000E-03 0.  1.
    9000002   -1    0    0    0    0 -0.00000000000E+00 -0.00000000000E+00  0.00000000000E+00  0.93800000000E+00  0.93800000000E+00 0.  1.
         11    1    1    2    0    0 -0.34931498918E-01 -0.87725958313E-01  0.62033210393E+00  0.62747767583E+00  0.51100000000E-03 0.  1.
    9000002    1    1    2    0    0  0.14532649611E+00  0.50283879378E+00  0.18849335580E+00  0.10905688370E+01  0.93800000000E+00 0.  1.
         22    1    1    2    0    0 -0.11039499719E+00 -0.41511283547E+00  0.31911745076E+01  0.32199534872E+01  0.00000000000E+00 0.  1.
</event>
<event>
 5    1  0.6440325E+001  0.1584436E+01  0.7818608E-02  0.3370431E+00
         11   -1    0    0    0    0  0.00000000000E+00  0.00000000000E+00  0.39999999674E+01  0.40000000000E+01  0.51100000000E-03 0. -1.
    9000002   -1    0    0    0    0 -0.00000000000E+00 -0.00000000000E+00  0.00000000000E+00  0.93800000000E+00  0.93800000000E+00 0. -1.
         11    1    1    2    0    0 -0.38645425535E-01  0.19412731040E+00  0.13687093575E+01  0.13829477387E+01  0.51100000000E-03 0. -1.
    9000002    1    1    2    0    0  0.27707052708E+00 -0.18547806372E+00  0.86660300579E-01  0.99926182595E+00  0.93800000000E+00 0. -1.
         22    1    1    2    0    0 -0.23842510154E+00 -0.86492466808E-02  0.25446303092E+01  0.25557904353E+01  0.00000000000E+00 0. -1.
</event>
<event>
 5    1  0.6440325E+001  0.1599676E+01  0.7818608E-02  0.3353715E+00
         11   -1    0    0    0    0  0.00000000000E+00  0.00000000000E+00  0.39999999674E+01  0.40000000000E+01  0.51100000000E-03 0. -1.
    9000002   -1    0    0    0    0 -0.00000000000E+00 -0.00000000000E+00  0.00000000000E+00  0.93800000000E+00  0.93800000000E+00 0.  1.
         11    1    1    2    0    0  0.15432928962E-01  0.64073967138E-01  0.63252805439E+00  0.63595255269E+00  0.51100000000E-03 0. -1.
    9000002    1    1    2    0    0 -0.98091263564E-01 -0.39568832294E+00  0.11221134923E+00  0.10288957828E+01  0.93800000000E+00 0.  1.
         22    1    1    2    0    0  0.82658334602E-01  0.33161435580E+00  0.32552605637E+01  0.32731516645E+01  0.00000000000E+00 0. -1.
</event>
<event>
 5    1  0.6440325E+001  0.1599316E+01  0.7818608E-02  0.3354106E+00
         11   -1    0    0    0    0  0.00000000000E+00  0.00000000000E+00  0.39999999674E+01  0.40000000000E+01  0.51100000000E-03 0.  1.
    9000002   -1    0    0    0    0 -0.00000000000E+00 -0.00000000000E+00  0.00000000000E+00  0.93800000000E+00  0.93800000000E+00 0.  1.
         11    1    1    2    0    0  0.19941855504E+00  0.11460001352E+00  0.14513663623E+01  0.14694779692E+01  0.51100000000E-03 0.  1.
    9000002    1    1    2    0    0 -0.46900090481E+00 -0.32818651298E+00  0.22766079995E+00  0.11222039368E+01  0.93800000000E+00 0.  1.
         22    1    1    2    0    0  0.26958234977E+00  0.21358649946E+00  0.23209728051E+01  0.23463180940E+01  0.00000000000E+00 0.  1.
</event>
<event>
 5    1  0.6440325E+001  0.1563113E+01  0.7818608E-02  0.3394399E+00
         11   -1    0    0    0    0  0.00000000000E+00  0.00000000000E+00  0.39999999674E+01  0.40000000000E+01  0.51100000000E-03 0. -1.
    9000002   -1    0    0    0    0 -0.00000000000E+00 -0.00000000000E+00  0.00000000000E+00  0.93800000000E+00  0.93800000000E+00 0. -1.
         11    1    1    2    0    0  0.10879666768E+00 -0.81390416147E-01  0.59481721330E+00  0.61013842126E+00  0.51100000000E-03 0. -1.
    9000002    1    1    2    0    0  0.74906280395E-01 -0.21104833174E+00  0.61425649056E-01  0.96631747347E+00  0.93800000000E+00 0. -1.
         22    1    1    2    0    0 -0.18370294808E+00  0.29243874789E+00  0.33437571050E+01  0.33615441053E+01  0.00000000000E+00 0. -1.
</event>
<event>
 5    1  0.6440325E+001  0.1582392E+01  0.7818608E-02  0.3372700E+00
         11   -1    0    0    0    0  0.00000000000E+00  0.00000000000E+00  0.39999999674E+01  0.40000000000E+01  0.51100000000E-03 0.  1.
    9000002   -1    0    0    0    0 -0.00000000000E+00 -0.00000000000E+00  0.00000000000E+00  0.93800000000E+00  0.93800000000E+00 0.  1.
         11    1    1    2    0    0  0.50707382936E-01  0.21261484242E+00  0.10221669021E+01  0.10452759190E+01  0.51100000000E-03 0.  1.
    9000002    1    1    2    0    0  0.21530309712E+00 -0.45893623308E+00  0.19196049301E+00  0.10833608450E+01  0.93800000000E+00 0.  1.
         22    1    1    2    0    0 -0.26601048006E+00  0.24632139066E+00  0.27858725723E+01  0.28093632360E+01  0.00000000000E+00 0.  1.
</event>
<event>
 5    1  0.6440325E+001  0.1599572E+01  0.7818608E-02  0.3353828E+00
         11   -1    0    0    0    0  0.00000000000E+00  0.00000000000E+00  0.39999999674E+01  0.40000000000E+01  0.51100000000E-03 0. -1.
    9000002   -1    0    0    0    0 -0.00000000000E+00 -0.00000000000E+00  0.00000000000E+00  0.93800000000E+00  0.93800000000E+00 0.  1.
         11    1    1    2    0    0  0.16345973604E-01 -0.14980268502E-01  0.17149018073E+00  0.17291831165E+00  0.51100000000E-03 0. -1.
    9000002    1    1    2    0    0 -0.31185431921E+00  0.24195942636E+00  0.10510442039E+00  0.10230779147E+01  0.93800000000E+00 0.  1.
         22    1    1    2    0    0  0.29550834561E+00 -0.22697915786E+00  0.37234053662E+01  0.37420037736E+01  0.00000000000E+00 0. -1.
</event>
<event>
 5    1  0.6440325E+001  0.1529134E+01  0.7818608E-02  0.3434063E+00
         11   -1    0    0    0    0  0.00000000000E+00  0.00000000000E+00  0.39999999674E+01  0.40000000000E+01  0.51100000000E-03 0.  1.
    9000002   -1    0    0    0    0 -0.00000000000E+00 -0.00000000000E+00  0.00000000000E+00  0.93800000000E+00  0.93800000000E+00 0. -1.
         11    1    1    2    0    0 -0.41303490314E-01  0.21458889413E+00  0.67914393081E+00  0.71343613006E+00  0.51100000000E-03 0.  1.
    9000002    1    1    2    0    0 -0.75594899405E-01  0.12819859686E+00  0.68603756752E-01  0.95220793133E+00  0.93800000000E+00 0. -1.
         22    1    1    2    0    0  0.11689838972E+00 -0.34278749099E+00  0.32522522798E+01  0.32723559386E+01  0.00000000000E+00 0.  1.
</event>
<event>
 5    1  0.6440325E+001  0.1599670E+01  0.7818608E-02  0.3353722E+00
         11   -1    0    0    0    0  0.00000000000E+00  0.00000000000E+00  0.39999999674E+01  0.40000000000E+01  0.51100000000E-03 0.  1.
    9000002   -1    0    0    0    0 -0.00000000000E+00 -0.00000000000E+00  0.00000000000E+00  0.93800000000E+00  0.93800000000E+00 0.  1.
         11    1    1    2    0    0 -0.12798894359E-02  0.13255274958E+00  0.13530456430E+01  0.13595236823E+01  0.51100000000E-03 0.  1.
    9000002    1    1    2    0    0  0.12546894527E-01 -0.38292909222E+00  0.98811250595E-01  0.10180372181E+01  0.93800000000E+00 0.  1.
         22    1    1    2    0    0 -0.11267005091E-01  0.25037634264E+00  0.25481430737E+01  0.25604390996E+01  0.00000000000E+00 0.  1.
</event>
<event>
 5    1  0.6440325E+001  0.1599675E+01  0.7818608E-02  0.3353716E+00
         11   -1    0    0    0    0  0.00000000000E+00  0.00000000000E+00  0.39999999674E+01  0.40000000000E+01  0.51100000000E-03 0. -1.
    9000002   -1    0    0    0    0 -0.00000000000E+00 -0.00000000000E+00  0.00000000000E+00  0.93800000000E+00  0.93800000000E+00 0.  1.
         11    1    1    2    0    0  0.98233486427E-02  0.97663574874E-01  0.59457424194E+00  0.60262215553E+00  0.51100000000E-03 0. -1.
    9000002    1    1    2    0    0 -0.68906501546E-01 -0.61385787922E+00  0.26725343225E+00  0.11544860323E+01  0.93800000000E+00 0.  1.
         22    1    1    2    0    0  0.59083152903E-01  0.51619430435E+00  0.31381722932E+01  0.31808918121E+01  0.00000000000E+00 0. -1.
</event>
<event>
 5    1  0.6440325E+001  0.1586572E+01  0.7818608E-02  0.3368067E+00
         11   -1    0    0    0    0  0.00000000000E+00  0.00000000000E+00  0.39999999674E+01  0.40000000000E+01  0.51100000000E-03 0. -1.
    9000002   -1    0    0    0    0 -0.00000000000E+00 -0.00000000000E+00  0.00000000000E+00  0.93800000000E+00  0.93800000000E+00 0.  1.
         11    1    1    2    0    0  0.58624632273E-01  0.92687343305E-02  0.48556923004E+00  0.48918349853E+00  0.51100000000E-03 0. -1.
    9000002    1    1    2    0    0  0.25000309073E+00 -0.19152709885E+00  0.76673574189E-01  0.99242481425E+00  0.93800000000E+00 0.  1.
         22    1    1    2    0    0 -0.30862772300E+00  0.18225836452E+00  0.34377571631E+01  0.34563916872E+01  0.00000000000E+00 0. -1.
</event>
<event>
 5    1  0.6440325E+001  0.1597453E+01  0.7818608E-02  0.3356133E+00
         11   -1    0    0    0    0  0.00000000000E+00  0.00000000000E+00  0.39999999674E+01  0.40000000000E+01  0.51100000000E-03 0. -1.
    9000002   -1    0    0    0    0 -0.00000000000E+00 -0.00000000000E+00  0.00000000000E+00  0.93800000000E+00  0.93800000000E+00 0. -1.
         11    1    1    2    0    0  0.24899013038E-01 -0.12669864088E+00  0.74271068255E+00  0.75385139487E+00  0.51100000000E-03 0. -1.
    9000002    1    1    2    0    0 -0.18088746511E+00  0.42882916242E+00  0.14941075727E+00  0.10577250588E+01  0.93800000000E+00 0. -1.
         22    1    1    2    0    0  0.15598845207E+00 -0.30213052154E+00  0.31078785275E+01  0.31264235464E+01  0.00000000000E+00 0. -1.
</event>
<event>
 5    1  0.6440325E+001  0.1599674E+01  0.7818608E-02  0.3353718E+00
         11   -1    0    0    0    0  0.00000000000E+00  0.00000000000E+00  0.39999999674E+01  0.40000000000E+01  0.51100000000E-03 0. -1.
    9000002   -1    0    0    0    0 -0.00000000000E+00 -0.00000000000E+00  0.00000000000E+00  0.93800000000E+00  0.93800000000E+00 0.  1.
         11    1    1    2    0    0  0.13439020877E+00  0.18632389480E+00  0.14241996370E+01  0.14426095068E+01  0.51100000000E-03 0. -1.
    9000002    1    1    2    0    0 -0.35434058654E+00 -0.48474262748E+00  0.25157040599E+00  0.11417812117E+01  0.93800000000E+00 0.  1.
         22    1    1    2    0    0  0.21995037777E+00  0.29841873268E+00  0.23242299244E+01  0.23536092815E+01  0.00000000000E+00 0. -1.
</event>
<event>
 5    1  0.6440325E+001  0.1577921E+01  0.7818608E-02  0.3377681E+00
         11   -1    0    0    0    0  0.00000000000E+00  0.00000000000E+00  0.39999999674E+01  0.40000000000E+01  0.51100000000E-03 0.  1.
    9000002   -1    0    0    0    0 -0.00000000000E+00 -0.00000000000E+00  0.00000000000E+00  0.93800000000E+00  0.93800000000E+00 0. -1.
         11    1    1    2    0    0  0.83116856981E-01 -0.26189082618E+00  0.11262622739E+01  0.11592938314E+01  0.51100000000E-03 0.  1.
    9000002    1    1    2    0    0 -0.60148221120E+00  0.43130729683E+00  0.42219756139E+00  0.12672417352E+01  0.93800000000E+00 0. -1.
         22    1    1    2    0    0  0.51836535422E+00 -0.16941647065E+00  0.24515401321E+01  0.25114644334E+01  0.00000000000E+00 0.  1.
</event>
<event>
 5    1  0.6440325E+001  0.1599647E+01  0.7818608E-02  0.3353747E+00
         11   -1    0    0    0    0  0.00000000000E+00  0.00000000000E+00  0.39999999674E+01  0.40000000000E+01  0.51100000000E-03 0. -1.
    9000002   -1    0    0    0    0 -0.00000000000E+00 -0.00000000000E+00  0.00000000000E+00  0.93800000000E+00  0.93800000000E+00 0. -1.
         11    1    1    2    0    0 -0.66105243773E-01 -0.11559796543E+00  0.85002208928E+00  0.86038979901E+00  0.51100000000E-03 0. -1.
    9000002    1    1    2    0    0  0.27100571436E+00  0.52335159962E+00  0.24182548077E+00  0.11338714906E+01  0.93800000000E+00 0. -1.
         22    1    1    2    0    0 -0.20490047059E+00 -0.40775363420E+00  0.29081523973E+01  0.29437387104E+01  0.00000000000E+00 0. -1.
</event>
<event>
 5    1  0.6440325E+001  0.1599645E+01  0.7818608E-02  0.3353749E+00
         11   -1    0    0    0    0  0.00000000000E+00  0.00000000000E+00  0.39999999674E+01  0.40000000000E+01  0.51100000000E-03 0.  1.
    9000002   -1    0    0    0    0 -0.00000000000E+00 -0.00000000000E+00  0.00000000000E+00  0.93800000000E+00  0.93800000000E+00 0.  1.
         11    1    1    2    0    0  0.78985460928E-01  0.11315310623E+00  0.10687835923E+01  0.10776553052E+01  0.51100000000E-03 0.  1.
    9000002    1    1    2    0    0 -0.29165881641E+00 -0.42411014091E+00  0.18184869675E+00  0.10852867019E+01  0.93800000000E+00 0.  1.
         22    1    1    2    0    0  0.21267335548E+00  0.31095703468E+00  0.27493676783E+01  0.27750579929E+01  0.00000000000E+00 0.  1.
</event>
<event>
 5    1  0.6440325E+001  0.1578641E+01  0.7818608E-02  0.3376878E+00
         11   -1    0    0    0    0  0.00000000000E+00  0.00000000000E+00  0.39999999674E+01  0.40000000000E+01  0.51100000000E-03 0.  1.
    9000002   -1    0    0    0    0 -0.00000000000E+00 -0.00000000000E+00  0.00000000000E+00  0.93800000000E+00  0.93800000000E+00 0.  1.
         11    1    1    2    0    0 -0.83135948889E-01 -0.29524064277E+00  0.14518932288E+01  0.14839382844E+01  0.51100000000E-03 0.  1.
    9000002    1    1    2    0    0 -0.10587505687E+00  0.46929359970E+00  0.17683064451E+00  0.10689055558E+01  0.93800000000E+00 0.  1.
         22    1    1    2    0    0  0.18901100576E+00 -0.17405295693E+00  0.23712760941E+01  0.23851561598E+01  0.00000000000E+00 0. -1.
</event>
<event>
 5    1  0.6440325E+001  0.1599669E+01  0.7818608E-02  0.3353723E+00
         11   -1    0    0    0    0  0.00000000000E+00  0.00000000000E+00  0.39999999674E+01  0.40000000000E+01  0.51100000000E-03 0. -1.
    9000002   -1    0    0    0    0 -0.00000000000E+00 -0.00000000000E+00  0.00000000000E+00  0.93800000000E+00  0.93800000000E+00 0.  1.
         11    1    1    2    0    0  0.71228631514E-01  0.10604627922E+00  0.13053110760E+01  0.13115474058E+01  0.51100000000E-03 0. -1.
    9000002    1    1    2    0    0 -0.22070773768E+00 -0.31116669950E+00  0.97947382303E-01  0.10173368715E+01  0.93800000000E+00 0.  1.
         22    1    1    2    0    0  0.14947910616E+00  0.20512042029E+00  0.25967415090E+01  0.26091157228E+01  0.00000000000E+00 0. -1.
</event>
<event>
 5    1  0.6440325E+001  0.1599636E+01  0.7818608E-02  0.3353759E+00
         11   -1    0    0    0    0  0.00000000000E+00  0.00000000000E+00  0.39999999674E+01  0.40000000000E+01  0.51100000000E-03 0. -1.
    9000002   -1    0    0    0    0 -0.00000000000E+00 -0.00000000000E+00  0.00000000000E+00  0.93800000000E+00  0.93800000000E+00 0.  1.
         11    1    1    2    0    0  0.13369067016E+00 -0.12308750666E-01  0.10290345633E+01  0.10377557970E+01  0.51100000000E-03 0. -1.
    9000002    1    1    2    0    0 -0.47398790042E+00  0.43643877198E-01  0.15453043318E+00  0.10631523750E+01  0.93800000000E+00 0.  1.
         22    1    1    2    0    0  0.34029723026E+00 -0.31335126532E-01  0.28164349708E+01  0.28370918279E+01  0.00000000000E+00 0. -1.
</event>
<event>
 5    1  0.6440325E+001  0.1599661E+01  0.7818608E-02  0.3353732E+00
         11   -1    0    0    0    0  0.00000000000E+00  0.00000000000E+00  0.39999999674E+01  0.40000000000E+01  0.51100000000E-03 0. -1.
    9000002   -1    0    0    0    0 -0.00000000000E+00 -0.00000000000E+00  0.00000000000E+00  0.93800000000E+00  0.93800000000E+00 0. -1.
         11    1    1    2    0    0 -0.72949190511E-01  0.19039980922E+00  0.12081132316E+01  0.12251985607E+01  0.51100000000E-03 0. -1.
    9000002    1    1    2    0    0  0.23757221456E+00 -0.58086894049E+00  0.27648249123E+00  0.11619534634E+01  0.93800000000E+00 0. -1.
         22    1    1    2    0    0 -0.16462302405E+00  0.39046913128E+00  0.25154042445E+01  0.25508479759E+01  0.00000000000E+00 0. -1.
</event>
<event>
 5    1  0.6440325E+001  0.1598726E+01  0.7818608E-02  0.3354747E+00
         11   -1    0    0    0    0  0.00000000000E+00  0.00000000000E+00  0.39999999674E+01  0.40000000000E+01  0.51100000000E-03 0.  1.
    9000002   -1    0    0    0    0 -0.00000000000E+00 -0.00000000000E+00  0.00000000000E+00  0.93800000000E+00  0.93800000000E+00 0. -1.
         11    1    1    2    0    0  0.34046447340E-01 -0.72624668493E-01  0.10586486841E+01  0.10616830037E+01  0.51100000000E-03 0.  1.
    9000002    1    1    2    0    0 -0.67206298495E-01  0.37468001068E+00  0.98284495653E-01  0.10170573430E+01  0.93800000000E+00 0. -1.
         22    1    1    2    0    0  0.33159851155E-01 -0.30205534218E+00  0.28430667876E+01  0.28592596532E+01  0.00000000000E+00 0.  1.
</event>
<event>
 5    1  0.6440325E+001  0.1599674E+01  0.7818608E-02  0.3353717E+00
         11   -1    0    0    0    0  0.00000000000E+00  0.00000000000E+00  0.39999999674E+01  0.40000000000E+01  0.51100000000E-03 0. -1.
    9000002   -1    0    0    0    0 -0.00000000000E+00 -0.00000000000E+00  0.00000000000E+00  0.93800000000E+00  0.93800000000E+00 0.  1.
         11    1    1    2    0    0 -0.89010916553E-01 -0.12196166396E+00  0.13319990721E+01  0.13405295148E+01  0.51100000000E-03 0. -1.
    9000002    1    1    2    0    0  0.25810955128E+00  0.34925191374E+00  0.12780412249E+00  0.10415254838E+01  0.93800000000E+00 0.  1.
         22    1    1    2    0    0 -0.16909863473E+00 -0.22729024979E+00  0.25401967727E+01  0.25559450014E+01  0.00000000000E+00 0. -1.
</event>
<event>
 5    1  0.6440325E+001  0.1599512E+01  0.7818608E-02  0.3353893E+00
         11   -1    0    0    0    0  0.00000000000E+00  0.00000000000E+00  0.39999999674E+01  0.40000000000E+01  0.51100000000E-03 0. -1.
    9000002   -1    0    0    0    0 -0.00000000000E+00 -0.00000000000E+00  0.00000000000E+00  0.93800000000E+00  0.93800000000E+00 0.  1.
         11    1    1    2    0    0 -0.14232965623E+00 -0.43134577149E-01  0.89752673091E+00  0.90976525357E+00  0.51100000000E-03 0. -1.
    9000002    1    1    2    0    0  0.55943395346E+00  0.14051049601E+00  0.23117400746E+00  0.11251644189E+01  0.93800000000E+00 0.  1.
         22    1    1    2    0    0 -0.41710429722E+00 -0.97375918858E-01  0.28712992290E+01  0.29030703276E+01  0.00000000000E+00 0. -1.
</event>
<event>
 5    1  0.6440325E+001  0.1598684E+01  0.7818608E-02  0.3354793E+00
         11   -1    0    0    0    0  0.00000000000E+00  0.00000000000E+00  0.39999999674E+01  0.40000000000E+01  0.51100000000E-03 0.  1.
    9000002   -1    0    0    0    0 -0.00000000000E+00 -0.00000000000E+00  0.00000000000E+00  0.93800000000E+00  0.93800000000E+00 0.  1.
         11    1    1    2    0    0 -0.45941248928E-01  0.20104461285E-01  0.43558792853E+00  0.43846538326E+00  0.51100000000E-03 0.  1.
    9000002    1    1    2    0    0  0.32892987339E+00 -0.37483431695E+00  0.17110293434E+00  0.10760185133E+01  0.93800000000E+00 0.  1.
         22    1    1    2    0    0 -0.28298862446E+00  0.35472985567E+00  0.33933091045E+01  0.34235161035E+01  0.00000000000E+00 0.  1.
</event>
<event>
 5    1  0.6440325E+001  0.1599677E+01  0.7818608E-02  0.3353714E+00
         11   -1    0    0    0    0  0.00000000000E+00  0.00000000000E+00  0.39999999674E+01  0.40000000000E+01  0.51100000000E-03 0.  1.
    9000002   -1    0    0    0    0 -0.00000000000E+00 -0.00000000000E+00  0.00000000000E+00  0.93800000000E+00  0.93800000000E+00 0.  1.
         11    1    1    2    0    0 -0.25566595528E-01 -0.11520084513E+00  0.11724395706E+01  0.11783631416E+01  0.51100000000E-03 0. -1.
    9000002    1    1    2    0    0  0.84341899848E-01  0.38259672019E+00  0.10342684402E+00  0.10217802692E+01  0.93800000000E+00 0.  1.
         22    1    1    2    0    0 -0.58775304320E-01 -0.26739587506E+00  0.27241335527E+01  0.27378565893E+01  0.00000000000E+00 0.  1.
</event>
<event>
 5    1  0.6440325E+001  0.1598651E+01  0.7818608E-02  0.3354828E+00
         11   -1    0    0    0    0  0.00000000000E+00  0.00000000000E+00  0.39999999674E+01  0.40000000000E+01  0.51100000000E-03 0.  1.
    9000002   -1    0    0    0    0 -0.00000000000E+00 -0.00000000000E+00  0.00000000000E+00  0.93800000000E+00  0.93800000000E+00 0.  1.
         11    1    1    2    0    0 -0.14560772276E+00  0.27022716879E-01  0.11256021917E+01  0.11353027751E+01  0.51100000000E-03 0.  1.
    9000002    1    1    2    0    0  0.60153005205E+00 -0.10403949859E+00  0.26162717204E+00  0.11493282377E+01  0.93800000000E+00 0.  1.
         22    1    1    2    0    0 -0.45592232929E+00  0.77016781710E-01  0.26127706037E+01  0.26533689872E+01  0.00000000000E+00 0.  1.
</event>
<event>
 5    1  0.6440325E+001  0.1545840E+01  0.7818608E-02  0.3414329E+00
         11   -1    0    0    0    0  0.00000000000E+00  0.00000000000E+00  0.39999999674E+01  0.40000000000E+01  0.51100000000E-03 0. -1.
    9000002   -1    0    0    0    0 -0.00000000000E+00 -0.00000000000E+00  0.00000000000E+00  0.93800000000E+00  0.93800000000E+00 0. -1.
         11    1    1    2    0    0  0.14661990533E+00  0.13719923255E+00  0.95139457540E+00  0.97235432085E+00  0.51100000000E-03 0. -1.
    9000002    1    1    2    0    0  0.22404555485E+00 -0.28422445894E-01  0.75724292017E-01  0.96777188143E+00  0.93800000000E+00 0. -1.
         22    1    1    2    0    0 -0.37066546018E+00 -0.10877678666E+00  0.29728810999E+01  0.29978737977E+01  0.00000000000E+00 0. -1.
</event>
<event>
 5    1  0.6440325E+001  0.1598601E+01  0.7818608E-02  0.3354884E+00
         11   -1    0    0    0    0  0.00000000000E+00  0.00000000000E+00  0.39999999674E+01  0.40000000000E+01  0.51100000000E-03 0. -1.
    9000002   -1    0    0    0    0 -0.00000000000E+00 -0.00000000000E+00  0.00000000000E+00  0.93800000000E+00  0.93800000000E+00 0. -1.
         11    1    1    2    0    0  0.61457584440E-01 -0.20233864904E-01  0.67544182193E+00  0.67853397845E+00  0.51100000000E-03 0. -1.
    9000002    1    1    2    0    0 -0.34400845352E+00  0.28727838821E+00  0.13732059292E+00  0.10486046127E+01  0.93800000000E+00 0. -1.
         22    1    1    2    0    0  0.28255086908E+00 -0.26704452331E+00  0.31872375525E+01  0.32108614089E+01  0.00000000000E+00 0. -1.
</event>
<event>
 5    1  0.6440325E+001  0.1599538E+01  0.7818608E-02  0.3353865E+00
         11   -1    0    0    0    0  0.00000000000E+00  0.00000000000E+00  0.39999999674E+01  0.40000000000E+01  0.51100000000E-03 0. -1.
    9000002   -1    0    0    0    0 -0.00000000000E+00 -0.00000000000E+00  0.00000000000E+00  0.93800000000E+00  0.93800000000E+00 0.  1.
         11    1    1    2    0    0 -0.12435958358E-01 -0.89534721708E-01  0.27917886265E+00  0.29344883357E+00  0.51100000000E-03 0. -1.
    9000002    1    1    2    0    0  0.20833770652E+00  0.96543519031E+00  0.77958233236E+00  0.15694146423E+01  0.93800000000E+00 0.  1.
         22    1    1    2    0    0 -0.19590174816E+00 -0.87590046860E+00  0.29412387724E+01  0.30751365241E+01  0.00000000000E+00 0. -1.
</event>
<event>
 5    1  0.8278181E+001  0.1589505E+01  0.7818608E-02  0.3364834E+00
         11   -1    0    0    0    0  0.00000000000E+00  0.00000000000E+00  0.39999999674E+01  0.40000000000E+01  0.51100000000E-03 0.  1.
    9000002   -1    0    0    0    0 -0.00000000000E+00 -0.00000000000E+00  0.00000000000E+00  0.93800000000E+00  0.93800000000E+00 0.  1.
         11    1    1    2    0    0  0.73751652266E-01  0.15658849787E-01  0.99438106275E+00  0.99723541095E+00  0.51100000000E-03 0.  1.
    9000002    1    1    2    0    0 -0.14007876663E-01  0.24971774468E+00  0.49369824586E-01  0.97202703265E+00  0.93800000000E+00 0.  1.
         22    1    1    2    0    0 -0.59743775603E-01 -0.26537659447E+00  0.29562490800E+01  0.29687375564E+01  0.00000000000E+00 0.  1.
</event>
<event>
 5    1  0.6440325E+001  0.1588400E+01  0.7818608E-02  0.3366050E+00
         11   -1    0    0    0    0  0.00000000000E+00  0.00000000000E+00  0.39999999674E+01  0.40000000000E+01  0.51100000000E-03 0.  1.
    9000002   -1    0    0    0    0 -0.00000000000E+00 -0.00000000000E+00  0.00000000000E+00  0.93800000000E+00  0.93800000000E+00 0.  1.
         11    1    1    2    0    0  0.29164790870E-01 -0.28705861637E-01  0.53150257526E+00  0.53307584841E+00  0.51100000000E-03 0.  1.
    9000002    1    1    2    0    0  0.18154607932E+00 -0.29709133061E+00  0.90390052654E-01  0.10046076843E+01  0.93800000000E+00 0.  1.
         22    1    1    2    0    0 -0.21071087019E+00  0.32579719225E+00  0.33781073394E+01  0.34003164673E+01  0.00000000000E+00 0.  1.
</event>
<event>
 5    1  0.6440325E+001  0.1585562E+01  0.7818608E-02  0.3369185E+00
         11   -1    0    0    0    0  0.00000000000E+00  0.00000000000E+00  0.39999999674E+01  0.40000000000E+01  0.51100000000E-03 0. -1.
    9000002   -1    0    0    0    0 -0.00000000000E+00 -0.00000000000E+00  0.00000000000E+00  0.93800000000E+00  0.93800000000E+00 0. -1.
         11    1    1    2    0    0  0.58805936623E-01  0.84589597641E-03  0.37812300078E+00  0.38266972517E+00  0.51100000000E-03 0. -1.
    9000002    1    1    2    0    0  0.25016442555E+00  0.15387935581E+00  0.68606866945E-01  0.98529792355E+00  0.93800000000E+00 0. -1.
         22    1    1    2    0    0 -0.30897036217E+00 -0.15472525179E+00  0.35532700996E+01  0.35700323513E+01  0.00000000000E+00 0. -1.
</event>
<event>
 5    1  0.6440325E+001  0.1596825E+01  0.7818608E-02  0.3356816E+00
         11   -1    0    0    0    0  0.00000000000E+00  0.00000000000E+00  0.39999999674E+01  0.40000000000E+01  0.51100000000E-03 0.  1.
    9000002   -1    0    0    0    0 -0.00000000000E+00 -0.00000000000E+00  0.00000000000E+00  0.93800000000E+00  0.93800000000E+00 0.  1.
         11    1    1    2    0    0  0.12124001103E-01 -0.71167494719E-01  0.11414420321E+01  0.11437228587E+01  0.51100000000E-03 0.  1.
    9000002    1    1    2    0    0  0.15745074900E+00  0.27211198791E+00  0.68277597269E-01  0.99163577115E+00  0.93800000000E+00 0.  1.
         22    1    1    2    0    0 -0.16957475011E+00 -0.20094449319E+00  0.27902803380E+01  0.28026413701E+01  0.00000000000E+00 0.  1.
</event>
<event>
 5    1  0.6440325E+001  0.1599670E+01  0.7818608E-02  0.3353721E+00
         11   -1    0    0    0    0  0.00000000000E+00  0.00000000000E+00  0.39999999674E+01  0.40000000000E+01  0.51100000000E-03 0. -1.
    9000002   -1    0    0    0    0 -0.00000000000E+00 -0.00000000000E+00  0.00000000000E+00  0.93800000000E+00  0.93800000000E+00 0. -1.
         11    1    1    2    0    0 -0.70660477301E-01  0.89437612742E-01  0.11281807444E+01  0.11339241786E+01  0.51100000000E-03 0. -1.
    9000002    1    1    2    0    0  0.23507302621E+00 -0.31235097044E+00  0.10296878957E+00  0.10214054180E+01  0.93800000000E+00 0. -1.
         22    1    1    2    0    0 -0.16441254891E+00  0.22291335770E+00  0.27688504334E+01  0.27826704033E+01  0.00000000000E+00 0. -1.
</event>
<event>
 5    1  0.6440325E+001  0.1585922E+01  0.7818608E-02  0.3368787E+00
         11   -1    0    0    0    0  0.00000000000E+00  0.00000000000E+00  0.39999999674E+01  0.40000000000E+01  0.51100000000E-03 0. -1.
    9000002   -1    0    0    0    0 -0.00000000000E+00 -0.00000000000E+00  0.00000000000E+00  0.93800000000E+00  0.93800000000E+00 0.  1.
         11    1    1    2    0    0  0.24474295131E-01  0.14476568636E-01  0.34555695508E+00  0.34672529831E+00  0.51100000000E-03 0. -1.
    9000002    1    1    2    0    0  0.61514872480E+00 -0.22492399450E+00  0.31780049373E+00  0.11873667971E+01  0.93800000000E+00 0.  1.
         22    1    1    2    0    0 -0.63962301993E+00  0.21044742587E+00  0.33366425185E+01  0.34039079046E+01  0.00000000000E+00 0. -1.
</event>
<event>
 5    1  0.6440325E+001  0.1599559E+01  0.7818608E-02  0.3353842E+00
         11   -1    0    0    0    0  0.00000000000E+00  0.00000000000E+00  0.39999999674E+01  0.40000000000E+01  0.51100000000E-03 0.  1.
    9000002   -1    0    0    0    0 -0.00000000000E+00 -0.00000000000E+00  0.00000000000E+00  0.93800000000E+00  0.93800000000E+00 0.  1.
         11    1    1    2    0    0 -0.22281183613E-01 -0.47987678904E-01  0.44328252636E+00  0.44642908482E+00  0.51100000000E-03 0.  1.
    9000002    1    1    2    0    0  0.25440126828E+00  0.37765496016E+00  0.14103869942E+00  0.10521783066E+01  0.93800000000E+00 0.  1.
         22    1    1    2    0    0 -0.23212008466E+00 -0.32966728126E+00  0.34156787416E+01  0.34393926085E+01  0.00000000000E+00 0.  1.
</event>
<event>
 5    1  0.6440325E+001  0.1553178E+01  0.7818608E-02  0.3405805E+00
         11   -1    0    0    0    0  0.00000000000E+00  0.00000000000E+00  0.39999999674E+01  0.40000000000E+01  0.51100000000E-03 0.  1.
    9000002   -1    0    0    0    0 -0.00000000000E+00 -0.00000000000E+00  0.00000000000E+00  0.93800000000E+00  0.93800000000E+00 0.  1.
         11    1    1    2    0    0 -0.27052734467E+00 -0.46608341163E-01  0.74365600899E+00  0.79270543237E+00  0.51100000000E-03 0.  1.
    9000002    1    1    2    0    0  0.45396238877E+00 -0.30364067525E+00  0.25100387885E+00  0.11140585520E+01  0.93800000000E+00 0.  1.
         22    1    1    2    0    0 -0.18343504411E+00  0.35024901641E+00  0.30053400795E+01  0.30312360156E+01  0.00000000000E+00 0.  1.
</event>
<event>
 5    1  0.6440325E+001  0.1599592E+01  0.7818608E-02  0.3353806E+00
         11   -1    0    0    0    0  0.00000000000E+00  0.00000000000E+00  0.39999999674E+01  0.40000000000E+01  0.51100000000E-03 0.  1.
    9000002   -1    0    0    0    0 -0.00000000000E+00 -0.00000000000E+00  0.00000000000E+00  0.93800000000E+00  0.93800000000E+00 0.  1.
         11    1    1    2    0    0 -0.59752421658E-01 -0.11217308809E+00  0.13547813875E+01  0.13607299595E+01  0.51100000000E-03 0.  1.
    9000002    1    1    2    0    0  0.18955612776E+00  0.34723218180E+00  0.10557478568E+00  0.10234704436E+01  0.93800000000E+00 0.  1.
         22    1    1    2    0    0 -0.12980370610E+00 -0.23505909371E+00  0.25396437942E+01  0.25537995969E+01  0.00000000000E+00 0. -1.
</event>
<event>
 5    1  0.6440325E+001  0.1599651E+01  0.7818608E-02  0.3353743E+00
         11   -1    0    0    0    0  0.00000000000E+00  0.00000000000E+00  0.39999999674E+01  0.40000000000E+01  0.51100000000E-03 0. -1.
    9000002   -1    0    0    0    0 -0.00000000000E+00 -0.00000000000E+00  0.00000000000E+00  0.93800000000E+00  0.93800000000E+00 0. -1.
         11    1    1    2    0    0 -0.19798008417E-02 -0.27044404496E-01  0.31903299328E+00  0.32018374623E+00  0.51100000000E-03 0. -1.
    9000002    1    1    2    0    0  0.62508961616E-01  0.34728857397E+00  0.83537524113E-01  0.10056536391E+01  0.93800000000E+00 0. -1.
         22    1    1    2    0    0 -0.60529160774E-01 -0.32024416947E+00  0.35974294500E+01  0.36121626147E+01  0.00000000000E+00 0. -1.
</event>
<event>
 5    1  0.6440325E+001  0.1599654E+01  0.7818608E-02  0.3353739E+00
         11   -1    0    0    0    0  0.00000000000E+00  0.00000000000E+00  0.39999999674E+01  0.40000000000E+01  0.51100000000E-03 0. -1.
    9000002   -1    0    0    0    0 -0.00000000000E+00 -0.00000000000E+00  0.00000000000E+00  0.93800000000E+00  0.93800000000E+00 0.  1.
         11    1    1    2    0    0 -0.95775516476E-01  0.10448579455E+00  0.12882321279E+01  0.12960063686E+01  0.51100000000E-03 0. -1.
    9000002    1    1    2    0    0  0.27355822272E+00 -0.30885798737E+00  0.11503022010E+00  0.10311659949E+01  0.93800000000E+00 0.  1.
         22    1    1    2    0    0 -0.17778270624E+00  0.20437219282E+00  0.25967376193E+01  0.26108276365E+01  0.00000000000E+00 0. -1.
</event>
<event>
 5    1  0.6440325E+001  0.1593670E+01  0.7818608E-02  0.3360263E+00
         11   -1    0    0    0    0  0.00000000000E+00  0.00000000000E+00  0.39999999674E+01  0.40000000000E+01  0.51100000000E-03 0. -1.
    9000002   -1    0    0    0    0 -0.00000000000E+00 -0.00000000000E+00  0.00000000000E+00  0.93800000000E+00  0.93800000000E+00 0.  1.
         11    1    1    2    0    0 -0.66149623707E-02 -0.73221521554E-01  0.17624326880E+00  0.19096360874E+00  0.51100000000E-03 0. -1.
    9000002    1    1    2    0    0 -0.16464546821E+00  0.70306687630E+00  0.38188495962E+00  0.12438212432E+01  0.93800000000E+00 0.  1.
         22    1    1    2    0    0  0.17126043058E+00 -0.62984535475E+00  0.34418717389E+01  0.35032151480E+01  0.00000000000E+00 0. -1.
</event>
<event>
 5    1  0.6440325E+001  0.1310045E+01  0.7818608E-02  0.3762894E+00
         11   -1    0    0    0    0  0.00000000000E+00  0.00000000000E+00  0.39999999674E+01  0.40000000000E+01  0.51100000000E-03 0. -1.
    9000002   -1    0    0    0    0 -0.00000000000E+00 -0.00000000000E+00  0.00000000000E+00  0.93800000000E+00  0.93800000000E+00 0.  1.
         11    1    1    2    0    0 -0.53848787792E+00  0.29979972404E+00  0.59328555337E+00  0.85547476769E+00  0.51100000000E-03 0. -1.
    9000002    1    1    2    0    0  0.54418386089E+00 -0.22904045559E-01  0.55689001865E+00  0.12192748511E+01  0.93800000000E+00 0.  1.
         22    1    1    2    0    0 -0.56959829699E-02 -0.27689567849E+00  0.28498243953E+01  0.28632503812E+01  0.00000000000E+00 0. -1.
</event>
<event>
 5    1  0.6440325E+001  0.1599413E+01  0.7818608E-02  0.3354001E+00
         11   -1    0    0    0    0  0.00000000000E+00  0.00000000000E+00  0.39999999674E+01  0.40000000000E+01  0.51100000000E-03 0.  1.
    9000002   -1    0    0    0    0 -0.00000000000E+00 -0.00000000000E+00  0.00000000000E+00  0.93800000000E+00  0.93800000000E+00 0. -1.
         11    1    1    2    0    0 -0.12844170532E+00  0.32182161772E-01  0.43943084844E+00  0.45894737703E+00  0.51100000000E-03 0.  1.
    9000002    1    1    2    0    0  0.90962214334E+00 -0.32792519040E+00  0.73917658647E+00  0.15366110113E+01  0.93800000000E+00 0. -1.
         22    1    1    2    0    0 -0.78118043802E+00  0.29574302863E+00  0.28213925325E+01  0.29424416116E+01  0.00000000000E+00 0.  1.
</event>
<event>
 5    1  0.6440325E+001  0.1597670E+01  0.7818608E-02  0.3355896E+00
         11   -1    0    0    0    0  0.00000000000E+00  0.00000000000E+00  0.39999999674E+01  0.40000000000E+01  0.51100000000E-03 0.  1.
    9000002   -1    0    0    0    0 -0.00000000000E+00 -0.00000000000E+00  0.00000000000E+00  0.93800000000E+00  0.93800000000E+00 0. -1.
         11    1    1    2    0    0  0.11239641709E-01  0.31091998300E+00  0.13948704257E+01  0.14291470642E+01  0.51100000000E-03 0.  1.
    9000002    1    1    2    0    0 -0.16070409918E+00 -0.79516074331E+00  0.48930156532E+00  0.13331790716E+01  0.93800000000E+00 0. -1.
         22    1    1    2    0    0  0.14946445747E+00  0.48424076031E+00  0.21158279763E+01  0.21756738642E+01  0.00000000000E+00 0.  1.
</event>
<event>
 5    1  0.6440325E+001  0.1599676E+01  0.7818608E-02  0.3353715E+00
         11   -1    0    0    0    0  0.00000000000E+00  0.00000000000E+00  0.39999999674E+01  0.40000000000E+01  0.51100000000E-03 0.  1.
    9000002   -1    0    0    0    0 -0.00000000000E+00 -0.00000000000E+00  0.00000000000E+00  0.93800000000E+00  0.93800000000E+00 0.  1.
         11    1    1    2    0    0 -0.62762663185E-01  0.84407539487E-01  0.80000354167E+00  0.80688890959E+00  0.51100000000E-03 0.  1.
    9000002    1    1    2    0    0  0.30338556474E+00 -0.40288973821E+00  0.17425398056E+00  0.10791530901E+01  0.93800000000E+00 0.  1.
         22    1    1    2    0    0 -0.24062290155E+00  0.31848219872E+00  0.30257424451E+01  0.30519580003E+01  0.00000000000E+00 0.  1.
</event>
<event>
 5    1  0.6440325E+001  0.1599525E+01  0.7818608E-02  0.3353879E+00
         11   -1    0    0    0    0  0.00000000000E+00  0.00000000000E+00  0.39999999674E+01  0.40000000000E+01  0.51100000000E-03 0. -1.
    9000002   -1    0    0    0    0 -0.00000000000E+00 -0.00000000000E+00  0.00000000000E+00  0.93800000000E+00  0.93800000000E+00 0.  1.
         11    1    1    2    0    0  0.34897772975E+00  0.57849765139E-01  0.12926937692E+01  0.13402199421E+01  0.51100000000E-03 0. -1.
    9000002    1    1    2    0    0 -0.88123952875E+00 -0.13448254828E+00  0.60625918419E+00  0.14290076491E+01  0.93800000000E+00 0.  1.
         22    1    1    2    0    0  0.53226179900E+00  0.76632783145E-01  0.21010470140E+01  0.21687724088E+01  0.00000000000E+00 0. -1.
</event>
<event>
 5    1  0.6440325E+001  0.1599664E+01  0.7818608E-02  0.3353728E+00
         11   -1    0    0    0    0  0.00000000000E+00  0.00000000000E+00  0.39999999674E+01  0.40000000000E+01  0.51100000000E-03 0. -1.
    9000002   -1    0    0    0    0 -0.00000000000E+00 -0.00000000000E+00  0.00000000000E+00  0.93800000000E+00  0.93800000000E+00 0.  1.
         11    1    1    2    0    0  0.43976520751E-01 -0.86344296075E-03  0.41116051002E+00  0.41350683916E+00  0.51100000000E-03 0. -1.
    9000002    1    1    2    0    0 -0.40370845394E+00 -0.13399753325E-01  0.11012133011E+00  0.10271955883E+01  0.93800000000E+00 0.  1.
         22    1    1    2    0    0  0.35973193319E+00  0.14263196285E-01  0.34787181272E+01  0.34972975726E+01  0.00000000000E+00 0. -1.
</event>
<event>
 5    1  0.6440325E+001  0.1594463E+01  0.7818608E-02  0.3359395E+00
         11   -1    0    0    0    0  0.00000000000E+00  0.00000000000E+00  0.39999999674E+01  0.40000000000E+01  0.51100000000E-03 0. -1.
    9000002   -1    0    0    0    0 -0.00000000000E+00 -0.00000000000E+00  0.00000000000E+00  0.93800000000E+00  0.93800000000E+00 0. -1.
         11    1    1    2    0    0  0.97051514848E-01 -0.25134741705E-01  0.80593331929E+00  0.81214501663E+00  0.51100000000E-03 0. -1.
    9000002    1    1    2    0    0 -0.30285818507E+00  0.41608665551E+00  0.18653350430E+00  0.10860432466E+01  0.93800000000E+00 0. -1.
         22    1    1    2    0    0  0.20580667022E+00 -0.39095191381E+00  0.30075331438E+01  0.30398117368E+01  0.00000000000E+00 0. -1.
</event>
<event>
 5    1  0.6440325E+001  0.1599653E+01  0.7818608E-02  0.3353740E+00
         11   -1    0    0    0    0  0.00000000000E+00  0.00000000000E+00  0.39999999674E+01  0.40000000000E+01  0.51100000000E-03 0. -1.
    9000002   -1    0    0    0    0 -0.00000000000E+00 -0.00000000000E+00  0.00000000000E+00  0.93800000000E+00  0.93800000000E+00 0. -1.
         11    1    1    2    0    0 -0.28072059761E-01  0.16128578480E-01  0.26092123949E+00  0.26292266148E+00  0.51100000000E-03 0. -1.
    9000002    1    1    2    0    0  0.37252374954E+00 -0.24235559846E+00  0.13405694650E+00  0.10465779689E+01  0.93800000000E+00 0. -1.
         22    1    1    2    0    0 -0.34445168978E+00  0.22622701998E+00  0.36050217814E+01  0.36284993696E+01  0.00000000000E+00 0. -1.
</event>
<event>
 5    1  0.6440325E+001  0.1599676E+01  0.7818608E-02  0.3353715E+00
         11   -1    0    0    0    0  0.00000000000E+00  0.00000000000E+00  0.39999999674E+01  0.40000000000E+01  0.51100000000E-03 0. -1.
    9000002   -1    0    0    0    0 -0.00000000000E+00 -0.00000000000E+00  0.00000000000E+00  0.93800000000E+00  0.93800000000E+00 0.  1.
         11    1    1    2    0    0 -0.68909995773E-01  0.12831737061E+00  0.13204123686E+01  0.13284212507E+01  0.51100000000E-03 0. -1.
    9000002    1    1    2    0    0  0.20186253860E+00 -0.37972336028E+00  0.12524859570E+00  0.10394563606E+01  0.93800000000E+00 0.  1.
         22    1    1    2    0    0 -0.13295254283E+00  0.25140598967E+00  0.25543390031E+01  0.25701223887E+01  0.00000000000E+00 0. -1.
</event>
<event>
 5    1  0.6440325E+001  0.1599675E+01  0.7818608E-02  0.3353717E+00
         11   -1    0    0    0    0  0.00000000000E+00  0.00000000000E+00  0.39999999674E+01  0.40000000000E+01  0.51100000000E-03 0.  1.
    9000002   -1    0    0    0    0 -0.00000000000E+00 -0.00000000000E+00  0.00000000000E+00  0.93800000000E+00  0.93800000000E+00 0. -1.
         11    1    1    2    0    0 -0.48568373539E-01 -0.10341082641E+00  0.10656007991E+01  0.10717079873E+01  0.51100000000E-03 0.  1.
    9000002    1    1    2    0    0  0.17744328400E+00  0.37104215022E+00  0.11427091268E+00  0.10305630683E+01  0.93800000000E+00 0. -1.
         22    1    1    2    0    0 -0.12887491046E+00 -0.26763132382E+00  0.28201282555E+01  0.28357289443E+01  0.00000000000E+00 0.  1.
</event>
<event>
 5    1  0.6440325E+001  0.1599663E+01  0.7818608E-02  0.3353729E+00
         11   -1    0    0    0    0  0.00000000000E+00  0.00000000000E+00  0.39999999674E+01  0.40000000000E+01  0.51100000000E-03 0. -1.
    9000002   -1    0    0    0    0 -0.00000000000E+00 -0.00000000000E+00  0.00000000000E+00  0.93800000000E+00  0.93800000000E+00 0. -1.
         11    1    1    2    0    0 -0.62815905764E-01 -0.17642975063E-01  0.50112108106E+00  0.50535107756E+00  0.51100000000E-03 0. -1.
    9000002    1    1    2    0    0  0.47422599860E+00  0.15723541127E+00  0.17087594391E+00  0.10764087795E+01  0.93800000000E+00 0. -1.
         22    1    1    2    0    0 -0.41141009284E+00 -0.13959243621E+00  0.33280029424E+01  0.33562401430E+01  0.00000000000E+00 0. -1.
</event>
<event>
 5    1  0.6440325E+001  0.1599670E+01  0.7818608E-02  0.3353721E+00
         11   -1    0    0    0    0  0.00000000000E+00  0.00000000000E+00  0.39999999674E+01  0.40000000000E+01  0.51100000000E-03 0. -1.
    9000002   -1    0    0    0    0 -0.00000000000E+00 -0.00000000000E+00  0.00000000000E+00  0.93800000000E+00  0.93800000000E+00 0.  1.
         11    1    1    2    0    0 -0.78651583687E-01  0.39615048180E-01  0.66682627568E+00  0.67261650792E+00  0.51100000000E-03 0. -1.
    9000002    1    1    2    0    0  0.43875426189E+00 -0.22854897289E+00  0.16739637508E+00  0.10735946543E+01  0.93800000000E+00 0.  1.
         22    1    1    2    0    0 -0.36010267820E+00  0.18893392471E+00  0.31657773166E+01  0.31917888378E+01  0.00000000000E+00 0. -1.
</event>
<event>
 5    1  0.6440325E+001  0.1599677E+01  0.7818608E-02  0.3353715E+00
         11   -1    0    0    0    0  0.00000000000E+00  0.00000000000E+00  0.39999999674E+01  0.40000000000E+01  0.51100000000E-03 0. -1.
    9000002   -1    0    0    0    0 -0.00000000000E+00 -0.00000000000E+00  0.00000000000E+00  0.93800000000E+00  0.93800000000E+00 0.  1.
         11    1    1    2    0    0 -0.59929842523E-01 -0.21930234819E-01  0.44400833374E+00  0.44857126833E+00  0.51100000000E-03 0. -1.
    9000002    1    1    2    0    0  0.51493861283E+00  0.18710494308E+00  0.20724484388E+00  0.11058772355E+01  0.93800000000E+00 0.  1.
         22    1    1    2    0    0 -0.45500877031E+00 -0.16517470826E+00  0.33487467897E+01  0.33835514962E+01  0.00000000000E+00 0. -1.
</event>
<event>
 5    1  0.6440325E+001  0.1496834E+01  0.7818608E-02  0.3473557E+00
         11   -1    0    0    0    0  0.00000000000E+00  0.00000000000E+00  0.39999999674E+01  0.40000000000E+01  0.51100000000E-03 0.  1.
    9000002   -1    0    0    0    0 -0.00000000000E+00 -0.00000000000E+00  0.00000000000E+00  0.93800000000E+00  0.93800000000E+00 0. -1.
         11    1    1    2    0    0  0.53389454614E+00 -0.22601618337E+00  0.88806454990E+00  0.10605591013E+01  0.51100000000E-03 0.  1.
    9000002    1    1    2    0    0 -0.27410102229E+00  0.43362415719E+00  0.39425982030E+00  0.11394937850E+01  0.93800000000E+00 0. -1.
         22    1    1    2    0    0 -0.25979352385E+00 -0.20760797382E+00  0.27176755972E+01  0.27379471137E+01  0.00000000000E+00 0.  1.
</event>
<event>
 5    1  0.7445557E+001  0.1597346E+01  0.7818608E-02  0.3356249E+00
         11   -1    0    0    0    0  0.00000000000E+00  0.00000000000E+00  0.39999999674E+01  0.40000000000E+01  0.51100000000E-03 0. -1.
    9000002   -1    0    0    0    0 -0.00000000000E+00 -0.00000000000E+00  0.00000000000E+00  0.93800000000E+00  0.93800000000E+00 0. -1.
         11    1    1    2    0    0 -0.49090984897E-01 -0.92619541548E-02  0.13561261168E+01  0.13570460620E+01  0.51100000000E-03 0. -1.
    9000002    1    1    2    0    0  0.26758638834E+00 -0.74589230926E-01  0.53182655382E-01  0.97971343945E+00  0.93800000000E+00 0. -1.
         22    1    1    2    0    0 -0.21849540345E+00  0.83851185081E-01  0.25906911952E+01  0.26012404986E+01  0.00000000000E+00 0. -1.
</event>
<event>
 5    1  0.6440325E+001  0.1538440E+01  0.7818608E-02  0.3423014E+00
         11   -1    0    0    0    0  0.00000000000E+00  0.00000000000E+00  0.39999999674E+01  0.40000000000E+01  0.51100000000E-03 0. -1.
    9000002   -1    0    0    0    0 -0.00000000000E+00 -0.00000000000E+00  0.00000000000E+00  0.93800000000E+00  0.93800000000E+00 0. -1.
         11    1    1    2    0    0  0.16461194979E-01  0.45474421768E+00  0.59552019788E+00  0.74947170838E+00  0.51100000000E-03 0. -1.
    9000002    1    1    2    0    0  0.39939976050E+00 -0.49315686604E-01  0.34954857485E+00  0.10788792388E+01  0.93800000000E+00 0. -1.
         22    1    1    2    0    0 -0.41586095548E+00 -0.40542853108E+00  0.30549311946E+01  0.31096490529E+01  0.00000000000E+00 0. -1.
</event>
<event>
 5    1  0.6440325E+001  0.1596686E+01  0.7818608E-02  0.3356969E+00
         11   -1    0    0    0    0  0.00000000000E+00  0.00000000000E+00  0.39999999674E+01  0.40000000000E+01  0.51100000000E-03 0.  1.
    9000002   -1    0    0    0    0 -0.00000000000E+00 -0.00000000000E+00  0.00000000000E+00  0.93800000000E+00  0.93800000000E+00 0.  1.
         11    1    1    2    0    0  0.42690887782E-01  0.34384783822E-01  0.30792093820E+00  0.31276251464E+00  0.51100000000E-03 0.  1.
    9000002    1    1    2    0    0 -0.42494780594E+00  0.23506526843E-02  0.12475252145E+00  0.10373009953E+01  0.93800000000E+00 0.  1.
         22    1    1    2    0    0  0.38225691816E+00 -0.36735436506E-01  0.35673265077E+01  0.35879364900E+01  0.00000000000E+00 0.  1.
</event>
<event>
 5    1  0.6440325E+001  0.1558466E+01  0.7818608E-02  0.3399714E+00
         11   -1    0    0    0    0  0.00000000000E+00  0.00000000000E+00  0.39999999674E+01  0.40000000000E+01  0.51100000000E-03 0. -1.
    9000002   -1    0    0    0    0 -0.00000000000E+00 -0.00000000000E+00  0.00000000000E+00  0.93800000000E+00  0.93800000000E+00 0.  1.
         11    1    1    2    0    0  0.21072518479E+00  0.19753087488E-01  0.12754323376E+01  0.12928740066E+01  0.51100000000E-03 0. -1.
    9000002    1    1    2    0    0  0.27720072821E-01 -0.25775892228E+00  0.76998214450E-01  0.97620734963E+00  0.93800000000E+00 0.  1.
         22    1    1    2    0    0 -0.23844525761E+00  0.23800583479E+00  0.26475694153E+01  0.26689186437E+01  0.00000000000E+00 0. -1.
</event>
<event>
 5    1  0.6440325E+001  0.1599669E+01  0.7818608E-02  0.3353723E+00
         11   -1    0    0    0    0  0.00000000000E+00  0.00000000000E+00  0.39999999674E+01  0.40000000000E+01  0.51100000000E-03 0. -1.
    9000002   -1    0    0    0    0 -0.00000000000E+00 -0.00000000000E+00  0.00000000000E+00  0.93800000000E+00  0.93800000000E+00 0. -1.
         11    1    1    2    0    0 -0.29430774638E-01 -0.10898804596E+00  0.11324006029E+01  0.11380140382E+01  0.51100000000E-03 0. -1.
    9000002    1    1    2    0    0  0.10786936788E+00  0.36680074533E+00  0.98389538168E-01  0.10176949880E+01  0.93800000000E+00 0. -1.
         22    1    1    2    0    0 -0.78438593246E-01 -0.25781269937E+00  0.27692098263E+01  0.27822909738E+01  0.00000000000E+00 0. -1.
</event>
<event>
 5    1  0.6440325E+001  0.1599513E+01  0.7818608E-02  0.3353892E+00
         11   -1    0    0    0    0  0.00000000000E+00  0.00000000000E+00  0.39999999674E+01  0.40000000000E+01  0.51100000000E-03 0.  1.
    9000002   -1    0    0    0    0 -0.00000000000E+00 -0.00000000000E+00  0.00000000000E+00  0.93800000000E+00  0.93800000000E+00 0.  1.
         11    1    1    2    0    0 -0.53038974862E-01  0.13672863723E+00  0.10539183811E+01  0.10640733378E+01  0.51100000000E-03 0.  1.
    9000002    1    1    2    0    0  0.20537016547E+00 -0.44860741786E+00  0.16660159338E+00  0.10728586166E+01  0.93800000000E+00 0.  1.
         22    1    1    2    0    0 -0.15233119061E+00  0.31187878062E+00  0.27794799929E+01  0.28010680456E+01  0.00000000000E+00 0.  1.
</event>
<event>
 5    1  0.6440325E+001  0.1540526E+01  0.7818608E-02  0.3420556E+00
         11   -1    0    0    0    0  0.00000000000E+00  0.00000000000E+00  0.39999999674E+01  0.40000000000E+01  0.51100000000E-03 0. -1.
    9000002   -1    0    0    0    0 -0.00000000000E+00 -0.00000000000E+00  0.00000000000E+00  0.93800000000E+00  0.93800000000E+00 0. -1.
         11    1    1    2    0    0  0.18099667230E+00 -0.22429338901E+00  0.99560813840E+00  0.10364859604E+01  0.51100000000E-03 0. -1.
    9000002    1    1    2    0    0  0.22142979470E+00  0.47523038942E+00  0.24564247341E+00  0.11022972837E+01  0.93800000000E+00 0. -1.
         22    1    1    2    0    0 -0.40242646700E+00 -0.25093700041E+00  0.27587493555E+01  0.27992167559E+01  0.00000000000E+00 0. -1.
</event>
<event>
 5    1  0.6440325E+001  0.1598324E+01  0.7818608E-02  0.3355184E+00
         11   -1    0    0    0    0  0.00000000000E+00  0.00000000000E+00  0.39999999674E+01  0.40000000000E+01  0.51100000000E-03 0. -1.
    9000002   -1    0    0    0    0 -0.00000000000E+00 -0.00000000000E+00  0.00000000000E+00  0.93800000000E+00  0.93800000000E+00 0.  1.
         11    1    1    2    0    0 -0.20362092828E+00  0.48840965158E-01  0.12137826049E+01  0.12317123834E+01  0.51100000000E-03 0. -1.
    9000002    1    1    2    0    0  0.50789952813E+00 -0.16416688501E+00  0.19745353005E+00  0.10971529489E+01  0.93800000000E+00 0.  1.
         22    1    1    2    0    0 -0.30427859986E+00  0.11532591985E+00  0.25887638324E+01  0.26091346677E+01  0.00000000000E+00 0. -1.
</event>
<event>
 5    1  0.6440325E+001  0.1597691E+01  0.7818608E-02  0.3355873E+00
         11   -1    0    0    0    0  0.00000000000E+00  0.00000000000E+00  0.39999999674E+01  0.40000000000E+01  0.51100000000E-03 0.  1.
    9000002   -1    0    0    0    0 -0.00000000000E+00 -0.00000000000E+00  0.00000000000E+00  0.93800000000E+00  0.93800000000E+00 0.  1.
         11    1    1    2    0    0  0.59147288880E-01  0.91628132804E-01  0.10432023850E+01  0.10488877889E+01  0.51100000000E-03 0.  1.
    9000002    1    1    2    0    0 -0.27149021438E+00 -0.49705609262E+00  0.22416790802E+00  0.11184216319E+01  0.93800000000E+00 0.  1.
         22    1    1    2    0    0  0.21234292550E+00  0.40542795982E+00  0.27326296743E+01  0.27706905792E+01  0.00000000000E+00 0.  1.
</event>
<event>
 5    1  0.6440325E+001  0.1599639E+01  0.7818608E-02  0.3353755E+00
         11   -1    0    0    0    0  0.00000000000E+00  0.00000000000E+00  0.39999999674E+01  0.40000000000E+01  0.51100000000E-03 0. -1.
    9000002   -1    0    0    0    0 -0.00000000000E+00 -0.00000000000E+00  0.00000000000E+00  0.93800000000E+00  0.93800000000E+00 0.  1.
         11    1    1    2    0    0 -0.57249771016E-01 -0.41611742782E-01  0.70102879649E+00  0.70459258302E+00  0.51100000000E-03 0. -1.
    9000002    1    1    2    0    0  0.31422945516E+00  0.20068879838E+00  0.93486307069E-01  0.10137059899E+01  0.93800000000E+00 0.  1.
         22    1    1    2    0    0 -0.25697968414E+00 -0.15907705560E+00  0.32054848638E+01  0.32197014271E+01  0.00000000000E+00 0. -1.
</event>
<event>
 5    1  0.6440325E+001  0.1599608E+01  0.7818608E-02  0.3353789E+00
         11   -1    0    0    0    0  0.00000000000E+00  0.00000000000E+00  0.39999999674E+01  0.40000000000E+01  0.51100000000E-03 0.  1.
    9000002   -1    0    0    0    0 -0.00000000000E+00 -0.00000000000E+00  0.00000000000E+00  0.93800000000E+00  0.93800000000E+00 0.  1.
         11    1    1    2    0    0  0.60887967951E-01 -0.11271530627E+00  0.11383580047E+01  0.11455441034E+01  0.51100000000E-03 0.  1.
    9000002    1    1    2    0    0 -0.18180074211E+00  0.40129747723E+00  0.13170205191E+00  0.10446437697E+01  0.93800000000E+00 0.  1.
         22    1    1    2    0    0  0.12091277416E+00 -0.28858217096E+00  0.27299399108E+01  0.27478121269E+01  0.00000000000E+00 0.  1.
</event>
<event>
 5    1  0.6440325E+001  0.1568063E+01  0.7818608E-02  0.3388773E+00
         11   -1    0    0    0    0  0.00000000000E+00  0.00000000000E+00  0.39999999674E+01  0.40000000000E+01  0.51100000000E-03 0.  1.
    9000002   -1    0    0    0    0 -0.00000000000E+00 -0.00000000000E+00  0.00000000000E+00  0.93800000000E+00  0.93800000000E+00 0. -1.
         11    1    1    2    0    0 -0.35101748211E-01  0.99368971631E-01  0.37119759113E+00  0.38586816147E+00  0.51100000000E-03 0.  1.
    9000002    1    1    2    0    0  0.20080681378E-01  0.23044002089E+00  0.59861719900E-01  0.96795313032E+00  0.93800000000E+00 0. -1.
         22    1    1    2    0    0  0.15021066834E-01 -0.32980899252E+00  0.35689406563E+01  0.35841787082E+01  0.00000000000E+00 0.  1.
</event>
<event>
 5    1  0.6440325E+001  0.1460107E+01  0.7818608E-02  0.3520759E+00
         11   -1    0    0    0    0  0.00000000000E+00  0.00000000000E+00  0.39999999674E+01  0.40000000000E+01  0.51100000000E-03 0. -1.
    9000002   -1    0    0    0    0 -0.00000000000E+00 -0.00000000000E+00  0.00000000000E+00  0.93800000000E+00  0.93800000000E+00 0. -1.
         11    1    1    2    0    0  0.33354283235E+00  0.23162781372E-01  0.94171839394E+00  0.99931032721E+00  0.51100000000E-03 0. -1.
    9000002    1    1    2    0    0  0.21863470751E+00 -0.90554786693E-02  0.14563858005E+00  0.97413435060E+00  0.93800000000E+00 0. -1.
         22    1    1    2    0    0 -0.55217753986E+00 -0.14107302702E-01  0.29126429934E+01  0.29645553222E+01  0.00000000000E+00 0. -1.
</event>
<event>
 5    1  0.6440325E+001  0.1599505E+01  0.7818608E-02  0.3353901E+00
         11   -1    0    0    0    0  0.00000000000E+00  0.00000000000E+00  0.39999999674E+01  0.40000000000E+01  0.51100000000E-03 0. -1.
    9000002   -1    0    0    0    0 -0.00000000000E+00 -0.00000000000E+00  0.00000000000E+00  0.93800000000E+00  0.93800000000E+00 0.  1.
         11    1    1    2    0    0  0.49334014391E-02 -0.81967456699E-01  0.10658882021E+01  0.10690467357E+01  0.51100000000E-03 0. -1.
    9000002    1    1    2    0    0 -0.16485885428E-01  0.35298537567E+00  0.83897383037E-01  0.10058594488E+01  0.93800000000E+00 0.  1.
         22    1    1    2    0    0  0.11552483989E-01 -0.27101791897E+00  0.28502143822E+01  0.28630938155E+01  0.00000000000E+00 0. -1.
</event>
<event>
 5    1  0.6906611E+001  0.1599318E+01  0.7818608E-02  0.3354104E+00
         11   -1    0    0    0    0  0.00000000000E+00  0.00000000000E+00  0.39999999674E+01  0.40000000000E+01  0.51100000000E-03 0. -1.
    9000002   -1    0    0    0    0 -0.00000000000E+00 -0.00000000000E+00  0.00000000000E+00  0.93800000000E+00  0.93800000000E+00 0.  1.
         11    1    1    2    0    0 -0.83720394781E-01 -0.53670483660E-01  0.13851193337E+01  0.13886847933E+01  0.51100000000E-03 0. -1.
    9000002    1    1    2    0    0  0.28412253674E+00  0.19207624423E+00  0.79092082209E-01  0.10018575033E+01  0.93800000000E+00 0.  1.
         22    1    1    2    0    0 -0.20040214196E+00 -0.13840576057E+00  0.25357885514E+01  0.25474577034E+01  0.00000000000E+00 0. -1.
</event>
<event>
 5    1  0.6440325E+001  0.1599534E+01  0.7818608E-02  0.3353870E+00
         11   -1    0    0    0    0  0.00000000000E+00  0.00000000000E+00  0.39999999674E+01  0.40000000000E+01  0.51100000000E-03 0.  1.
    9000002   -1    0    0    0    0 -0.00000000000E+00 -0.00000000000E+00  0.00000000000E+00  0.93800000000E+00  0.93800000000E+00 0.  1.
         11    1    1    2    0    0 -0.10272421583E+00  0.64484431524E-01  0.10511619809E+01  0.10581362283E+01  0.51100000000E-03 0.  1.
    9000002    1    1    2    0    0  0.36563969968E+00 -0.19292530059E+00  0.11560705159E+00  0.10315626748E+01  0.93800000000E+00 0.  1.
         22    1    1    2    0    0 -0.26291548385E+00  0.12844086906E+00  0.28332309348E+01  0.28483010969E+01  0.00000000000E+00 0.  1.
</event>
<event>
 5    1  0.6440325E+001  0.1580650E+01  0.7818608E-02  0.3374636E+00
         11   -1    0    0    0    0  0.00000000000E+00  0.00000000000E+00  0.39999999674E+01  0.40000000000E+01  0.51100000000E-03 0.  1.
    9000002   -1    0    0    0    0 -0.00000000000E+00 -0.00000000000E+00  0.00000000000E+00  0.93800000000E+00  0.93800000000E+00 0.  1.
         11    1    1    2    0    0 -0.55853953094E-01  0.34734066368E-02  0.64634234456E+00  0.64876067708E+00  0.51100000000E-03 0.  1.
    9000002    1    1    2    0    0  0.77472363826E+00  0.47006002191E+00  0.66066333844E+00  0.14620099817E+01  0.93800000000E+00 0.  1.
         22    1    1    2    0    0 -0.71886968516E+00 -0.47353342854E+00  0.26929942844E+01  0.28272293412E+01  0.00000000000E+00 0.  1.
</event>
<event>
 5    1  0.6440325E+001  0.1590491E+01  0.7818608E-02  0.3363750E+00
         11   -1    0    0    0    0  0.00000000000E+00  0.00000000000E+00  0.39999999674E+01  0.40000000000E+01  0.51100000000E-03 0.  1.
    9000002   -1    0    0    0    0 -0.00000000000E+00 -0.00000000000E+00  0.00000000000E+00  0.93800000000E+00  0.93800000000E+00 0. -1.
         11    1    1    2    0    0 -0.27452416081E-01  0.67968487650E-01  0.39077796285E+00  0.39759404904E+00  0.51100000000E-03 0.  1.
    9000002    1    1    2    0    0 -0.29414202138E+00 -0.28073002856E+00  0.11933241159E+00  0.10292779518E+01  0.93800000000E+00 0. -1.
         22    1    1    2    0    0  0.32159443746E+00  0.21276154091E+00  0.34898895929E+01  0.35111279991E+01  0.00000000000E+00 0.  1.
</event>
<event>
 5    1  0.6440325E+001  0.1599639E+01  0.7818608E-02  0.3353755E+00
         11   -1    0    0    0    0  0.00000000000E+00  0.00000000000E+00  0.39999999674E+01  0.40000000000E+01  0.51100000000E-03 0. -1.
    9000002   -1    0    0    0    0 -0.00000000000E+00 -0.00000000000E+00  0.00000000000E+00  0.93800000000E+00  0.93800000000E+00 0. -1.
         11    1    1    2    0    0  0.66807326463E-01 -0.17419573186E+00  0.12583786935E+01  0.12721338645E+01  0.51100000000E-03 0. -1.
    9000002    1    1    2    0    0 -0.18365157246E+00  0.51388816719E+00  0.20556609540E+00  0.11044955265E+01  0.93800000000E+00 0. -1.
         22    1    1    2    0    0  0.11684424600E+00 -0.33969243534E+00  0.25360551784E+01  0.25613706090E+01  0.00000000000E+00 0. -1.
</event>
<event>
 5    1  0.6440325E+001  0.1599140E+01  0.7818608E-02  0.3354298E+00
         11   -1    0    0    0    0  0.00000000000E+00  0.00000000000E+00  0.39999999674E+01  0.40000000000E+01  0.51100000000E-03 0. -1.
    9000002   -1    0    0    0    0 -0.00000000000E+00 -0.00000000000E+00  0.00000000000E+00  0.93800000000E+00  0.93800000000E+00 0.  1.
         11    1    1    2    0    0 -0.11659682888E-01  0.13634019952E-01  0.18375899086E+00  0.18463331917E+00  0.51100000000E-03 0. -1.
    9000002    1    1    2    0    0  0.15451478331E+00 -0.51448205784E+00  0.19933724365E+00  0.10991569236E+01  0.93800000000E+00 0.  1.
         22    1    1    2    0    0 -0.14285510042E+00  0.50084803789E+00  0.36169037329E+01  0.36542097572E+01  0.00000000000E+00 0. -1.
</event>
<event>
 5    1  0.6440325E+001  0.1599675E+01  0.7818608E-02  0.3353716E+00
         11   -1    0    0    0    0  0.00000000000E+00  0.00000000000E+00  0.39999999674E+01  0.40000000000E+01  0.51100000000E-03 0. -1.
    9000002   -1    0    0    0    0 -0.00000000000E+00 -0.00000000000E+00  0.00000000000E+00  0.93800000000E+00  0.93800000000E+00 0.  1.
         11    1    1    2    0    0  0.39733949768E-01  0.15232271818E+00  0.14915335161E+01  0.14998178182E+01  0.51100000000E-03 0. -1.
    9000002    1    1    2    0    0 -0.99573635321E-01 -0.39691915485E+00  0.11309187383E+00  0.10296084189E+01  0.93800000000E+00 0.  1.
         22    1    1    2    0    0  0.59839685553E-01  0.24459643667E+00  0.23953745775E+01  0.24085737629E+01  0.00000000000E+00 0. -1.
</event>
<event>
 5    1  0.6440325E+001  0.1599659E+01  0.7818608E-02  0.3353734E+00
         11   -1    0    0    0    0  0.00000000000E+00  0.00000000000E+00  0.39999999674E+01  0.40000000000E+01  0.51100000000E-03 0. -1.
    9000002   -1    0    0    0    0 -0.00000000000E+00 -0.00000000000E+00  0.00000000000E+00  0.93800000000E+00  0.93800000000E+00 0. -1.
         11    1    1    2    0    0  0.81468665730E-01 -0.53851641645E-01  0.10078618691E+01  0.10125823182E+01  0.51100000000E-03 0. -1.
    9000002    1    1    2    0    0 -0.30383055673E+00  0.19686666180E+00  0.88016996527E-01  0.10092871154E+01  0.93800000000E+00 0. -1.
         22    1    1    2    0    0  0.22236189100E+00 -0.14301502015E+00  0.29041211018E+01  0.29161305664E+01  0.00000000000E+00 0. -1.
</event>
<event>
 5    1  0.6440325E+001  0.1599546E+01  0.7818608E-02  0.3353856E+00
         11   -1    0    0    0    0  0.00000000000E+00  0.00000000000E+00  0.39999999674E+01  0.40000000000E+01  0.51100000000E-03 0.  1.
    9000002   -1    0    0    0    0 -0.00000000000E+00 -0.00000000000E+00  0.00000000000E+00  0.93800000000E+00  0.93800000000E+00 0. -1.
         11    1    1    2    0    0  0.31581339733E-01  0.29113675587E-01  0.35209744726E+00  0.35470813440E+00  0.51100000000E-03 0.  1.
    9000002    1    1    2    0    0 -0.41980878802E+00 -0.27622890662E+00  0.17307098777E+00  0.10781184509E+01  0.93800000000E+00 0. -1.
         22    1    1    2    0    0  0.38822744829E+00  0.24711523104E+00  0.34748315323E+01  0.35051734147E+01  0.00000000000E+00 0.  1.
</event>
<event>
 5    1  0.6440325E+001  0.1599664E+01  0.7818608E-02  0.3353728E+00
         11   -1    0    0    0    0  0.00000000000E+00  0.00000000000E+00  0.39999999674E+01  0.40000000000E+01  0.51100000000E-03 0. -1.
    9000002   -1    0    0    0    0 -0.00000000000E+00 -0.00000000000E+00  0.00000000000E+00  0.93800000000E+00  0.93800000000E+00 0. -1.
         11    1    1    2    0    0 -0.88834434906E-01  0.47664861875E-02  0.96016411606E+00  0.96427675856E+00  0.51100000000E-03 0. -1.
    9000002    1    1    2    0    0  0.37047341049E+00 -0.71565306824E-02  0.92288528764E-01  0.10127501846E+01  0.93800000000E+00 0. -1.
         22    1    1    2    0    0 -0.28163897558E+00  0.23900444949E-02  0.29475473225E+01  0.29609730569E+01  0.00000000000E+00 0. -1.
</event>
<event>
 5    1  0.6440325E+001  0.1584599E+01  0.7818608E-02  0.3370251E+00
         11   -1    0    0    0    0  0.00000000000E+00  0.00000000000E+00  0.39999999674E+01  0.40000000000E+01  0.51100000000E-03 0. -1.
    9000002   -1    0    0    0    0 -0.00000000000E+00 -0.00000000000E+00  0.00000000000E+00  0.93800000000E+00  0.93800000000E+00 0. -1.
         11    1    1    2    0    0  0.20209450665E-01  0.55545045390E-01  0.24250169072E+00  0.24960169287E+00  0.51100000000E-03 0. -1.
    9000002    1    1    2    0    0  0.31806788384E+00  0.59684176180E-01  0.82078155029E-01  0.99564562127E+00  0.93800000000E+00 0. -1.
         22    1    1    2    0    0 -0.33827733451E+00 -0.11522922157E+00  0.36754201216E+01  0.36927526859E+01  0.00000000000E+00 0. -1.
</event>
<event>
 5    1  0.6440325E+001  0.1599641E+01  0.7818608E-02  0.3353753E+00
         11   -1    0    0    0    0  0.00000000000E+00  0.00000000000E+00  0.39999999674E+01  0.40000000000E+01  0.51100000000E-03 0.  1.
    9000002   -1    0    0    0    0 -0.00000000000E+00 -0.00000000000E+00  0.00000000000E+00  0.93800000000E+00  0.93800000000E+00 0.  1.
         11    1    1    2    0    0  0.30834691641E-01  0.10498488371E+00  0.70957936908E+00  0.71796639626E+00  0.51100000000E-03 0.  1.
    9000002    1    1    2    0    0 -0.18002693144E+00 -0.53361242929E+00  0.21964841834E+00  0.11159038258E+01  0.93800000000E+00 0. -1.
         22    1    1    2    0    0  0.14919223980E+00  0.42862754558E+00  0.30707721799E+01  0.31041297780E+01  0.00000000000E+00 0.  1.
</event>
<event>
 5    1  0.6440325E+001  0.1599653E+01  0.7818608E-02  0.3353740E+00
         11   -1    0    0    0    0  0.00000000000E+00  0.00000000000E+00  0.39999999674E+01  0.40000000000E+01  0.51100000000E-03 0. -1.
    9000002   -1    0    0    0    0 -0.00000000000E+00 -0.00000000000E+00  0.00000000000E+00  0.93800000000E+00  0.93800000000E+00 0. -1.
         11    1    1    2    0    0  0.47963445507E-02 -0.13989018282E-01  0.12385884355E+00  0.12473961600E+00  0.51100000000E-03 0. -1.
    9000002    1    1    2    0    0 -0.92188195432E-01  0.46268972864E+00  0.15169531019E+00  0.10608656444E+01  0.93800000000E+00 0. -1.
         22    1    1    2    0    0  0.87391850881E-01 -0.44870071035E+00  0.37244458136E+01  0.37523947396E+01  0.00000000000E+00 0. -1.
</event>
<event>
 5    1  0.6440325E+001  0.1599634E+01  0.7818608E-02  0.3353761E+00
         11   -1    0    0    0    0  0.00000000000E+00  0.00000000000E+00  0.39999999674E+01  0.40000000000E+01  0.51100000000E-03 0.  1.
    9000002   -1    0    0    0    0 -0.00000000000E+00 -0.00000000000E+00  0.00000000000E+00  0.93800000000E+00  0.93800000000E+00 0. -1.
         11    1    1    2    0    0 -0.36174776279E-01  0.95670151340E-01  0.10430722902E+01  0.10480751195E+01  0.51100000000E-03 0.  1.
    9000002    1    1    2    0    0  0.15397701368E+00 -0.33972862357E+00  0.93565325661E-01  0.10137667032E+01  0.93800000000E+00 0. -1.
         22    1    1    2    0    0 -0.11780223740E+00  0.24405847223E+00  0.28633623515E+01  0.28761581773E+01  0.00000000000E+00 0.  1.
</event>
<event>
 5    1  0.6440325E+001  0.1593947E+01  0.7818608E-02  0.3359960E+00
         11   -1    0    0    0    0  0.00000000000E+00  0.00000000000E+00  0.39999999674E+01  0.40000000000E+01  0.51100000000E-03 0.  1.
    9000002   -1    0    0    0    0 -0.00000000000E+00 -0.00000000000E+00  0.00000000000E+00  0.93800000000E+00  0.93800000000E+00 0. -1.
         11    1    1    2    0    0  0.47323310158E-01 -0.42074912395E-01  0.58964856216E+00  0.59303919087E+00  0.51100000000E-03 0.  1.
    9000002    1    1    2    0    0 -0.28533357408E+00 -0.15218500360E+00  0.74478450524E-01  0.99497063445E+00  0.93800000000E+00 0. -1.
         22    1    1    2    0    0  0.23801026392E+00  0.19425991599E+00  0.33358729547E+01  0.33499901747E+01  0.00000000000E+00 0.  1.
</event>
<event>
 5    1  0.6440325E+001  0.1599581E+01  0.7818608E-02  0.3353818E+00
         11   -1    0    0    0    0  0.00000000000E+00  0.00000000000E+00  0.39999999674E+01  0.40000000000E+01  0.51100000000E-03 0.  1.
    9000002   -1    0    0    0    0 -0.00000000000E+00 -0.00000000000E+00  0.00000000000E+00  0.93800000000E+00  0.93800000000E+00 0. -1.
         11    1    1    2    0    0 -0.41108635827E-01 -0.10993650354E-01  0.48897739421E+00  0.49082576691E+00  0.51100000000E-03 0.  1.
    9000002    1    1    2    0    0  0.37998437832E+00  0.53273930476E-01  0.99183479380E-01  0.10182866011E+01  0.93800000000E+00 0. -1.
         22    1    1    2    0    0 -0.33887574250E+00 -0.42280280122E-01  0.34118390938E+01  0.34288876320E+01  0.00000000000E+00 0.  1.
</event>
<event>
 5    1  0.6440325E+001  0.1599677E+01  0.7818608E-02  0.3353714E+00
         11   -1    0    0    0    0  0.00000000000E+00  0.00000000000E+00  0.39999999674E+01  0.40000000000E+01  0.51100000000E-03 0. -1.
    9000002   -1    0    0    0    0 -0.00000000000E+00 -0.00000000000E+00  0.00000000000E+00  0.93800000000E+00  0.93800000000E+00 0.  1.
         11    1    1    2    0    0 -0.18079843887E+00 -0.41622065798E-01  0.14424237850E+01  0.14543064012E+01  0.51100000000E-03 0.  1.
    9000002    1    1    2    0    0  0.48049229143E+00  0.10974058068E+00  0.16609229903E+00  0.10725420686E+01  0.93800000000E+00 0.  1.
         22    1    1    2    0    0 -0.29969385256E+00 -0.68118514882E-01  0.23914838833E+01  0.24111515302E+01  0.00000000000E+00 0. -1.
</event>
<event>
 5    1  0.6440325E+001  0.1599675E+01  0.7818608E-02  0.3353717E+00
         11   -1    0    0    0    0  0.00000000000E+00  0.00000000000E+00  0.39999999674E+01  0.40000000000E+01  0.51100000000E-03 0. -1.
    9000002   -1    0    0    0    0 -0.00000000000E+00 -0.00000000000E+00  0.00000000000E+00  0.93800000000E+00  0.93800000000E+00 0.  1.
         11    1    1    2    0    0  0.53647123898E-01 -0.92937331204E-01  0.11150531903E+01  0.11202049989E+01  0.51100000000E-03 0. -1.
    9000002    1    1    2    0    0 -0.18549304726E+00  0.32034127161E+00  0.92090737974E-01  0.10125961213E+01  0.93800000000E+00 0.  1.
         22    1    1    2    0    0  0.13184592336E+00 -0.22740394041E+00  0.27928560391E+01  0.28051988797E+01  0.00000000000E+00 0. -1.
</event>
<event>
 5    1  0.6440325E+001  0.1597776E+01  0.7818608E-02  0.3355781E+00
         11   -1    0    0    0    0  0.00000000000E+00  0.00000000000E+00  0.39999999674E+01  0.40000000000E+01  0.51100000000E-03 0.  1.
    9000002   -1    0    0    0    0 -0.00000000000E+00 -0.00000000000E+00  0.00000000000E+00  0.93800000000E+00  0.93800000000E+00 0. -1.
         11    1    1    2    0    0 -0.54796484891E-02 -0.49371660130E-02  0.50355625027E-01  0.50895503227E-01  0.51100000000E-03 0.  1.
    9000002    1    1    2    0    0  0.36553369616E-02 -0.43270201725E+00  0.12847890088E+00  0.10409588009E+01  0.93800000000E+00 0. -1.
         22    1    1    2    0    0  0.18243115276E-02  0.43763918326E+00  0.38211654415E+01  0.38461456959E+01  0.00000000000E+00 0.  1.
</event>
<event>
 5    1  0.6440325E+001  0.1599441E+01  0.7818608E-02  0.3353970E+00
         11   -1    0    0    0    0  0.00000000000E+00  0.00000000000E+00  0.39999999674E+01  0.40000000000E+01  0.51100000000E-03 0. -1.
    9000002   -1    0    0    0    0 -0.00000000000E+00 -0.00000000000E+00  0.00000000000E+00  0.93800000000E+00  0.93800000000E+00 0.  1.
         11    1    1    2    0    0 -0.71797292904E-01  0.82424081702E-01  0.11862213257E+01  0.11912471932E+01  0.51100000000E-03 0. -1.
    9000002    1    1    2    0    0  0.29092507066E+00 -0.26079765991E+00  0.10304127111E+00  0.10213296822E+01  0.93800000000E+00 0.  1.
         22    1    1    2    0    0 -0.21912777776E+00  0.17837357820E+00  0.27107373705E+01  0.27254231246E+01  0.00000000000E+00 0. -1.
</event>
<event>
 5    1  0.6440325E+001  0.1597675E+01  0.7818608E-02  0.3355891E+00
         11   -1    0    0    0    0  0.00000000000E+00  0.00000000000E+00  0.39999999674E+01  0.40000000000E+01  0.51100000000E-03 0. -1.
    9000002   -1    0    0    0    0 -0.00000000000E+00 -0.00000000000E+00  0.00000000000E+00  0.93800000000E+00  0.93800000000E+00 0.  1.
         11    1    1    2    0    0  0.44035917485E-01 -0.21137969346E-02  0.37765739359E+00  0.38022230105E+00  0.51100000000E-03 0. -1.
    9000002    1    1    2    0    0 -0.28683668826E+00  0.30471324777E+00  0.12010349122E+00  0.10341152246E+01  0.93800000000E+00 0.  1.
         22    1    1    2    0    0  0.24280077078E+00 -0.30259945083E+00  0.35022390826E+01  0.35236624744E+01  0.00000000000E+00 0. -1.
</event>
<event>
 5    1  0.6440325E+001  0.1502943E+01  0.7818608E-02  0.3465948E+00
         11   -1    0    0    0    0  0.00000000000E+00  0.00000000000E+00  0.39999999674E+01  0.40000000000E+01  0.51100000000E-03 0. -1.
    9000002   -1    0    0    0    0 -0.00000000000E+00 -0.00000000000E+00  0.00000000000E+00  0.93800000000E+00  0.93800000000E+00 0. -1.
         11    1    1    2    0    0  0.16396902543E+00  0.26554991145E+00  0.11983369138E+01  0.12383110339E+01  0.51100000000E-03 0. -1.
    9000002    1    1    2    0    0  0.26790995407E-01  0.11055798286E+00  0.82999431985E-01  0.94851132345E+00  0.93800000000E+00 0. -1.
         22    1    1    2    0    0 -0.19076002084E+00 -0.37610789430E+00  0.27186636216E+01  0.27511776426E+01  0.00000000000E+00 0. -1.
</event>
<event>
 5    1  0.6440325E+001  0.1594421E+01  0.7818608E-02  0.3359441E+00
         11   -1    0    0    0    0  0.00000000000E+00  0.00000000000E+00  0.39999999674E+01  0.40000000000E+01  0.51100000000E-03 0. -1.
    9000002   -1    0    0    0    0 -0.00000000000E+00 -0.00000000000E+00  0.00000000000E+00  0.93800000000E+00  0.93800000000E+00 0.  1.
         11    1    1    2    0    0  0.24927480041E-01  0.16276066016E-01  0.71012155979E-01  0.77001798706E-01  0.51100000000E-03 0. -1.
    9000002    1    1    2    0    0 -0.14202935090E+00 -0.40146731320E+00  0.12721439125E+00  0.10379671678E+01  0.93800000000E+00 0.  1.
         22    1    1    2    0    0  0.11710187086E+00  0.38519124718E+00  0.38017734201E+01  0.38230310335E+01  0.00000000000E+00 0. -1.
</event>
<event>
 5    1  0.1553612E+002  0.1548575E+01  0.7818608E-02  0.3411142E+00
         11   -1    0    0    0    0  0.00000000000E+00  0.00000000000E+00  0.39999999674E+01  0.40000000000E+01  0.51100000000E-03 0.  1.
    9000002   -1    0    0    0    0 -0.00000000000E+00 -0.00000000000E+00  0.00000000000E+00  0.93800000000E+00  0.93800000000E+00 0.  1.
         11    1    1    2    0    0 -0.14133464925E+00  0.24365052859E+00  0.14647266211E+01  0.14915647484E+01  0.51100000000E-03 0.  1.
    9000002    1    1    2    0    0  0.68007355292E-01 -0.20932277768E-01  0.41444686365E-01  0.94160757360E+00  0.93800000000E+00 0.  1.
         22    1    1    2    0    0  0.73327293959E-01 -0.22271825082E+00  0.24938286599E+01  0.25048276780E+01  0.00000000000E+00 0.  1.
</event>
<event>
 5    1  0.6440325E+001  0.1599502E+01  0.7818608E-02  0.3353905E+00
         11   -1    0    0    0    0  0.00000000000E+00  0.00000000000E+00  0.39999999674E+01  0.40000000000E+01  0.51100000000E-03 0.  1.
    9000002   -1    0    0    0    0 -0.00000000000E+00 -0.00000000000E+00  0.00000000000E+00  0.93800000000E+00  0.93800000000E+00 0.  1.
         11    1    1    2    0    0 -0.80208627003E-02  0.15904814766E-01  0.25467481948E+00  0.25529751697E+00  0.51100000000E-03 0.  1.
    9000002    1    1    2    0    0  0.13286977196E+00 -0.36385128998E+00  0.10118998600E+00  0.10198654572E+01  0.93800000000E+00 0.  1.
         22    1    1    2    0    0 -0.12484890926E+00  0.34794647521E+00  0.36441351619E+01  0.36628370258E+01  0.00000000000E+00 0.  1.
</event>
<event>
 5    1  0.6440325E+001  0.1599670E+01  0.7818608E-02  0.3353721E+00
         11   -1    0    0    0    0  0.00000000000E+00  0.00000000000E+00  0.39999999674E+01  0.40000000000E+01  0.51100000000E-03 0.  1.
    9000002   -1    0    0    0    0 -0.00000000000E+00 -0.00000000000E+00  0.00000000000E+00  0.93800000000E+00  0.93800000000E+00 0.  1.
         11    1    1    2    0    0 -0.96447782760E-01 -0.17467390189E+00  0.13871914438E+01  0.14014683406E+01  0.51100000000E-03 0.  1.
    9000002    1    1    2    0    0  0.26924537686E+00  0.47175849926E+00  0.20353561187E+00  0.11028689405E+01  0.93800000000E+00 0.  1.
         22    1    1    2    0    0 -0.17279759410E+00 -0.29708459736E+00  0.24092729117E+01  0.24336627190E+01  0.00000000000E+00 0. -1.
</event>
<event>
 5    1  0.6440325E+001  0.1599676E+01  0.7818608E-02  0.3353715E+00
         11   -1    0    0    0    0  0.00000000000E+00  0.00000000000E+00  0.39999999674E+01  0.40000000000E+01  0.51100000000E-03 0. -1.
    9000002   -1    0    0    0    0 -0.00000000000E+00 -0.00000000000E+00  0.00000000000E+00  0.93800000000E+00  0.93800000000E+00 0. -1.
         11    1    1    2    0    0  0.75947679645E-01  0.16935964236E+00  0.12507661926E+01  0.12644631541E+01  0.51100000000E-03 0. -1.
    9000002    1    1    2    0    0 -0.23248165158E+00 -0.51130255453E+00  0.21839200455E+00  0.11149067621E+01  0.93800000000E+00 0. -1.
         22    1    1    2    0    0  0.15653397193E+00  0.34194291217E+00  0.25308417702E+01  0.25586300837E+01  0.00000000000E+00 0. -1.
</event>
<event>
 5    1  0.6440325E+001  0.1511853E+01  0.7818608E-02  0.3454968E+00
         11   -1    0    0    0    0  0.00000000000E+00  0.00000000000E+00  0.39999999674E+01  0.40000000000E+01  0.51100000000E-03 0.  1.
    9000002   -1    0    0    0    0 -0.00000000000E+00 -0.00000000000E+00  0.00000000000E+00  0.93800000000E+00  0.93800000000E+00 0.  1.
         11    1    1    2    0    0  0.33709528567E+00  0.22016300552E+00  0.13896047500E+01  0.14467572716E+01  0.51100000000E-03 0.  1.
    9000002    1    1    2    0    0 -0.10464046619E+00 -0.15150228091E+00  0.91008607797E-01  0.96022348179E+00  0.93800000000E+00 0.  1.
         22    1    1    2    0    0 -0.23245481948E+00 -0.68660724602E-01  0.25193866096E+01  0.25310192466E+01  0.00000000000E+00 0. -1.
</event>
<event>
 5    1  0.6440325E+001  0.1599677E+01  0.7818608E-02  0.3353714E+00
         11   -1    0    0    0    0  0.00000000000E+00  0.00000000000E+00  0.39999999674E+01  0.40000000000E+01  0.51100000000E-03 0.  1.
    9000002   -1    0    0    0    0 -0.00000000000E+00 -0.00000000000E+00  0.00000000000E+00  0.93800000000E+00  0.93800000000E+00 0.  1.
         11    1    1    2    0    0  0.12399433545E+00 -0.55776428570E-01  0.12967529484E+01  0.13038612178E+01  0.51100000000E-03 0.  1.
    9000002    1    1    2    0    0 -0.37053344760E+00  0.16633297222E+00  0.11135887863E+00  0.10282054723E+01  0.93800000000E+00 0.  1.
         22    1    1    2    0    0  0.24653911215E+00 -0.11055654365E+00  0.25918881404E+01  0.26059333099E+01  0.00000000000E+00 0.  1.
</event>
<event>
 5    1  0.6440325E+001  0.1599431E+01  0.7818608E-02  0.3353982E+00
         11   -1    0    0    0    0  0.00000000000E+00  0.00000000000E+00  0.39999999674E+01  0.40000000000E+01  0.51100000000E-03 0. -1.
    9000002   -1    0    0    0    0 -0.00000000000E+00 -0.00000000000E+00  0.00000000000E+00  0.93800000000E+00  0.93800000000E+00 0. -1.
         11    1    1    2    0    0  0.11074161178E+00  0.62907443119E-01  0.14036535475E+01  0.14094199493E+01  0.51100000000E-03 0. -1.
    9000002    1    1    2    0    0 -0.34077529736E+00 -0.13645287477E+00  0.90724902398E-01  0.10113467250E+01  0.93800000000E+00 0. -1.
         22    1    1    2    0    0  0.23003368558E+00  0.73545431655E-01  0.25056215174E+01  0.25172333256E+01  0.00000000000E+00 0. -1.
</event>
<event>
 5    1  0.6440325E+001  0.1599513E+01  0.7818608E-02  0.3353892E+00
         11   -1    0    0    0    0  0.00000000000E+00  0.00000000000E+00  0.39999999674E+01  0.40000000000E+01  0.51100000000E-03 0.  1.
    9000002   -1    0    0    0    0 -0.00000000000E+00 -0.00000000000E+00  0.00000000000E+00  0.93800000000E+00  0.93800000000E+00 0.  1.
         11    1    1    2    0    0 -0.31984287244E-01  0.32796540491E-01  0.27755216967E+00  0.28130779533E+00  0.51100000000E-03 0.  1.
    9000002    1    1    2    0    0  0.45766875682E+00 -0.33878456480E+00  0.22495466543E+00  0.11201269008E+01  0.93800000000E+00 0.  1.
         22    1    1    2    0    0 -0.42568446958E+00  0.30598802431E+00  0.34974931323E+01  0.35365653039E+01  0.00000000000E+00 0.  1.
</event>
<event>
 5    1  0.6440325E+001  0.1599677E+01  0.7818608E-02  0.3353714E+00
         11   -1    0    0    0    0  0.00000000000E+00  0.00000000000E+00  0.39999999674E+01  0.40000000000E+01  0.51100000000E-03 0.  1.
    9000002   -1    0    0    0    0 -0.00000000000E+00 -0.00000000000E+00  0.00000000000E+00  0.93800000000E+00  0.93800000000E+00 0. -1.
         11    1    1    2    0    0 -0.37986975865E+00  0.17426170045E-01  0.10544562742E+01  0.11209295251E+01  0.51100000000E-03 0.  1.
    9000002    1    1    2    0    0  0.10825270584E+01 -0.50360895287E-01  0.99830143604E+00  0.17466684886E+01  0.93800000000E+00 0. -1.
         22    1    1    2    0    0 -0.70265729970E+00  0.32934725242E-01  0.19472422572E+01  0.20704019863E+01  0.00000000000E+00 0.  1.
</event>
<event>
 5    1  0.6440325E+001  0.1590354E+01  0.7818608E-02  0.3363900E+00
         11   -1    0    0    0    0  0.00000000000E+00  0.00000000000E+00  0.39999999674E+01  0.40000000000E+01  0.51100000000E-03 0. -1.
    9000002   -1    0    0    0    0 -0.00000000000E+00 -0.00000000000E+00  0.00000000000E+00  0.93800000000E+00  0.93800000000E+00 0. -1.
         11    1    1    2    0    0  0.35292408721E-01 -0.34180152992E-02  0.19741929586E+00  0.20057885342E+00  0.51100000000E-03 0. -1.
    9000002    1    1    2    0    0  0.29651056787E+00 -0.88649945342E-01  0.71321615665E-01  0.99030707487E+00  0.93800000000E+00 0. -1.
         22    1    1    2    0    0 -0.33180297659E+00  0.92067960641E-01  0.37312590558E+01  0.37471140717E+01  0.00000000000E+00 0. -1.
</event>
<event>
 5    1  0.6440325E+001  0.1599671E+01  0.7818608E-02  0.3353720E+00
         11   -1    0    0    0    0  0.00000000000E+00  0.00000000000E+00  0.39999999674E+01  0.40000000000E+01  0.51100000000E-03 0.  1.
    9000002   -1    0    0    0    0 -0.00000000000E+00 -0.00000000000E+00  0.00000000000E+00  0.93800000000E+00  0.93800000000E+00 0.  1.
         11    1    1    2    0    0 -0.15289602865E+00  0.10414746922E+00  0.91348501801E+00  0.93202952216E+00  0.51100000000E-03 0.  1.
    9000002    1    1    2    0    0  0.61317547691E+00 -0.40836385467E+00  0.39190971283E+00  0.12554610413E+01  0.93800000000E+00 0.  1.
         22    1    1    2    0    0 -0.46027944825E+00  0.30421638546E+00  0.26946052365E+01  0.27505094365E+01  0.00000000000E+00 0.  1.
</event>
<event>
 5    1  0.6440325E+001  0.1599674E+01  0.7818608E-02  0.3353717E+00
         11   -1    0    0    0    0  0.00000000000E+00  0.00000000000E+00  0.39999999674E+01  0.40000000000E+01  0.51100000000E-03 0.  1.
    9000002   -1    0    0    0    0 -0.00000000000E+00 -0.00000000000E+00  0.00000000000E+00  0.93800000000E+00  0.93800000000E+00 0. -1.
         11    1    1    2    0    0 -0.10625214317E-01 -0.58969341195E-02  0.10917605450E+00  0.10985144974E+00  0.51100000000E-03 0.  1.
    9000002    1    1    2    0    0  0.37891635696E+00  0.19350158652E+00  0.12251891363E+00  0.10372441148E+01  0.93800000000E+00 0. -1.
         22    1    1    2    0    0 -0.36829114264E+00 -0.18760465240E+00  0.37683049992E+01  0.37909044354E+01  0.00000000000E+00 0.  1.
</event>
<event>
 5    1  0.6440325E+001  0.1598686E+01  0.7818608E-02  0.3354791E+00
         11   -1    0    0    0    0  0.00000000000E+00  0.00000000000E+00  0.39999999674E+01  0.40000000000E+01  0.51100000000E-03 0. -1.
    9000002   -1    0    0    0    0 -0.00000000000E+00 -0.00000000000E+00  0.00000000000E+00  0.93800000000E+00  0.93800000000E+00 0. -1.
         11    1    1    2    0    0 -0.52796633306E-01 -0.10713224251E+00  0.11309102727E+01  0.11371996781E+01  0.51100000000E-03 0. -1.
    9000002    1    1    2    0    0  0.17188382874E+00  0.47942243864E+00  0.17874858973E+00  0.10822130029E+01  0.93800000000E+00 0. -1.
         22    1    1    2    0    0 -0.11908719544E+00 -0.37229019614E+00  0.26903411049E+01  0.27185873190E+01  0.00000000000E+00 0. -1.
</event>
<event>
 5    1  0.6440325E+001  0.1596231E+01  0.7818608E-02  0.3357464E+00
         11   -1    0    0    0    0  0.00000000000E+00  0.00000000000E+00  0.39999999674E+01  0.40000000000E+01  0.51100000000E-03 0. -1.
    9000002   -1    0    0    0    0 -0.00000000000E+00 -0.00000000000E+00  0.00000000000E+00  0.93800000000E+00  0.93800000000E+00 0. -1.
         11    1    1    2    0    0 -0.43792692860E-01  0.11257716142E+00  0.10863454925E+01  0.10930408077E+01  0.51100000000E-03 0. -1.
    9000002    1    1    2    0    0  0.28595615153E+00 -0.21700327367E+00  0.89284758354E-01  0.10083040759E+01  0.93800000000E+00 0. -1.
         22    1    1    2    0    0 -0.24216345867E+00  0.10442611225E+00  0.28243697165E+01  0.28366551164E+01  0.00000000000E+00 0.  1.
</event>
<event>
 5    1  0.7173279E+001  0.1587807E+01  0.7818608E-02  0.3366704E+00
         11   -1    0    0    0    0  0.00000000000E+00  0.00000000000E+00  0.39999999674E+01  0.40000000000E+01  0.51100000000E-03 0.  1.
    9000002   -1    0    0    0    0 -0.00000000000E+00 -0.00000000000E+00  0.00000000000E+00  0.93800000000E+00  0.93800000000E+00 0. -1.
         11    1    1    2    0    0  0.24044048124E-01  0.90260227343E-01  0.91950717870E+00  0.92423954562E+00  0.51100000000E-03 0.  1.
    9000002    1    1    2    0    0 -0.25053553659E+00  0.64915509214E-01  0.53688459091E-01  0.97452990158E+00  0.93800000000E+00 0. -1.
         22    1    1    2    0    0  0.22649148847E+00 -0.15517573656E+00  0.30268043296E+01  0.30392305528E+01  0.00000000000E+00 0.  1.
</event>
<event>
 5    1  0.6440325E+001  0.1589634E+01  0.7818608E-02  0.3364692E+00
         11   -1    0    0    0    0  0.00000000000E+00  0.00000000000E+00  0.39999999674E+01  0.40000000000E+01  0.51100000000E-03 0.  1.
    9000002   -1    0    0    0    0 -0.00000000000E+00 -0.00000000000E+00  0.00000000000E+00  0.93800000000E+00  0.93800000000E+00 0.  1.
         11    1    1    2    0    0  0.30730481700E-02 -0.68220486812E-01  0.11395126594E+01  0.11415571998E+01  0.51100000000E-03 0.  1.
    9000002    1    1    2    0    0 -0.33827825934E+00  0.48766029454E-01  0.86343213006E-01  0.10020526218E+01  0.93800000000E+00 0.  1.
         22    1    1    2    0    0  0.33520521117E+00  0.19454457357E-01  0.27741440949E+01  0.27943901784E+01  0.00000000000E+00 0.  1.
</event>
<event>
 5    1  0.6440325E+001  0.1599669E+01  0.7818608E-02  0.3353722E+00
         11   -1    0    0    0    0  0.00000000000E+00  0.00000000000E+00  0.39999999674E+01  0.40000000000E+01  0.51100000000E-03 0. -1.
    9000002   -1    0    0    0    0 -0.00000000000E+00 -0.00000000000E+00  0.00000000000E+00  0.93800000000E+00  0.93800000000E+00 0. -1.
         11    1    1    2    0    0 -0.26818444300E-01  0.20805379527E+00  0.13356599395E+01  0.13520330417E+01  0.51100000000E-03 0. -1.
    9000002    1    1    2    0    0  0.74809533499E-01 -0.59332741404E+00  0.24942334369E+00  0.11400394252E+01  0.93800000000E+00 0. -1.
         22    1    1    2    0    0 -0.47991089199E-01  0.38527361877E+00  0.24149166842E+01  0.24459275331E+01  0.00000000000E+00 0. -1.
</event>
<event>
 5    1  0.6440325E+001  0.1597910E+01  0.7818608E-02  0.3355635E+00
         11   -1    0    0    0    0  0.00000000000E+00  0.00000000000E+00  0.39999999674E+01  0.40000000000E+01  0.51100000000E-03 0. -1.
    9000002   -1    0    0    0    0 -0.00000000000E+00 -0.00000000000E+00  0.00000000000E+00  0.93800000000E+00  0.93800000000E+00 0. -1.
         11    1    1    2    0    0  0.20494965979E+00  0.15130479883E+00  0.93495906562E+00  0.96904397253E+00  0.51100000000E-03 0. -1.
    9000002    1    1    2    0    0 -0.82341804350E+00 -0.40618222991E+00  0.65330299064E+00  0.14661685019E+01  0.93800000000E+00 0. -1.
         22    1    1    2    0    0  0.61846838371E+00  0.25487743108E+00  0.24117379111E+01  0.25027875256E+01  0.00000000000E+00 0. -1.
</event>
<event>
 5    1  0.6440325E+001  0.1599676E+01  0.7818608E-02  0.3353715E+00
         11   -1    0    0    0    0  0.00000000000E+00  0.00000000000E+00  0.39999999674E+01  0.40000000000E+01  0.51100000000E-03 0.  1.
    9000002   -1    0    0    0    0 -0.00000000000E+00 -0.00000000000E+00  0.00000000000E+00  0.93800000000E+00  0.93800000000E+00 0.  1.
         11    1    1    2    0    0  0.14184927551E+00  0.94967603375E-01  0.11724766790E+01  0.11848383377E+01  0.51100000000E-03 0.  1.
    9000002    1    1    2    0    0 -0.46090047830E+00 -0.30459181792E+00  0.21090504979E+00  0.11088419033E+01  0.93800000000E+00 0.  1.
         22    1    1    2    0    0  0.31905120280E+00  0.20962421455E+00  0.26166182386E+01  0.26443197590E+01  0.00000000000E+00 0.  1.
</event>
<event>
 5    1  0.6440325E+001  0.1598856E+01  0.7818608E-02  0.3354606E+00
         11   -1    0    0    0    0  0.00000000000E+00  0.00000000000E+00  0.39999999674E+01  0.40000000000E+01  0.51100000000E-03 0. -1.
    9000002   -1    0    0    0    0 -0.00000000000E+00 -0.00000000000E+00  0.00000000000E+00  0.93800000000E+00  0.93800000000E+00 0. -1.
         11    1    1    2    0    0 -0.10146433101E+00 -0.14759977089E+00  0.11633712022E+01  0.11770783823E+01  0.51100000000E-03 0. -1.
    9000002    1    1    2    0    0  0.41869238064E+00  0.42913315118E+00  0.25158543121E+00  0.11413140673E+01  0.93800000000E+00 0. -1.
         22    1    1    2    0    0 -0.31722804963E+00 -0.28153338028E+00  0.25850433339E+01  0.26196075504E+01  0.00000000000E+00 0.  1.
</event>
<event>
 5    1  0.6440325E+001  0.1599677E+01  0.7818608E-02  0.3353714E+00
         11   -1    0    0    0    0  0.00000000000E+00  0.00000000000E+00  0.39999999674E+01  0.40000000000E+01  0.51100000000E-03 0. -1.
    9000002   -1    0    0    0    0 -0.00000000000E+00 -0.00000000000E+00  0.00000000000E+00  0.93800000000E+00  0.93800000000E+00 0. -1.
         11    1    1    2    0    0  0.15182571641E+00 -0.11489663571E+00  0.82494530507E+00  0.84663292078E+00  0.51100000000E-03 0. -1.
    9000002    1    1    2    0    0 -0.64789854469E+00  0.48848181877E+00  0.48688717711E+00  0.13324001406E+01  0.93800000000E+00 0. -1.
         22    1    1    2    0    0  0.49607282828E+00 -0.37358518306E+00  0.26881674852E+01  0.27589669386E+01  0.00000000000E+00 0. -1.
</event>
<event>
 5    1  0.6440325E+001  0.1599671E+01  0.7818608E-02  0.3353721E+00
         11   -1    0    0    0    0  0.00000000000E+00  0.00000000000E+00  0.39999999674E+01  0.40000000000E+01  0.51100000000E-03 0. -1.
    9000002   -1    0    0    0    0 -0.00000000000E+00 -0.00000000000E+00  0.00000000000E+00  0.93800000000E+00  0.93800000000E+00 0. -1.
         11    1    1    2    0    0  0.36443010929E-02  0.23157395617E-02  0.41217020359E-01  0.41445717130E-01  0.51100000000E-03 0.  1.
    9000002    1    1    2    0    0 -0.33646169305E+00 -0.18491942553E+00  0.99230503491E-01  0.10183773160E+01  0.93800000000E+00 0. -1.
         22    1    1    2    0    0  0.33281739195E+00  0.18260368597E+00  0.38595524435E+01  0.38781769669E+01  0.00000000000E+00 0. -1.
</event>
<event>
 5    1  0.7596962E+001  0.1599564E+01  0.7818608E-02  0.3353836E+00
         11   -1    0    0    0    0  0.00000000000E+00  0.00000000000E+00  0.39999999674E+01  0.40000000000E+01  0.51100000000E-03 0. -1.
    9000002   -1    0    0    0    0 -0.00000000000E+00 -0.00000000000E+00  0.00000000000E+00  0.93800000000E+00  0.93800000000E+00 0. -1.
         11    1    1    2    0    0  0.52359478647E-01 -0.12844867035E+00  0.14885009066E+01  0.14949500948E+01  0.51100000000E-03 0. -1.
    9000002    1    1    2    0    0 -0.14969258724E+00  0.36612806633E+00  0.10556733335E+00  0.10234481391E+01  0.93800000000E+00 0. -1.
         22    1    1    2    0    0  0.97333108591E-01 -0.23767939598E+00  0.24059317274E+01  0.24196017661E+01  0.00000000000E+00 0.  1.
</event>
<event>
 5    1  0.6440325E+001  0.1599677E+01  0.7818608E-02  0.3353714E+00
         11   -1    0    0    0    0  0.00000000000E+00  0.00000000000E+00  0.39999999674E+01  0.40000000000E+01  0.51100000000E-03 0.  1.
    9000002   -1    0    0    0    0 -0.00000000000E+00 -0.00000000000E+00  0.00000000000E+00  0.93800000000E+00  0.93800000000E+00 0.  1.
         11    1    1    2    0    0 -0.16349624481E+00 -0.71078469566E-01  0.96388300650E+00  0.98023154522E+00  0.51100000000E-03 0. -1.
    9000002    1    1    2    0    0  0.62396936877E+00  0.27131410293E+00  0.32915696125E+00  0.12046316536E+01  0.93800000000E+00 0.  1.
         22    1    1    2    0    0 -0.46047312396E+00 -0.20023563336E+00  0.27069599996E+01  0.27531368012E+01  0.00000000000E+00 0.  1.
</event>
<event>
 5    1  0.6440325E+001  0.1599675E+01  0.7818608E-02  0.3353716E+00
         11   -1    0    0    0    0  0.00000000000E+00  0.00000000000E+00  0.39999999674E+01  0.40000000000E+01  0.51100000000E-03 0.  1.
    9000002   -1    0    0    0    0 -0.00000000000E+00 -0.00000000000E+00  0.00000000000E+00  0.93800000000E+00  0.93800000000E+00 0.  1.
         11    1    1    2    0    0 -0.16087307809E+00 -0.13797239297E+00  0.13951141024E+01  0.14111201750E+01  0.51100000000E-03 0.  1.
    9000002    1    1    2    0    0  0.43314698388E+00  0.37710042753E+00  0.22889438076E+00  0.11234134055E+01  0.93800000000E+00 0.  1.
         22    1    1    2    0    0 -0.27227390579E+00 -0.23912803456E+00  0.23759914842E+01  0.24034664195E+01  0.00000000000E+00 0.  1.
</event>
<event>
 5    1  0.6440325E+001  0.1599641E+01  0.7818608E-02  0.3353753E+00
         11   -1    0    0    0    0  0.00000000000E+00  0.00000000000E+00  0.39999999674E+01  0.40000000000E+01  0.51100000000E-03 0. -1.
    9000002   -1    0    0    0    0 -0.00000000000E+00 -0.00000000000E+00  0.00000000000E+00  0.93800000000E+00  0.93800000000E+00 0. -1.
         11    1    1    2    0    0  0.11335180951E-01  0.27031365410E-01  0.19515181448E+00  0.19734151327E+00  0.51100000000E-03 0.  1.
    9000002    1    1    2    0    0 -0.16541455614E+00 -0.55166302746E+00  0.23030268894E+00  0.11245343035E+01  0.93800000000E+00 0. -1.
         22    1    1    2    0    0  0.15407937519E+00  0.52463166205E+00  0.35745454639E+01  0.36161241832E+01  0.00000000000E+00 0. -1.
</event>
<event>
 5    1  0.6440325E+001  0.1598183E+01  0.7818608E-02  0.3355338E+00
         11   -1    0    0    0    0  0.00000000000E+00  0.00000000000E+00  0.39999999674E+01  0.40000000000E+01  0.51100000000E-03 0.  1.
    9000002   -1    0    0    0    0 -0.00000000000E+00 -0.00000000000E+00  0.00000000000E+00  0.93800000000E+00  0.93800000000E+00 0. -1.
         11    1    1    2    0    0 -0.84568077090E-01  0.36779467545E-01  0.82907897983E+00  0.83419224692E+00  0.51100000000E-03 0.  1.
    9000002    1    1    2    0    0  0.24764495367E+00 -0.27011621008E+00  0.91427623778E-01  0.10111843553E+01  0.93800000000E+00 0. -1.
         22    1    1    2    0    0 -0.16307687658E+00  0.23333674254E+00  0.30794933637E+01  0.30926233978E+01  0.00000000000E+00 0.  1.
</event>
<event>
 5    1  0.6440325E+001  0.1599676E+01  0.7818608E-02  0.3353715E+00
         11   -1    0    0    0    0  0.00000000000E+00  0.00000000000E+00  0.39999999674E+01  0.40000000000E+01  0.51100000000E-03 0. -1.
    9000002   -1    0    0    0    0 -0.00000000000E+00 -0.00000000000E+00  0.00000000000E+00  0.93800000000E+00  0.93800000000E+00 0. -1.
         11    1    1    2    0    0 -0.13427631951E-01 -0.17768367091E+00  0.14547660728E+01  0.14656385557E+01  0.51100000000E-03 0. -1.
    9000002    1    1    2    0    0  0.37400366999E-01  0.47218379581E+00  0.15292984483E+00  0.10618794008E+01  0.93800000000E+00 0. -1.
         22    1    1    2    0    0 -0.23972735048E-01 -0.29450012490E+00  0.23923040497E+01  0.24104820435E+01  0.00000000000E+00 0. -1.
</event>
<event>
 5    1  0.6440325E+001  0.1599669E+01  0.7818608E-02  0.3353723E+00
         11   -1    0    0    0    0  0.00000000000E+00  0.00000000000E+00  0.39999999674E+01  0.40000000000E+01  0.51100000000E-03 0. -1.
    9000002   -1    0    0    0    0 -0.00000000000E+00 -0.00000000000E+00  0.00000000000E+00  0.93800000000E+00  0.93800000000E+00 0. -1.
         11    1    1    2    0    0  0.19235506787E+00 -0.11265482994E+00  0.13333467831E+01  0.13518526132E+01  0.51100000000E-03 0. -1.
    9000002    1    1    2    0    0 -0.52926657285E+00  0.31492828381E+00  0.26556404949E+00  0.11531136949E+01  0.93800000000E+00 0. -1.
         22    1    1    2    0    0  0.33691150498E+00 -0.20227345387E+00  0.24010891348E+01  0.24330336918E+01  0.00000000000E+00 0. -1.
</event>
<event>
 5    1  0.6440325E+001  0.1599677E+01  0.7818608E-02  0.3353714E+00
         11   -1    0    0    0    0  0.00000000000E+00  0.00000000000E+00  0.39999999674E+01  0.40000000000E+01  0.51100000000E-03 0. -1.
    9000002   -1    0    0    0    0 -0.00000000000E+00 -0.00000000000E+00  0.00000000000E+00  0.93800000000E+00  0.93800000000E+00 0. -1.
         11    1    1    2    0    0  0.13071182180E+00 -0.37090828138E-01  0.13966852755E+01  0.14032787784E+01  0.51100000000E-03 0.  1.
    9000002    1    1    2    0    0 -0.36445425236E+00  0.10305639606E+00  0.96502719473E-01  0.10161713919E+01  0.93800000000E+00 0. -1.
         22    1    1    2    0    0  0.23374243056E+00 -0.65965567918E-01  0.25068119723E+01  0.25185498297E+01  0.00000000000E+00 0. -1.
</event>
<event>
 5    1  0.6440325E+001  0.1596982E+01  0.7818608E-02  0.3356645E+00
         11   -1    0    0    0    0  0.00000000000E+00  0.00000000000E+00  0.39999999674E+01  0.40000000000E+01  0.51100000000E-03 0. -1.
    9000002   -1    0    0    0    0 -0.00000000000E+00 -0.00000000000E+00  0.00000000000E+00  0.93800000000E+00  0.93800000000E+00 0.  1.
         11    1    1    2    0    0  0.64202255074E-01 -0.18351060004E+00  0.11135324961E+01  0.11303773489E+01  0.51100000000E-03 0. -1.
    9000002    1    1    2    0    0 -0.37799566511E+00  0.66397640765E+00  0.42831030252E+00  0.12833702147E+01  0.93800000000E+00 0.  1.
         22    1    1    2    0    0  0.31379341004E+00 -0.48046580761E+00  0.24581571688E+01  0.25242524364E+01  0.00000000000E+00 0. -1.
</event>
<event>
 5    1  0.6440325E+001  0.1598419E+01  0.7818608E-02  0.3355081E+00
         11   -1    0    0    0    0  0.00000000000E+00  0.00000000000E+00  0.39999999674E+01  0.40000000000E+01  0.51100000000E-03 0.  1.
    9000002   -1    0    0    0    0 -0.00000000000E+00 -0.00000000000E+00  0.00000000000E+00  0.93800000000E+00  0.93800000000E+00 0.  1.
         11    1    1    2    0    0 -0.10759634804E+00 -0.95092212105E-01  0.13711200398E+01  0.13786188478E+01  0.51100000000E-03 0.  1.
    9000002    1    1    2    0    0  0.21140564825E+00  0.33741942189E+00  0.10796231043E+00  0.10247165827E+01  0.93800000000E+00 0.  1.
         22    1    1    2    0    0 -0.10380930021E+00 -0.24232720978E+00  0.25209176171E+01  0.25346645695E+01  0.00000000000E+00 0. -1.
</event>
<event>
 5    1  0.6440325E+001  0.1593405E+01  0.7818608E-02  0.3360553E+00
         11   -1    0    0    0    0  0.00000000000E+00  0.00000000000E+00  0.39999999674E+01  0.40000000000E+01  0.51100000000E-03 0.  1.
    9000002   -1    0    0    0    0 -0.00000000000E+00 -0.00000000000E+00  0.00000000000E+00  0.93800000000E+00  0.93800000000E+00 0.  1.
         11    1    1    2    0    0  0.60135144902E-01  0.58861691758E-01  0.12387042768E+01  0.12415592942E+01  0.51100000000E-03 0.  1.
    9000002    1    1    2    0    0 -0.33416179134E+00  0.54549666935E-01  0.81804977776E-01  0.10005877390E+01  0.93800000000E+00 0.  1.
         22    1    1    2    0    0  0.27402664643E+00 -0.11341135869E+00  0.26794907127E+01  0.26958529669E+01  0.00000000000E+00 0.  1.
</event>
<event>
 5    1  0.6440325E+001  0.1599567E+01  0.7818608E-02  0.3353834E+00
         11   -1    0    0    0    0  0.00000000000E+00  0.00000000000E+00  0.39999999674E+01  0.40000000000E+01  0.51100000000E-03 0. -1.
    9000002   -1    0    0    0    0 -0.00000000000E+00 -0.00000000000E+00  0.00000000000E+00  0.93800000000E+00  0.93800000000E+00 0. -1.
         11    1    1    2    0    0  0.36298722197E-02 -0.43817772903E-02  0.38833477278E-01  0.39251446127E-01  0.51100000000E-03 0. -1.
    9000002    1    1    2    0    0 -0.11780857887E+00  0.40496404022E+00  0.12041939489E+00  0.10354803551E+01  0.93800000000E+00 0. -1.
         22    1    1    2    0    0  0.11417870665E+00 -0.40058226293E+00  0.38407470952E+01  0.38632681988E+01  0.00000000000E+00 0. -1.
</event>
<event>
 5    1  0.6440325E+001  0.1599675E+01  0.7818608E-02  0.3353716E+00
         11   -1    0    0    0    0  0.00000000000E+00  0.00000000000E+00  0.39999999674E+01  0.40000000000E+01  0.51100000000E-03 0. -1.
    9000002   -1    0    0    0    0 -0.00000000000E+00 -0.00000000000E+00  0.00000000000E+00  0.93800000000E+00  0.93800000000E+00 0. -1.
         11    1    1    2    0    0 -0.57717704800E-01  0.57650094261E-01  0.84842025076E+00  0.85233329739E+00  0.51100000000E-03 0. -1.
    9000002    1    1    2    0    0  0.26939918660E+00 -0.26965751675E+00  0.97773033972E-01  0.10171994221E+01  0.93800000000E+00 0. -1.
         22    1    1    2    0    0 -0.21168148180E+00  0.21200742249E+00  0.30538066826E+01  0.30684672805E+01  0.00000000000E+00 0. -1.
</event>
<event>
 5    1  0.6440325E+001  0.1599662E+01  0.7818608E-02  0.3353730E+00
         11   -1    0    0    0    0  0.00000000000E+00  0.00000000000E+00  0.39999999674E+01  0.40000000000E+01  0.51100000000E-03 0.  1.
    9000002   -1    0    0    0    0 -0.00000000000E+00 -0.00000000000E+00  0.00000000000E+00  0.93800000000E+00  0.93800000000E+00 0. -1.
         11    1    1    2    0    0 -0.10748704365E+00 -0.76035072877E-02  0.10024062395E+01  0.10081814360E+01  0.51100000000E-03 0.  1.
    9000002    1    1    2    0    0  0.41674333351E+00  0.13743976326E-01  0.11754926954E+00  0.10332113693E+01  0.93800000000E+00 0. -1.
         22    1    1    2    0    0 -0.30925628986E+00 -0.61404690379E-02  0.28800444583E+01  0.28966071947E+01  0.00000000000E+00 0.  1.
</event>
<event>
 5    1  0.6440325E+001  0.1599375E+01  0.7818608E-02  0.3354042E+00
         11   -1    0    0    0    0  0.00000000000E+00  0.00000000000E+00  0.39999999674E+01  0.40000000000E+01  0.51100000000E-03 0.  1.
    9000002   -1    0    0    0    0 -0.00000000000E+00 -0.00000000000E+00  0.00000000000E+00  0.93800000000E+00  0.93800000000E+00 0. -1.
         11    1    1    2    0    0  0.10139809794E+00  0.30900493157E-02  0.89295763953E+00  0.89870169121E+00  0.51100000000E-03 0.  1.
    9000002    1    1    2    0    0 -0.37586222219E+00 -0.50971673506E-01  0.97041540884E-01  0.10164308054E+01  0.93800000000E+00 0. -1.
         22    1    1    2    0    0  0.27446412426E+00  0.47881624190E-01  0.30100007869E+01  0.30228675034E+01  0.00000000000E+00 0.  1.
</event>
<event>
 5    1  0.6440325E+001  0.1599582E+01  0.7818608E-02  0.3353817E+00
         11   -1    0    0    0    0  0.00000000000E+00  0.00000000000E+00  0.39999999674E+01  0.40000000000E+01  0.51100000000E-03 0.  1.
    9000002   -1    0    0    0    0 -0.00000000000E+00 -0.00000000000E+00  0.00000000000E+00  0.93800000000E+00  0.93800000000E+00 0. -1.
         11    1    1    2    0    0 -0.97772216987E-01  0.16902297448E+00  0.12979188411E+01  0.13125249527E+01  0.51100000000E-03 0.  1.
    9000002    1    1    2    0    0  0.25421468831E+00 -0.50301553206E+00  0.22006821888E+00  0.11162095476E+01  0.93800000000E+00 0. -1.
         22    1    1    2    0    0 -0.15644247132E+00  0.33399255758E+00  0.24820129074E+01  0.25092654997E+01  0.00000000000E+00 0.  1.
</event>
<event>
 5    1  0.6440325E+001  0.1599677E+01  0.7818608E-02  0.3353714E+00
         11   -1    0    0    0    0  0.00000000000E+00  0.00000000000E+00  0.39999999674E+01  0.40000000000E+01  0.51100000000E-03 0.  1.
    9000002   -1    0    0    0    0 -0.00000000000E+00 -0.00000000000E+00  0.00000000000E+00  0.93800000000E+00  0.93800000000E+00 0. -1.
         11    1    1    2    0    0 -0.80991292908E-01  0.12661842286E+00  0.11427999005E+01  0.11526420469E+01  0.51100000000E-03 0.  1.
    9000002    1    1    2    0    0  0.27263712210E+00 -0.42398911079E+00  0.17406418499E+00  0.10789995861E+01  0.93800000000E+00 0. -1.
         22    1    1    2    0    0 -0.19164582920E+00  0.29737068792E+00  0.26831358819E+01  0.27063583670E+01  0.00000000000E+00 0.  1.
</event>
<event>
 5    1  0.6440325E+001  0.1599648E+01  0.7818608E-02  0.3353745E+00
         11   -1    0    0    0    0  0.00000000000E+00  0.00000000000E+00  0.39999999674E+01  0.40000000000E+01  0.51100000000E-03 0. -1.
    9000002   -1    0    0    0    0 -0.00000000000E+00 -0.00000000000E+00  0.00000000000E+00  0.93800000000E+00  0.93800000000E+00 0. -1.
         11    1    1    2    0    0  0.13949849566E+00 -0.50170856798E-01  0.10593096798E+01  0.10696327426E+01  0.51100000000E-03 0. -1.
    9000002    1    1    2    0    0 -0.49158066926E+00  0.16281165540E+00  0.18415964326E+00  0.10871605050E+01  0.93800000000E+00 0. -1.
         22    1    1    2    0    0  0.35208217361E+00 -0.11264079860E+00  0.27565306443E+01  0.27812067524E+01  0.00000000000E+00 0. -1.
</event>
<event>
 5    1  0.6440325E+001  0.1598348E+01  0.7818608E-02  0.3355159E+00
         11   -1    0    0    0    0  0.00000000000E+00  0.00000000000E+00  0.39999999674E+01  0.40000000000E+01  0.51100000000E-03 0.  1.
    9000002   -1    0    0    0    0 -0.00000000000E+00 -0.00000000000E+00  0.00000000000E+00  0.93800000000E+00  0.93800000000E+00 0. -1.
         11    1    1    2    0    0  0.10849807144E+00  0.31771742493E-03  0.77699806566E+00  0.78453692559E+00  0.51100000000E-03 0.  1.
    9000002    1    1    2    0    0 -0.40594198808E+00  0.11020750383E+00  0.12079524836E+00  0.10350700863E+01  0.93800000000E+00 0. -1.
         22    1    1    2    0    0  0.29744391664E+00 -0.11052522126E+00  0.31022066533E+01  0.31183929881E+01  0.00000000000E+00 0.  1.
</event>
<event>
 5    1  0.6440325E+001  0.1599677E+01  0.7818608E-02  0.3353714E+00
         11   -1    0    0    0    0  0.00000000000E+00  0.00000000000E+00  0.39999999674E+01  0.40000000000E+01  0.51100000000E-03 0.  1.
    9000002   -1    0    0    0    0 -0.00000000000E+00 -0.00000000000E+00  0.00000000000E+00  0.93800000000E+00  0.93800000000E+00 0.  1.
         11    1    1    2    0    0  0.20302751935E+00  0.49263120664E-01  0.14067856883E+01  0.14222142112E+01  0.51100000000E-03 0.  1.
    9000002    1    1    2    0    0 -0.54452333628E+00 -0.13337457672E+00  0.21752746447E+00  0.11142067309E+01  0.93800000000E+00 0.  1.
         22    1    1    2    0    0  0.34149581693E+00  0.84111456060E-01  0.23756868146E+01  0.24015790578E+01  0.00000000000E+00 0.  1.
</event>
<event>
 5    1  0.6440325E+001  0.1599669E+01  0.7818608E-02  0.3353723E+00
         11   -1    0    0    0    0  0.00000000000E+00  0.00000000000E+00  0.39999999674E+01  0.40000000000E+01  0.51100000000E-03 0.  1.
    9000002   -1    0    0    0    0 -0.00000000000E+00 -0.00000000000E+00  0.00000000000E+00  0.93800000000E+00  0.93800000000E+00 0.  1.
         11    1    1    2    0    0  0.57100040830E-01  0.11347980546E+00  0.13448149255E+01  0.13508018085E+01  0.51100000000E-03 0.  1.
    9000002    1    1    2    0    0 -0.16177734025E+00 -0.33796109175E+00  0.94405960986E-01  0.10144683794E+01  0.93800000000E+00 0.  1.
         22    1    1    2    0    0  0.10467729942E+00  0.22448128629E+00  0.25607790809E+01  0.25727298121E+01  0.00000000000E+00 0.  1.
</event>
<event>
 5    1  0.6440325E+001  0.1581608E+01  0.7818608E-02  0.3373571E+00
         11   -1    0    0    0    0  0.00000000000E+00  0.00000000000E+00  0.39999999674E+01  0.40000000000E+01  0.51100000000E-03 0.  1.
    9000002   -1    0    0    0    0 -0.00000000000E+00 -0.00000000000E+00  0.00000000000E+00  0.93800000000E+00  0.93800000000E+00 0.  1.
         11    1    1    2    0    0 -0.76611862026E-01 -0.49024520890E-01  0.91101478160E+00  0.91554408658E+00  0.51100000000E-03 0.  1.
    9000002    1    1    2    0    0 -0.25759017264E+00  0.18302419960E+00  0.81117503441E-01  0.99311359071E+00  0.93800000000E+00 0.  1.
         22    1    1    2    0    0  0.33420203466E+00 -0.13399967871E+00  0.30078676823E+01  0.30293423227E+01  0.00000000000E+00 0.  1.
</event>
<event>
 5    1  0.6440325E+001  0.1598044E+01  0.7818608E-02  0.3355489E+00
         11   -1    0    0    0    0  0.00000000000E+00  0.00000000000E+00  0.39999999674E+01  0.40000000000E+01  0.51100000000E-03 0.  1.
    9000002   -1    0    0    0    0 -0.00000000000E+00 -0.00000000000E+00  0.00000000000E+00  0.93800000000E+00  0.93800000000E+00 0. -1.
         11    1    1    2    0    0  0.32779312237E-01 -0.17127197882E+00  0.14317957937E+01  0.14423758283E+01  0.51100000000E-03 0.  1.
    9000002    1    1    2    0    0 -0.28350999797E-01  0.56306613930E+00  0.22168595577E+00  0.11166180723E+01  0.93800000000E+00 0. -1.
         22    1    1    2    0    0 -0.44283124398E-02 -0.39179416048E+00  0.23465182178E+01  0.23790060994E+01  0.00000000000E+00 0.  1.
</event>
<event>
 5    1  0.6440325E+001  0.1496576E+01  0.7818608E-02  0.3473879E+00
         11   -1    0    0    0    0  0.00000000000E+00  0.00000000000E+00  0.39999999674E+01  0.40000000000E+01  0.51100000000E-03 0. -1.
    9000002   -1    0    0    0    0 -0.00000000000E+00 -0.00000000000E+00  0.00000000000E+00  0.93800000000E+00  0.93800000000E+00 0. -1.
         11    1    1    2    0    0  0.12633257316E+00  0.28221557386E+00  0.87734979838E+00  0.93024108650E+00  0.51100000000E-03 0. -1.
    9000002    1    1    2    0    0 -0.20946352261E+00  0.14685316357E+00  0.12714170341E+00  0.98053548212E+00  0.93800000000E+00 0. -1.
         22    1    1    2    0    0  0.83130949450E-01 -0.42906873744E+00  0.29955084656E+01  0.30272234314E+01  0.00000000000E+00 0. -1.
</event>
<event>
 5    1  0.6440325E+001  0.1554801E+01  0.7818608E-02  0.3403930E+00
         11   -1    0    0    0    0  0.00000000000E+00  0.00000000000E+00  0.39999999674E+01  0.40000000000E+01  0.51100000000E-03 0. -1.
    9000002   -1    0    0    0    0 -0.00000000000E+00 -0.00000000000E+00  0.00000000000E+00  0.93800000000E+00  0.93800000000E+00 0.  1.
         11    1    1    2    0    0 -0.13644563124E+00 -0.15083877223E+00  0.11188328652E+01  0.11371706059E+01  0.51100000000E-03 0. -1.
    9000002    1    1    2    0    0 -0.17049779499E+00  0.49541917890E-01  0.55000173813E-01  0.95623894443E+00  0.93800000000E+00 0.  1.
         22    1    1    2    0    0  0.30694342624E+00  0.10129685434E+00  0.28261669284E+01  0.28445904497E+01  0.00000000000E+00 0. -1.
</event>
<event>
 5    1  0.6440325E+001  0.1598777E+01  0.7818608E-02  0.3354692E+00
         11   -1    0    0    0    0  0.00000000000E+00  0.00000000000E+00  0.39999999674E+01  0.40000000000E+01  0.51100000000E-03 0. -1.
    9000002   -1    0    0    0    0 -0.00000000000E+00 -0.00000000000E+00  0.00000000000E+00  0.93800000000E+00  0.93800000000E+00 0.  1.
         11    1    1    2    0    0  0.94627583114E-01 -0.72757345769E-01  0.61009208094E+00  0.62165956857E+00  0.51100000000E-03 0. -1.
    9000002    1    1    2    0    0 -0.46001358724E+00  0.55600226475E+00  0.37543283158E+00  0.12415896383E+01  0.93800000000E+00 0.  1.
         22    1    1    2    0    0  0.36538600413E+00 -0.48324491898E+00  0.30144750548E+01  0.30747507931E+01  0.00000000000E+00 0. -1.
</event>
<event>
 5    1  0.6440325E+001  0.1578325E+01  0.7818608E-02  0.3377230E+00
         11   -1    0    0    0    0  0.00000000000E+00  0.00000000000E+00  0.39999999674E+01  0.40000000000E+01  0.51100000000E-03 0. -1.
    9000002   -1    0    0    0    0 -0.00000000000E+00 -0.00000000000E+00  0.00000000000E+00  0.93800000000E+00  0.93800000000E+00 0. -1.
         11    1    1    2    0    0  0.27312866637E+00  0.20128837095E-01  0.13675223692E+01  0.13946763531E+01  0.51100000000E-03 0. -1.
    9000002    1    1    2    0    0 -0.36082822845E+00 -0.30195068842E+00  0.16981765083E+00  0.10630396339E+01  0.93800000000E+00 0. -1.
         22    1    1    2    0    0  0.87699562080E-01  0.28182185132E+00  0.24626599473E+01  0.24802840130E+01  0.00000000000E+00 0. -1.
</event>
<event>
 5    1  0.6440325E+001  0.1599677E+01  0.7818608E-02  0.3353714E+00
         11   -1    0    0    0    0  0.00000000000E+00  0.00000000000E+00  0.39999999674E+01  0.40000000000E+01  0.51100000000E-03 0.  1.
    9000002   -1    0    0    0    0 -0.00000000000E+00 -0.00000000000E+00  0.00000000000E+00  0.93800000000E+00  0.93800000000E+00 0. -1.
         11    1    1    2    0    0 -0.79610397421E-01 -0.32016733408E-02  0.85276024869E+00  0.85647438312E+00  0.51100000000E-03 0.  1.
    9000002    1    1    2    0    0  0.36634101849E+00  0.14944978077E-01  0.90306299347E-01  0.10111519776E+01  0.93800000000E+00 0. -1.
         22    1    1    2    0    0 -0.28673062107E+00 -0.11743304736E-01  0.30569334193E+01  0.30703736392E+01  0.00000000000E+00 0.  1.
</event>
<event>
 5    1  0.6440325E+001  0.1593378E+01  0.7818608E-02  0.3360583E+00
         11   -1    0    0    0    0  0.00000000000E+00  0.00000000000E+00  0.39999999674E+01  0.40000000000E+01  0.51100000000E-03 0.  1.
    9000002   -1    0    0    0    0 -0.00000000000E+00 -0.00000000000E+00  0.00000000000E+00  0.93800000000E+00  0.93800000000E+00 0.  1.
         11    1    1    2    0    0 -0.16581962253E-01 -0.62922845325E-01  0.21419146466E+00  0.22385819304E+00  0.51100000000E-03 0.  1.
    9000002    1    1    2    0    0 -0.40233131124E-01  0.41144477668E+00  0.12079220287E+00  0.10321532180E+01  0.93800000000E+00 0.  1.
         22    1    1    2    0    0  0.56815093377E-01 -0.34852193135E+00  0.36650162998E+01  0.36819885890E+01  0.00000000000E+00 0.  1.
</event>
<event>
 5    1  0.6440325E+001  0.1599637E+01  0.7818608E-02  0.3353758E+00
         11   -1    0    0    0    0  0.00000000000E+00  0.00000000000E+00  0.39999999674E+01  0.40000000000E+01  0.51100000000E-03 0.  1.
    9000002   -1    0    0    0    0 -0.00000000000E+00 -0.00000000000E+00  0.00000000000E+00  0.93800000000E+00  0.93800000000E+00 0.  1.
         11    1    1    2    0    0  0.24613941274E-01  0.45260083354E+00  0.13188426262E+01  0.13945606815E+01  0.51100000000E-03 0.  1.
    9000002    1    1    2    0    0 -0.74953471512E-01 -0.10534707436E+01  0.92955380548E+00  0.16909562111E+01  0.93800000000E+00 0.  1.
         22    1    1    2    0    0  0.50339530238E-01  0.60086991002E+00  0.17516035357E+01  0.18524831075E+01  0.00000000000E+00 0.  1.
</event>
<event>
 5    1  0.6440325E+001  0.1597449E+01  0.7818608E-02  0.3356137E+00
         11   -1    0    0    0    0  0.00000000000E+00  0.00000000000E+00  0.39999999674E+01  0.40000000000E+01  0.51100000000E-03 0. -1.
    9000002   -1    0    0    0    0 -0.00000000000E+00 -0.00000000000E+00  0.00000000000E+00  0.93800000000E+00  0.93800000000E+00 0. -1.
         11    1    1    2    0    0 -0.33268138698E-01  0.14293366993E+00  0.10027706712E+01  0.10134525560E+01  0.51100000000E-03 0. -1.
    9000002    1    1    2    0    0  0.27251315792E+00 -0.42214544109E+00  0.17491545909E+00  0.10783828692E+01  0.93800000000E+00 0. -1.
         22    1    1    2    0    0 -0.23924501923E+00  0.27921177116E+00  0.28223138370E+01  0.28461645748E+01  0.00000000000E+00 0. -1.
</event>
<event>
 5    1  0.6440325E+001  0.1599667E+01  0.7818608E-02  0.3353725E+00
         11   -1    0    0    0    0  0.00000000000E+00  0.00000000000E+00  0.39999999674E+01  0.40000000000E+01  0.51100000000E-03 0.  1.
    9000002   -1    0    0    0    0 -0.00000000000E+00 -0.00000000000E+00  0.00000000000E+00  0.93800000000E+00  0.93800000000E+00 0. -1.
         11    1    1    2    0    0  0.21453456130E-02 -0.46407243788E-02  0.35472799696E-01  0.35842983551E-01  0.51100000000E-03 0.  1.
    9000002    1    1    2    0    0 -0.22601166997E+00  0.54916437819E+00  0.24574168760E+00  0.11370557446E+01  0.93800000000E+00 0. -1.
         22    1    1    2    0    0  0.22386632436E+00 -0.54452365381E+00  0.37187854801E+01  0.37651012719E+01  0.00000000000E+00 0.  1.
</event>
<event>
 5    1  0.6440325E+001  0.1599674E+01  0.7818608E-02  0.3353717E+00
         11   -1    0    0    0    0  0.00000000000E+00  0.00000000000E+00  0.39999999674E+01  0.40000000000E+01  0.51100000000E-03 0. -1.
    9000002   -1    0    0    0    0 -0.00000000000E+00 -0.00000000000E+00  0.00000000000E+00  0.93800000000E+00  0.93800000000E+00 0. -1.
         11    1    1    2    0    0  0.71924736739E-01  0.41424701392E-01  0.80888938602E+00  0.81313681111E+00  0.51100000000E-03 0. -1.
    9000002    1    1    2    0    0 -0.35178438558E+00 -0.20446207543E+00  0.11177377532E+00  0.10285399220E+01  0.93800000000E+00 0. -1.
         22    1    1    2    0    0  0.27985964884E+00  0.16303737404E+00  0.30793368060E+01  0.30963232669E+01  0.00000000000E+00 0. -1.
</event>
<event>
 5    1  0.6440325E+001  0.1592641E+01  0.7818608E-02  0.3361390E+00
         11   -1    0    0    0    0  0.00000000000E+00  0.00000000000E+00  0.39999999674E+01  0.40000000000E+01  0.51100000000E-03 0. -1.
    9000002   -1    0    0    0    0 -0.00000000000E+00 -0.00000000000E+00  0.00000000000E+00  0.93800000000E+00  0.93800000000E+00 0.  1.
         11    1    1    2    0    0 -0.10292792631E+00  0.13428447260E+00  0.11193958416E+01  0.11321103254E+01  0.51100000000E-03 0. -1.
    9000002    1    1    2    0    0  0.59100942914E+00 -0.26702818699E+00  0.30411887769E+00  0.11802239151E+01  0.93800000000E+00 0.  1.
         22    1    1    2    0    0 -0.48808150282E+00  0.13274371439E+00  0.25764852480E+01  0.26256657595E+01  0.00000000000E+00 0. -1.
</event>
<event>
 5    1  0.6440325E+001  0.1470341E+01  0.7818608E-02  0.3507349E+00
         11   -1    0    0    0    0  0.00000000000E+00  0.00000000000E+00  0.39999999674E+01  0.40000000000E+01  0.51100000000E-03 0. -1.
    9000002   -1    0    0    0    0 -0.00000000000E+00 -0.00000000000E+00  0.00000000000E+00  0.93800000000E+00  0.93800000000E+00 0.  1.
         11    1    1    2    0    0  0.39929782900E+00  0.34927811702E+00  0.12129965871E+01  0.13239316224E+01  0.51100000000E-03 0. -1.
    9000002    1    1    2    0    0 -0.12296689203E+00 -0.13786129870E+00  0.16630546560E+00  0.97037523778E+00  0.93800000000E+00 0.  1.
         22    1    1    2    0    0 -0.27633093698E+00 -0.21141681832E+00  0.26206979146E+01  0.26436931398E+01  0.00000000000E+00 0.  1.
</event>
<event>
 5    1  0.8308386E+001  0.1599656E+01  0.7818608E-02  0.3353737E+00
         11   -1    0    0    0    0  0.00000000000E+00  0.00000000000E+00  0.39999999674E+01  0.40000000000E+01  0.51100000000E-03 0. -1.
    9000002   -1    0    0    0    0 -0.00000000000E+00 -0.00000000000E+00  0.00000000000E+00  0.93800000000E+00  0.93800000000E+00 0.  1.
         11    1    1    2    0    0  0.16916110857E+00  0.10353788716E+00  0.14588184838E+01  0.14722388409E+01  0.51100000000E-03 0. -1.
    9000002    1    1    2    0    0 -0.45537880346E+00 -0.27167455334E+00  0.19351912358E+00  0.10947468058E+01  0.93800000000E+00 0.  1.
         22    1    1    2    0    0  0.28621769489E+00  0.16813666618E+00  0.23476623600E+01  0.23710143534E+01  0.00000000000E+00 0. -1.
</event>
<event>
 5    1  0.6440325E+001  0.1598673E+01  0.7818608E-02  0.3354804E+00
         11   -1    0    0    0    0  0.00000000000E+00  0.00000000000E+00  0.39999999674E+01  0.40000000000E+01  0.51100000000E-03 0. -1.
    9000002   -1    0    0    0    0 -0.00000000000E+00 -0.00000000000E+00  0.00000000000E+00  0.93800000000E+00  0.93800000000E+00 0. -1.
         11    1    1    2    0    0 -0.12983434151E+00  0.15437058926E+00  0.13982775705E+01  0.14127518042E+01  0.51100000000E-03 0. -1.
    9000002    1    1    2    0    0  0.25832486405E+00 -0.40120637410E+00  0.15617976265E+00  0.10639240613E+01  0.93800000000E+00 0. -1.
         22    1    1    2    0    0 -0.12849052255E+00  0.24683578484E+00  0.24455426342E+01  0.24613241345E+01  0.00000000000E+00 0. -1.
</event>
<event>
 5    1  0.6440325E+001  0.1554994E+01  0.7818608E-02  0.3403708E+00
         11   -1    0    0    0    0  0.00000000000E+00  0.00000000000E+00  0.39999999674E+01  0.40000000000E+01  0.51100000000E-03 0.  1.
    9000002   -1    0    0    0    0 -0.00000000000E+00 -0.00000000000E+00  0.00000000000E+00  0.93800000000E+00  0.93800000000E+00 0.  1.
         11    1    1    2    0    0  0.41355699088E+00 -0.33680543352E+00  0.89749695448E+00  0.10440154832E+01  0.51100000000E-03 0.  1.
    9000002    1    1    2    0    0 -0.41783433682E-01 -0.34270890493E-01  0.22126620051E+00  0.96525803843E+00  0.93800000000E+00 0.  1.
         22    1    1    2    0    0 -0.37177355720E+00  0.37107632401E+00  0.28812368124E+01  0.29287264784E+01  0.00000000000E+00 0.  1.
</event>
<event>
 5    1  0.6440325E+001  0.1589691E+01  0.7818608E-02  0.3364629E+00
         11   -1    0    0    0    0  0.00000000000E+00  0.00000000000E+00  0.39999999674E+01  0.40000000000E+01  0.51100000000E-03 0.  1.
    9000002   -1    0    0    0    0 -0.00000000000E+00 -0.00000000000E+00  0.00000000000E+00  0.93800000000E+00  0.93800000000E+00 0. -1.
         11    1    1    2    0    0 -0.99063287861E-01 -0.13132886338E+00  0.95760107318E+00  0.97162795443E+00  0.51100000000E-03 0.  1.
    9000002    1    1    2    0    0  0.57217508218E+00  0.14729218691E+00  0.25297592385E+00  0.11370664585E+01  0.93800000000E+00 0. -1.
         22    1    1    2    0    0 -0.47311179432E+00 -0.15963323533E-01  0.27894229703E+01  0.28293055871E+01  0.00000000000E+00 0.  1.
</event>
<event>
 5    1  0.6440325E+001  0.1599671E+01  0.7818608E-02  0.3353720E+00
         11   -1    0    0    0    0  0.00000000000E+00  0.00000000000E+00  0.39999999674E+01  0.40000000000E+01  0.51100000000E-03 0.  1.
    9000002   -1    0    0    0    0 -0.00000000000E+00 -0.00000000000E+00  0.00000000000E+00  0.93800000000E+00  0.93800000000E+00 0.  1.
         11    1    1    2    0    0  0.29722328494E+00 -0.40489044994E+00  0.13909926099E+01  0.14788977854E+01  0.51100000000E-03 0.  1.
    9000002    1    1    2    0    0 -0.63598709879E+00  0.87550144870E+00  0.99421863265E+00  0.17433579856E+01  0.93800000000E+00 0.  1.
         22    1    1    2    0    0  0.33876381386E+00 -0.47061099876E+00  0.16147887248E+01  0.17157442290E+01  0.00000000000E+00 0.  1.
</event>
<event>
 5    1  0.6440325E+001  0.1599545E+01  0.7818608E-02  0.3353857E+00
         11   -1    0    0    0    0  0.00000000000E+00  0.00000000000E+00  0.39999999674E+01  0.40000000000E+01  0.51100000000E-03 0.  1.
    9000002   -1    0    0    0    0 -0.00000000000E+00 -0.00000000000E+00  0.00000000000E+00  0.93800000000E+00  0.93800000000E+00 0.  1.
         11    1    1    2    0    0 -0.23648422459E+00  0.23771071531E-01  0.12663017223E+01  0.12884138176E+01  0.51100000000E-03 0.  1.
    9000002    1    1    2    0    0  0.71584990435E+00 -0.63821009242E-01  0.37119191030E+00  0.12386047154E+01  0.93800000000E+00 0. -1.
         22    1    1    2    0    0 -0.47936567976E+00  0.40049937710E-01  0.23625063348E+01  0.24109814670E+01  0.00000000000E+00 0.  1.
</event>
<event>
 5    1  0.6440325E+001  0.1585280E+01  0.7818608E-02  0.3369497E+00
         11   -1    0    0    0    0  0.00000000000E+00  0.00000000000E+00  0.39999999674E+01  0.40000000000E+01  0.51100000000E-03 0.  1.
    9000002   -1    0    0    0    0 -0.00000000000E+00 -0.00000000000E+00  0.00000000000E+00  0.93800000000E+00  0.93800000000E+00 0. -1.
         11    1    1    2    0    0 -0.13276302242E+00  0.92827452739E-02  0.51158619318E+00  0.52861411602E+00  0.51100000000E-03 0.  1.
    9000002    1    1    2    0    0  0.29406244132E+00 -0.29864556316E+00  0.13103316696E+00  0.10357005275E+01  0.93800000000E+00 0. -1.
         22    1    1    2    0    0 -0.16129941890E+00  0.28936281788E+00  0.33573806072E+01  0.33736853565E+01  0.00000000000E+00 0.  1.
</event>
<event>
 5    1  0.6440325E+001  0.1599677E+01  0.7818608E-02  0.3353714E+00
         11   -1    0    0    0    0  0.00000000000E+00  0.00000000000E+00  0.39999999674E+01  0.40000000000E+01  0.51100000000E-03 0. -1.
    9000002   -1    0    0    0    0 -0.00000000000E+00 -0.00000000000E+00  0.00000000000E+00  0.93800000000E+00  0.93800000000E+00 0.  1.
         11    1    1    2    0    0  0.16229794357E+00 -0.10475879957E+00  0.10738269930E+01  0.10910635640E+01  0.51100000000E-03 0.  1.
    9000002    1    1    2    0    0 -0.55826309192E+00  0.35937602874E+00  0.31211481340E+00  0.11908267996E+01  0.93800000000E+00 0.  1.
         22    1    1    2    0    0  0.39596514835E+00 -0.25461722917E+00  0.26140581609E+01  0.26561096364E+01  0.00000000000E+00 0. -1.
</event>
<event>
 5    1  0.6440325E+001  0.1599540E+01  0.7818608E-02  0.3353862E+00
         11   -1    0    0    0    0  0.00000000000E+00  0.00000000000E+00  0.39999999674E+01  0.40000000000E+01  0.51100000000E-03 0. -1.
    9000002   -1    0    0    0    0 -0.00000000000E+00 -0.00000000000E+00  0.00000000000E+00  0.93800000000E+00  0.93800000000E+00 0. -1.
         11    1    1    2    0    0  0.13021543833E+00 -0.38991038489E-01  0.12025295360E+01  0.12101875506E+01  0.51100000000E-03 0. -1.
    9000002    1    1    2    0    0 -0.43667881984E+00  0.16195702377E+00  0.14779679199E+00  0.10576418869E+01  0.93800000000E+00 0. -1.
         22    1    1    2    0    0  0.30646338152E+00 -0.12296598528E+00  0.26496736394E+01  0.26701705625E+01  0.00000000000E+00 0. -1.
</event>
<event>
 5    1  0.6440325E+001  0.1599523E+01  0.7818608E-02  0.3353882E+00
         11   -1    0    0    0    0  0.00000000000E+00  0.00000000000E+00  0.39999999674E+01  0.40000000000E+01  0.51100000000E-03 0. -1.
    9000002   -1    0    0    0    0 -0.00000000000E+00 -0.00000000000E+00  0.00000000000E+00  0.93800000000E+00  0.93800000000E+00 0. -1.
         11    1    1    2    0    0 -0.23945307939E-01 -0.13045125537E+00  0.12134359223E+01  0.12206628963E+01  0.51100000000E-03 0. -1.
    9000002    1    1    2    0    0  0.41351940672E-01  0.39187656220E+00  0.10478614429E+00  0.10227909655E+01  0.93800000000E+00 0. -1.
         22    1    1    2    0    0 -0.17406632733E-01 -0.26142530683E+00  0.26817779008E+01  0.26945461383E+01  0.00000000000E+00 0. -1.
</event>
<event>
 5    1  0.6440325E+001  0.1598943E+01  0.7818608E-02  0.3354512E+00
         11   -1    0    0    0    0  0.00000000000E+00  0.00000000000E+00  0.39999999674E+01  0.40000000000E+01  0.51100000000E-03 0. -1.
    9000002   -1    0    0    0    0 -0.00000000000E+00 -0.00000000000E+00  0.00000000000E+00  0.93800000000E+00  0.93800000000E+00 0.  1.
         11    1    1    2    0    0  0.67624906514E-01 -0.53078005859E-02  0.92701327805E+00  0.92949189321E+00  0.51100000000E-03 0. -1.
    9000002    1    1    2    0    0 -0.40067748588E+00  0.14463696722E-01  0.10905492936E+00  0.10259086820E+01  0.93800000000E+00 0.  1.
         22    1    1    2    0    0  0.33305257937E+00 -0.91558961362E-02  0.29639317600E+01  0.29825994248E+01  0.00000000000E+00 0. -1.
</event>
<event>
 5    1  0.6440325E+001  0.1482419E+01  0.7818608E-02  0.3491782E+00
         11   -1    0    0    0    0  0.00000000000E+00  0.00000000000E+00  0.39999999674E+01  0.40000000000E+01  0.51100000000E-03 0. -1.
    9000002   -1    0    0    0    0 -0.00000000000E+00 -0.00000000000E+00  0.00000000000E+00  0.93800000000E+00  0.93800000000E+00 0.  1.
         11    1    1    2    0    0 -0.12578617112E+00  0.32630230786E+00  0.12223660127E+01  0.12714064209E+01  0.51100000000E-03 0. -1.
    9000002    1    1    2    0    0 -0.83327903859E-01  0.80219290698E-01  0.10018762667E+00  0.95040003930E+00  0.93800000000E+00 0.  1.
         22    1    1    2    0    0  0.20911407498E+00 -0.40652159856E+00  0.26774463280E+01  0.27161935398E+01  0.00000000000E+00 0. -1.
</event>
<event>
 5    1  0.7155549E+001  0.1527659E+01  0.7818608E-02  0.3435827E+00
         11   -1    0    0    0    0  0.00000000000E+00  0.00000000000E+00  0.39999999674E+01  0.40000000000E+01  0.51100000000E-03 0.  1.
    9000002   -1    0    0    0    0 -0.00000000000E+00 -0.00000000000E+00  0.00000000000E+00  0.93800000000E+00  0.93800000000E+00 0. -1.
         11    1    1    2    0    0  0.71158757586E-02  0.21291373528E+00  0.46972689744E+00  0.51577758158E+00  0.51100000000E-03 0.  1.
    9000002    1    1    2    0    0 -0.24179146448E+00 -0.33430319277E-02  0.95829159051E-01  0.97339689535E+00  0.93800000000E+00 0. -1.
         22    1    1    2    0    0  0.23467558873E+00 -0.20957070336E+00  0.34344439109E+01  0.34488255231E+01  0.00000000000E+00 0.  1.
</event>
<event>
 5    1  0.6440325E+001  0.1599670E+01  0.7818608E-02  0.3353722E+00
         11   -1    0    0    0    0  0.00000000000E+00  0.00000000000E+00  0.39999999674E+01  0.40000000000E+01  0.51100000000E-03 0. -1.
    9000002   -1    0    0    0    0 -0.00000000000E+00 -0.00000000000E+00  0.00000000000E+00  0.93800000000E+00  0.93800000000E+00 0. -1.
         11    1    1    2    0    0 -0.48045609061E-01  0.56278581473E-01  0.70452620046E+00  0.70840178398E+00  0.51100000000E-03 0. -1.
    9000002    1    1    2    0    0  0.27793776769E+00 -0.30728483777E+00  0.11602070297E+00  0.10319777991E+01  0.93800000000E+00 0. -1.
         22    1    1    2    0    0 -0.22989215863E+00  0.25100625630E+00  0.31794530639E+01  0.31976204170E+01  0.00000000000E+00 0. -1.
</event>
<event>
 5    1  0.6440325E+001  0.1583032E+01  0.7818608E-02  0.3371988E+00
         11   -1    0    0    0    0  0.00000000000E+00  0.00000000000E+00  0.39999999674E+01  0.40000000000E+01  0.51100000000E-03 0.  1.
    9000002   -1    0    0    0    0 -0.00000000000E+00 -0.00000000000E+00  0.00000000000E+00  0.93800000000E+00  0.93800000000E+00 0.  1.
         11    1    1    2    0    0  0.10208812590E+00  0.22583692358E+00  0.89394056880E+00  0.92766066165E+00  0.51100000000E-03 0.  1.
    9000002    1    1    2    0    0  0.29517373642E-01 -0.61617688183E+00  0.28354431743E+00  0.11579234020E+01  0.93800000000E+00 0.  1.
         22    1    1    2    0    0 -0.13160549955E+00  0.39033995825E+00  0.28225150811E+01  0.28524159363E+01  0.00000000000E+00 0.  1.
</event>
<event>
 5    1  0.6440325E+001  0.1596867E+01  0.7818608E-02  0.3356771E+00
         11   -1    0    0    0    0  0.00000000000E+00  0.00000000000E+00  0.39999999674E+01  0.40000000000E+01  0.51100000000E-03 0.  1.
    9000002   -1    0    0    0    0 -0.00000000000E+00 -0.00000000000E+00  0.00000000000E+00  0.93800000000E+00  0.93800000000E+00 0. -1.
         11    1    1    2    0    0 -0.71256809946E-01  0.38792548029E-01  0.60634252224E+00  0.61174660615E+00  0.51100000000E-03 0.  1.
    9000002    1    1    2    0    0  0.38893295633E+00  0.40119408488E-01  0.10532908408E+00  0.10216734446E+01  0.93800000000E+00 0. -1.
         22    1    1    2    0    0 -0.31767614639E+00 -0.78911956517E-01  0.32883283610E+01  0.33045799492E+01  0.00000000000E+00 0.  1.
</event>
<event>
 5    1  0.6440325E+001  0.1514483E+01  0.7818608E-02  0.3451754E+00
         11   -1    0    0    0    0  0.00000000000E+00  0.00000000000E+00  0.39999999674E+01  0.40000000000E+01  0.51100000000E-03 0.  1.
    9000002   -1    0    0    0    0 -0.00000000000E+00 -0.00000000000E+00  0.00000000000E+00  0.93800000000E+00  0.93800000000E+00 0.  1.
         11    1    1    2    0    0 -0.28222261612E+00  0.10902214633E+00  0.96829437120E+00  0.10144602919E+01  0.51100000000E-03 0.  1.
    9000002    1    1    2    0    0 -0.60513732592E-01 -0.17115677314E+00  0.88169292474E-01  0.95946567263E+00  0.93800000000E+00 0.  1.
         22    1    1    2    0    0  0.34273634871E+00  0.62134626809E-01  0.29435363037E+01  0.29640740355E+01  0.00000000000E+00 0.  1.
</event>
<event>
 5    1  0.6440325E+001  0.1599571E+01  0.7818608E-02  0.3353829E+00
         11   -1    0    0    0    0  0.00000000000E+00  0.00000000000E+00  0.39999999674E+01  0.40000000000E+01  0.51100000000E-03 0. -1.
    9000002   -1    0    0    0    0 -0.00000000000E+00 -0.00000000000E+00  0.00000000000E+00  0.93800000000E+00  0.93800000000E+00 0.  1.
         11    1    1    2    0    0 -0.10785320261E-01  0.13118051158E+00  0.67219365418E+00  0.68495928316E+00  0.51100000000E-03 0. -1.
    9000002    1    1    2    0    0  0.45020380694E-01 -0.75132038458E+00  0.41113990770E+00  0.12709796138E+01  0.93800000000E+00 0.  1.
         22    1    1    2    0    0 -0.34235060433E-01  0.62013987300E+00  0.29166664055E+01  0.29820611030E+01  0.00000000000E+00 0. -1.
</event>
<event>
 5    1  0.6440325E+001  0.1505946E+01  0.7818608E-02  0.3462231E+00
         11   -1    0    0    0    0  0.00000000000E+00  0.00000000000E+00  0.39999999674E+01  0.40000000000E+01  0.51100000000E-03 0. -1.
    9000002   -1    0    0    0    0 -0.00000000000E+00 -0.00000000000E+00  0.00000000000E+00  0.93800000000E+00  0.93800000000E+00 0.  1.
         11    1    1    2    0    0 -0.26173618173E+00  0.92408501559E-01  0.10102093814E+01  0.10476489943E+01  0.51100000000E-03 0. -1.
    9000002    1    1    2    0    0 -0.15392813769E+00  0.91873199914E-01  0.94572274655E-01  0.95964705573E+00  0.93800000000E+00 0.  1.
         22    1    1    2    0    0  0.41566431942E+00 -0.18428170147E+00  0.28952183113E+01  0.29307039499E+01  0.00000000000E+00 0. -1.
</event>
<event>
 5    1  0.6440325E+001  0.1599597E+01  0.7818608E-02  0.3353801E+00
         11   -1    0    0    0    0  0.00000000000E+00  0.00000000000E+00  0.39999999674E+01  0.40000000000E+01  0.51100000000E-03 0.  1.
    9000002   -1    0    0    0    0 -0.00000000000E+00 -0.00000000000E+00  0.00000000000E+00  0.93800000000E+00  0.93800000000E+00 0.  1.
         11    1    1    2    0    0  0.71101664215E-01 -0.64504581748E-01  0.88089285880E+00  0.88610878425E+00  0.51100000000E-03 0.  1.
    9000002    1    1    2    0    0 -0.28345164366E+00  0.26065468798E+00  0.99900336647E-01  0.10188767236E+01  0.93800000000E+00 0.  1.
         22    1    1    2    0    0  0.21234997944E+00 -0.19615010623E+00  0.30192067719E+01  0.30330144921E+01  0.00000000000E+00 0.  1.
</event>
<event>
 5    1  0.6440325E+001  0.1599674E+01  0.7818608E-02  0.3353717E+00
         11   -1    0    0    0    0  0.00000000000E+00  0.00000000000E+00  0.39999999674E+01  0.40000000000E+01  0.51100000000E-03 0.  1.
    9000002   -1    0    0    0    0 -0.00000000000E+00 -0.00000000000E+00  0.00000000000E+00  0.93800000000E+00  0.93800000000E+00 0.  1.
         11    1    1    2    0    0  0.11472498038E+00 -0.11671899482E-01  0.10067897122E+01  0.10133725081E+01  0.51100000000E-03 0.  1.
    9000002    1    1    2    0    0 -0.43745659994E+00  0.39241278331E-01  0.13081718551E+00  0.10439661349E+01  0.93800000000E+00 0.  1.
         22    1    1    2    0    0  0.32273161956E+00 -0.27569378850E-01  0.28623930696E+01  0.28806613570E+01  0.00000000000E+00 0.  1.
</event>
<event>
 5    1  0.6440325E+001  0.1297345E+01  0.7818608E-02  0.3787028E+00
         11   -1    0    0    0    0  0.00000000000E+00  0.00000000000E+00  0.39999999674E+01  0.40000000000E+01  0.51100000000E-03 0. -1.
    9000002   -1    0    0    0    0 -0.00000000000E+00 -0.00000000000E+00  0.00000000000E+00  0.93800000000E+00  0.93800000000E+00 0. -1.
         11    1    1    2    0    0  0.17505593600E+00 -0.64012905158E+00  0.12735069711E+01  0.14360466740E+01  0.51100000000E-03 0. -1.
    9000002    1    1    2    0    0  0.37198498467E+00  0.22612235658E+00  0.45616654281E+00  0.11302371715E+01  0.93800000000E+00 0. -1.
         22    1    1    2    0    0 -0.54704092067E+00  0.41400669500E+00  0.22703264534E+01  0.23717161545E+01  0.00000000000E+00 0. -1.
</event>
<event>
 5    1  0.6440325E+001  0.1599529E+01  0.7818608E-02  0.3353875E+00
         11   -1    0    0    0    0  0.00000000000E+00  0.00000000000E+00  0.39999999674E+01  0.40000000000E+01  0.51100000000E-03 0.  1.
    9000002   -1    0    0    0    0 -0.00000000000E+00 -0.00000000000E+00  0.00000000000E+00  0.93800000000E+00  0.93800000000E+00 0.  1.
         11    1    1    2    0    0  0.16850349603E-01 -0.16229275805E+00  0.12431824186E+01  0.12538443527E+01  0.51100000000E-03 0.  1.
    9000002    1    1    2    0    0 -0.32203126124E-01  0.46517827594E+00  0.14816595688E+00  0.10579343177E+01  0.93800000000E+00 0.  1.
         22    1    1    2    0    0  0.15352776521E-01 -0.30288551790E+00  0.26086515919E+01  0.26262213297E+01  0.00000000000E+00 0.  1.
</event>
<event>
 5    1  0.6440325E+001  0.1599677E+01  0.7818608E-02  0.3353714E+00
         11   -1    0    0    0    0  0.00000000000E+00  0.00000000000E+00  0.39999999674E+01  0.40000000000E+01  0.51100000000E-03 0. -1.
    9000002   -1    0    0    0    0 -0.00000000000E+00 -0.00000000000E+00  0.00000000000E+00  0.93800000000E+00  0.93800000000E+00 0.  1.
         11    1    1    2    0    0 -0.12169160250E+00  0.29498381625E-01  0.12424930101E+01  0.12487866678E+01  0.51100000000E-03 0. -1.
    9000002    1    1    2    0    0  0.38016034057E+00 -0.91802333880E-01  0.10305129704E+00  0.10214759532E+01  0.93800000000E+00 0.  1.
         22    1    1    2    0    0 -0.25846873807E+00  0.62303952254E-01  0.26544556603E+01  0.26677373790E+01  0.00000000000E+00 0.  1.
</event>
<event>
 5    1  0.6440325E+001  0.1599636E+01  0.7818608E-02  0.3353758E+00
         11   -1    0    0    0    0  0.00000000000E+00  0.00000000000E+00  0.39999999674E+01  0.40000000000E+01  0.51100000000E-03 0. -1.
    9000002   -1    0    0    0    0 -0.00000000000E+00 -0.00000000000E+00  0.00000000000E+00  0.93800000000E+00  0.93800000000E+00 0. -1.
         11    1    1    2    0    0  0.18432892772E+00 -0.11267154488E-01  0.12018879888E+01  0.12159930514E+01  0.51100000000E-03 0. -1.
    9000002    1    1    2    0    0 -0.56495572485E+00  0.52789569469E-01  0.22317030538E+00  0.11187540815E+01  0.93800000000E+00 0. -1.
         22    1    1    2    0    0  0.38062679713E+00 -0.41522414981E-01  0.25749416732E+01  0.26032528671E+01  0.00000000000E+00 0. -1.
</event>
<event>
 5    1  0.6440325E+001  0.1598653E+01  0.7818608E-02  0.3354826E+00
         11   -1    0    0    0    0  0.00000000000E+00  0.00000000000E+00  0.39999999674E+01  0.40000000000E+01  0.51100000000E-03 0. -1.
    9000002   -1    0    0    0    0 -0.00000000000E+00 -0.00000000000E+00  0.00000000000E+00  0.93800000000E+00  0.93800000000E+00 0.  1.
         11    1    1    2    0    0 -0.15748153297E-02  0.34710014667E-01  0.14965426080E+00  0.15363568615E+00  0.51100000000E-03 0. -1.
    9000002    1    1    2    0    0 -0.28577345802E+00 -0.91420363171E+00  0.72328408986E+00  0.15232920351E+01  0.93800000000E+00 0.  1.
         22    1    1    2    0    0  0.28734827335E+00  0.87949361704E+00  0.31270616167E+01  0.32610722788E+01  0.00000000000E+00 0. -1.
</event>
<event>
 5    1  0.6440325E+001  0.1599638E+01  0.7818608E-02  0.3353756E+00
         11   -1    0    0    0    0  0.00000000000E+00  0.00000000000E+00  0.39999999674E+01  0.40000000000E+01  0.51100000000E-03 0.  1.
    9000002   -1    0    0    0    0 -0.00000000000E+00 -0.00000000000E+00  0.00000000000E+00  0.93800000000E+00  0.93800000000E+00 0. -1.
         11    1    1    2    0    0 -0.12717628976E+00 -0.11237055956E+00  0.14742599614E+01  0.14839958376E+01  0.51100000000E-03 0.  1.
    9000002    1    1    2    0    0  0.35158870683E+00  0.29048375074E+00  0.14142819723E+00  0.10525404330E+01  0.93800000000E+00 0. -1.
         22    1    1    2    0    0 -0.22441241707E+00 -0.17811319119E+00  0.23843118088E+01  0.24014637293E+01  0.00000000000E+00 0.  1.
</event>
<event>
 5    1  0.6440325E+001  0.1598873E+01  0.7818608E-02  0.3354588E+00
         11   -1    0    0    0    0  0.00000000000E+00  0.00000000000E+00  0.39999999674E+01  0.40000000000E+01  0.51100000000E-03 0.  1.
    9000002   -1    0    0    0    0 -0.00000000000E+00 -0.00000000000E+00  0.00000000000E+00  0.93800000000E+00  0.93800000000E+00 0. -1.
         11    1    1    2    0    0 -0.28811785223E-01 -0.12363447328E+00  0.10897902278E+01  0.10971593338E+01  0.51100000000E-03 0.  1.
    9000002    1    1    2    0    0 -0.38316520845E-02  0.46253347242E+00  0.14628850302E+00  0.10560285132E+01  0.93800000000E+00 0. -1.
         22    1    1    2    0    0  0.32643437308E-01 -0.33889899913E+00  0.27639212365E+01  0.27848121530E+01  0.00000000000E+00 0.  1.
</event>
<event>
 5    1  0.6440325E+001  0.1599105E+01  0.7818608E-02  0.3354335E+00
         11   -1    0    0    0    0  0.00000000000E+00  0.00000000000E+00  0.39999999674E+01  0.40000000000E+01  0.51100000000E-03 0. -1.
    9000002   -1    0    0    0    0 -0.00000000000E+00 -0.00000000000E+00  0.00000000000E+00  0.93800000000E+00  0.93800000000E+00 0.  1.
         11    1    1    2    0    0 -0.81930702603E-01 -0.19011891108E-01  0.63911067490E+00  0.64462144545E+00  0.51100000000E-03 0. -1.
    9000002    1    1    2    0    0  0.37321664860E+00  0.15098877646E+00  0.10984511936E+00  0.10266441582E+01  0.93800000000E+00 0.  1.
         22    1    1    2    0    0 -0.29128594600E+00 -0.13197688535E+00  0.32510441731E+01  0.32667343963E+01  0.00000000000E+00 0. -1.
</event>
<event>
 5    1  0.6440325E+001  0.1599676E+01  0.7818608E-02  0.3353715E+00
         11   -1    0    0    0    0  0.00000000000E+00  0.00000000000E+00  0.39999999674E+01  0.40000000000E+01  0.51100000000E-03 0. -1.
    9000002   -1    0    0    0    0 -0.00000000000E+00 -0.00000000000E+00  0.00000000000E+00  0.93800000000E+00  0.93800000000E+00 0.  1.
         11    1    1    2    0    0  0.12402922423E-01  0.48818862438E-01  0.54504196300E+00  0.54736470142E+00  0.51100000000E-03 0.  1.
    9000002    1    1    2    0    0 -0.90733343116E-01 -0.34675125865E+00  0.86221492984E-01  0.10078428056E+01  0.93800000000E+00 0.  1.
         22    1    1    2    0    0  0.78330420692E-01  0.29793239621E+00  0.33687365114E+01  0.33827924930E+01  0.00000000000E+00 0. -1.
</event>
<event>
 5    1  0.6440325E+001  0.1599413E+01  0.7818608E-02  0.3354001E+00
         11   -1    0    0    0    0  0.00000000000E+00  0.00000000000E+00  0.39999999674E+01  0.40000000000E+01  0.51100000000E-03 0. -1.
    9000002   -1    0    0    0    0 -0.00000000000E+00 -0.00000000000E+00  0.00000000000E+00  0.93800000000E+00  0.93800000000E+00 0. -1.
         11    1    1    2    0    0  0.53540107436E-01 -0.14828595630E+00  0.12008637115E+01  0.12111685195E+01  0.51100000000E-03 0. -1.
    9000002    1    1    2    0    0 -0.16517610477E+00  0.41870940504E+00  0.13783369402E+00  0.10494964691E+01  0.93800000000E+00 0. -1.
         22    1    1    2    0    0  0.11163599733E+00 -0.27042344874E+00  0.26613025619E+01  0.26773350114E+01  0.00000000000E+00 0. -1.
</event>
<event>
 5    1  0.6440325E+001  0.1597753E+01  0.7818608E-02  0.3355806E+00
         11   -1    0    0    0    0  0.00000000000E+00  0.00000000000E+00  0.39999999674E+01  0.40000000000E+01  0.51100000000E-03 0.  1.
    9000002   -1    0    0    0    0 -0.00000000000E+00 -0.00000000000E+00  0.00000000000E+00  0.93800000000E+00  0.93800000000E+00 0. -1.
         11    1    1    2    0    0 -0.75691120198E-02  0.74778733913E-02  0.36368066846E+00  0.36383663887E+00  0.51100000000E-03 0.  1.
    9000002    1    1    2    0    0  0.36372045692E+00 -0.24596679781E+00  0.13238290382E+00  0.10441079780E+01  0.93800000000E+00 0. -1.
         22    1    1    2    0    0 -0.35615134490E+00  0.23848892442E+00  0.35039363951E+01  0.35300553832E+01  0.00000000000E+00 0.  1.
</event>
<event>
 5    1  0.6440325E+001  0.1599677E+01  0.7818608E-02  0.3353714E+00
         11   -1    0    0    0    0  0.00000000000E+00  0.00000000000E+00  0.39999999674E+01  0.40000000000E+01  0.51100000000E-03 0.  1.
    9000002   -1    0    0    0    0 -0.00000000000E+00 -0.00000000000E+00  0.00000000000E+00  0.93800000000E+00  0.93800000000E+00 0. -1.
         11    1    1    2    0    0  0.51621026552E-01  0.12751431579E+00  0.12018452574E+01  0.12096929011E+01  0.51100000000E-03 0. -1.
    9000002    1    1    2    0    0 -0.16561065249E+00 -0.41064532938E+00  0.13301821071E+00  0.10457506008E+01  0.93800000000E+00 0. -1.
         22    1    1    2    0    0  0.11398962594E+00  0.28313101358E+00  0.26651364992E+01  0.26825564980E+01  0.00000000000E+00 0.  1.
</event>
<event>
 5    1  0.6440325E+001  0.1599642E+01  0.7818608E-02  0.3353752E+00
         11   -1    0    0    0    0  0.00000000000E+00  0.00000000000E+00  0.39999999674E+01  0.40000000000E+01  0.51100000000E-03 0.  1.
    9000002   -1    0    0    0    0 -0.00000000000E+00 -0.00000000000E+00  0.00000000000E+00  0.93800000000E+00  0.93800000000E+00 0.  1.
         11    1    1    2    0    0 -0.65938014974E-02 -0.14341403214E-01  0.14855322405E+00  0.14939034628E+00  0.51100000000E-03 0.  1.
    9000002    1    1    2    0    0  0.11086755286E+00  0.34561857462E+00  0.88492794112E-01  0.10096627100E+01  0.93800000000E+00 0.  1.
         22    1    1    2    0    0 -0.10427375136E+00 -0.33127717141E+00  0.37629539492E+01  0.37789469437E+01  0.00000000000E+00 0.  1.
</event>
<event>
 5    1  0.6440325E+001  0.1471571E+01  0.7818608E-02  0.3505751E+00
         11   -1    0    0    0    0  0.00000000000E+00  0.00000000000E+00  0.39999999674E+01  0.40000000000E+01  0.51100000000E-03 0.  1.
    9000002   -1    0    0    0    0 -0.00000000000E+00 -0.00000000000E+00  0.00000000000E+00  0.93800000000E+00  0.93800000000E+00 0.  1.
         11    1    1    2    0    0  0.19078555658E+00  0.14060749698E+00  0.33347745770E+00  0.40911743145E+00  0.51100000000E-03 0.  1.
    9000002    1    1    2    0    0  0.65909248763E-01  0.17639026448E+00  0.12603987815E+00  0.96498062434E+00  0.93800000000E+00 0.  1.
         22    1    1    2    0    0 -0.25669480534E+00 -0.31699776146E+00  0.35404826315E+01  0.35639019442E+01  0.00000000000E+00 0.  1.
</event>
<event>
 5    1  0.6440325E+001  0.1599657E+01  0.7818608E-02  0.3353736E+00
         11   -1    0    0    0    0  0.00000000000E+00  0.00000000000E+00  0.39999999674E+01  0.40000000000E+01  0.51100000000E-03 0.  1.
    9000002   -1    0    0    0    0 -0.00000000000E+00 -0.00000000000E+00  0.00000000000E+00  0.93800000000E+00  0.93800000000E+00 0. -1.
         11    1    1    2    0    0  0.13413642895E+00 -0.16583483311E-01  0.12287281600E+01  0.12361394524E+01  0.51100000000E-03 0.  1.
    9000002    1    1    2    0    0 -0.40807997688E+00  0.52584566811E-01  0.11438046040E+00  0.10306412052E+01  0.93800000000E+00 0. -1.
         22    1    1    2    0    0  0.27394354794E+00 -0.36001083500E-01  0.26568913470E+01  0.26712193424E+01  0.00000000000E+00 0.  1.
</event>
<event>
 5    1  0.6440325E+001  0.1565328E+01  0.7818608E-02  0.3391877E+00
         11   -1    0    0    0    0  0.00000000000E+00  0.00000000000E+00  0.39999999674E+01  0.40000000000E+01  0.51100000000E-03 0.  1.
    9000002   -1    0    0    0    0 -0.00000000000E+00 -0.00000000000E+00  0.00000000000E+00  0.93800000000E+00  0.93800000000E+00 0. -1.
         11    1    1    2    0    0 -0.12855258183E+00  0.35970569669E-01  0.10317480931E+01  0.10403480364E+01  0.51100000000E-03 0.  1.
    9000002    1    1    2    0    0 -0.25128418987E+00 -0.38238032848E-01  0.69707412917E-01  0.97432490200E+00  0.93800000000E+00 0. -1.
         22    1    1    2    0    0  0.37983677170E+00  0.22674631786E-02  0.28985444613E+01  0.29233270616E+01  0.00000000000E+00 0.  1.
</event>
<event>
 5    1  0.6440325E+001  0.1590992E+01  0.7818608E-02  0.3363198E+00
         11   -1    0    0    0    0  0.00000000000E+00  0.00000000000E+00  0.39999999674E+01  0.40000000000E+01  0.51100000000E-03 0.  1.
    9000002   -1    0    0    0    0 -0.00000000000E+00 -0.00000000000E+00  0.00000000000E+00  0.93800000000E+00  0.93800000000E+00 0. -1.
         11    1    1    2    0    0  0.14828511941E+00 -0.29179213791E-02  0.74737202132E+00  0.76194631719E+00  0.51100000000E-03 0.  1.
    9000002    1    1    2    0    0 -0.37919852909E+00 -0.23394470068E+00  0.14225773765E+00  0.10481426007E+01  0.93800000000E+00 0. -1.
         22    1    1    2    0    0  0.23091340968E+00  0.23686262205E+00  0.31103702084E+01  0.31279110821E+01  0.00000000000E+00 0.  1.
</event>
<event>
 5    1  0.6440325E+001  0.1599569E+01  0.7818608E-02  0.3353832E+00
         11   -1    0    0    0    0  0.00000000000E+00  0.00000000000E+00  0.39999999674E+01  0.40000000000E+01  0.51100000000E-03 0. -1.
    9000002   -1    0    0    0    0 -0.00000000000E+00 -0.00000000000E+00  0.00000000000E+00  0.93800000000E+00  0.93800000000E+00 0.  1.
         11    1    1    2    0    0 -0.26232336396E-01  0.47162474953E-01  0.21772368050E+00  0.22431294365E+00  0.51100000000E-03 0. -1.
    9000002    1    1    2    0    0  0.42359257055E+00 -0.66749854733E+00  0.45906067149E+00  0.13097960439E+01  0.93800000000E+00 0.  1.
         22    1    1    2    0    0 -0.39736023416E+00  0.62033607238E+00  0.33232156154E+01  0.34038910125E+01  0.00000000000E+00 0. -1.
</event>
<event>
 5    1  0.6440325E+001  0.1599662E+01  0.7818608E-02  0.3353730E+00
         11   -1    0    0    0    0  0.00000000000E+00  0.00000000000E+00  0.39999999674E+01  0.40000000000E+01  0.51100000000E-03 0.  1.
    9000002   -1    0    0    0    0 -0.00000000000E+00 -0.00000000000E+00  0.00000000000E+00  0.93800000000E+00  0.93800000000E+00 0.  1.
         11    1    1    2    0    0 -0.13177580164E-01 -0.54627161490E-01  0.58480574002E+00  0.58749960858E+00  0.51100000000E-03 0.  1.
    9000002    1    1    2    0    0  0.71618570114E-01  0.35126266009E+00  0.86264095132E-01  0.10078691235E+01  0.93800000000E+00 0.  1.
         22    1    1    2    0    0 -0.58440989950E-01 -0.29663549860E+00  0.33289301322E+01  0.33426312679E+01  0.00000000000E+00 0.  1.
</event>
<event>
 5    1  0.6440325E+001  0.1599472E+01  0.7818608E-02  0.3353936E+00
         11   -1    0    0    0    0  0.00000000000E+00  0.00000000000E+00  0.39999999674E+01  0.40000000000E+01  0.51100000000E-03 0. -1.
    9000002   -1    0    0    0    0 -0.00000000000E+00 -0.00000000000E+00  0.00000000000E+00  0.93800000000E+00  0.93800000000E+00 0.  1.
         11    1    1    2    0    0 -0.77096507302E-01  0.42036727524E-01  0.90654147532E+00  0.91078464276E+00  0.51100000000E-03 0. -1.
    9000002    1    1    2    0    0  0.31794766888E+00 -0.24162562117E+00  0.10772935466E+00  0.10251454896E+01  0.93800000000E+00 0.  1.
         22    1    1    2    0    0 -0.24085116157E+00  0.19958889365E+00  0.29857291374E+01  0.30020698677E+01  0.00000000000E+00 0. -1.
</event>
<event>
 5    1  0.6440325E+001  0.1598844E+01  0.7818608E-02  0.3354619E+00
         11   -1    0    0    0    0  0.00000000000E+00  0.00000000000E+00  0.39999999674E+01  0.40000000000E+01  0.51100000000E-03 0.  1.
    9000002   -1    0    0    0    0 -0.00000000000E+00 -0.00000000000E+00  0.00000000000E+00  0.93800000000E+00  0.93800000000E+00 0.  1.
         11    1    1    2    0    0 -0.85590146435E-02 -0.12798907809E-01  0.27398671568E+00  0.27441947865E+00  0.51100000000E-03 0.  1.
    9000002    1    1    2    0    0 -0.74818703478E-01  0.34209679990E+00  0.82896072671E-01  0.10046610462E+01  0.93800000000E+00 0.  1.
         22    1    1    2    0    0  0.83377718121E-01 -0.32929789209E+00  0.36431171790E+01  0.36589194751E+01  0.00000000000E+00 0.  1.
</event>
<event>
 5    1  0.6440325E+001  0.1599676E+01  0.7818608E-02  0.3353715E+00
         11   -1    0    0    0    0  0.00000000000E+00  0.00000000000E+00  0.39999999674E+01  0.40000000000E+01  0.51100000000E-03 0.  1.
    9000002   -1    0    0    0    0 -0.00000000000E+00 -0.00000000000E+00  0.00000000000E+00  0.93800000000E+00  0.93800000000E+00 0. -1.
         11    1    1    2    0    0 -0.76704869456E-02  0.32754969823E-01  0.33093816825E+00  0.33264403910E+00  0.51100000000E-03 0. -1.
    9000002    1    1    2    0    0  0.88614874168E-01 -0.38273149646E+00  0.10400876946E+00  0.10222513480E+01  0.93800000000E+00 0. -1.
         22    1    1    2    0    0 -0.80944387223E-01  0.34997652663E+00  0.35650530296E+01  0.35831046129E+01  0.00000000000E+00 0.  1.
</event>
<event>
 5    1  0.6440325E+001  0.1599671E+01  0.7818608E-02  0.3353721E+00
         11   -1    0    0    0    0  0.00000000000E+00  0.00000000000E+00  0.39999999674E+01  0.40000000000E+01  0.51100000000E-03 0.  1.
    9000002   -1    0    0    0    0 -0.00000000000E+00 -0.00000000000E+00  0.00000000000E+00  0.93800000000E+00  0.93800000000E+00 0.  1.
         11    1    1    2    0    0  0.59214274193E-01 -0.81234018203E-01  0.36756452600E+00  0.38106329904E+00  0.51100000000E-03 0.  1.
    9000002    1    1    2    0    0 -0.53403214960E+00  0.75418563337E+00  0.66075410232E+00  0.14732366715E+01  0.93800000000E+00 0.  1.
         22    1    1    2    0    0  0.47481787541E+00 -0.67295161517E+00  0.29716813390E+01  0.30837000295E+01  0.00000000000E+00 0.  1.
</event>
<event>
 5    1  0.6440325E+001  0.1555988E+01  0.7818608E-02  0.3402563E+00
         11   -1    0    0    0    0  0.00000000000E+00  0.00000000000E+00  0.39999999674E+01  0.40000000000E+01  0.51100000000E-03 0.  1.
    9000002   -1    0    0    0    0 -0.00000000000E+00 -0.00000000000E+00  0.00000000000E+00  0.93800000000E+00  0.93800000000E+00 0. -1.
         11    1    1    2    0    0 -0.18550639600E-01  0.10423073091E+00  0.19709886008E+00  0.22373286138E+00  0.51100000000E-03 0.  1.
    9000002    1    1    2    0    0  0.87808058061E+00  0.18817471938E+00  0.68762848486E+00  0.14693917668E+01  0.93800000000E+00 0. -1.
         22    1    1    2    0    0 -0.85952994101E+00 -0.29240545029E+00  0.31152726224E+01  0.32448753718E+01  0.00000000000E+00 0.  1.
</event>
<event>
 5    1  0.6440325E+001  0.1599674E+01  0.7818608E-02  0.3353717E+00
         11   -1    0    0    0    0  0.00000000000E+00  0.00000000000E+00  0.39999999674E+01  0.40000000000E+01  0.51100000000E-03 0. -1.
    9000002   -1    0    0    0    0 -0.00000000000E+00 -0.00000000000E+00  0.00000000000E+00  0.93800000000E+00  0.93800000000E+00 0. -1.
         11    1    1    2    0    0  0.62882229654E-01  0.77444077923E-01  0.95392528710E+00  0.95912745477E+00  0.51100000000E-03 0. -1.
    9000002    1    1    2    0    0 -0.26108252666E+00 -0.32018294041E+00  0.11532817612E+00  0.10314193082E+01  0.93800000000E+00 0. -1.
         22    1    1    2    0    0  0.19820029701E+00  0.24273886248E+00  0.29307465041E+01  0.29474532371E+01  0.00000000000E+00 0. -1.
</event>
<event>
 5    1  0.6440325E+001  0.1599660E+01  0.7818608E-02  0.3353733E+00
         11   -1    0    0    0    0  0.00000000000E+00  0.00000000000E+00  0.39999999674E+01  0.40000000000E+01  0.51100000000E-03 0.  1.
    9000002   -1    0    0    0    0 -0.00000000000E+00 -0.00000000000E+00  0.00000000000E+00  0.93800000000E+00  0.93800000000E+00 0. -1.
         11    1    1    2    0    0  0.80834980050E-02 -0.19163076386E-01  0.17764084324E+00  0.17885496008E+00  0.51100000000E-03 0.  1.
    9000002    1    1    2    0    0 -0.21832569671E+00  0.40466214599E+00  0.14381692329E+00  0.10544879656E+01  0.93800000000E+00 0. -1.
         22    1    1    2    0    0  0.21024219870E+00 -0.38549906961E+00  0.36785422008E+01  0.37046570743E+01  0.00000000000E+00 0.  1.
</event>
<event>
 5    1  0.6440325E+001  0.1599628E+01  0.7818608E-02  0.3353767E+00
         11   -1    0    0    0    0  0.00000000000E+00  0.00000000000E+00  0.39999999674E+01  0.40000000000E+01  0.51100000000E-03 0. -1.
    9000002   -1    0    0    0    0 -0.00000000000E+00 -0.00000000000E+00  0.00000000000E+00  0.93800000000E+00  0.93800000000E+00 0.  1.
         11    1    1    2    0    0 -0.74795750358E+00  0.60658428566E-01  0.12637242604E+01  0.14697343772E+01  0.51100000000E-03 0. -1.
    9000002    1    1    2    0    0  0.12723476686E+01 -0.97023109093E-01  0.18258839712E+01  0.24170184836E+01  0.93800000000E+00 0.  1.
         22    1    1    2    0    0 -0.52439016506E+00  0.36364680528E-01  0.91039173573E+00  0.10512471392E+01  0.00000000000E+00 0. -1.
</event>
<event>
 5    1  0.6440325E+001  0.1599595E+01  0.7818608E-02  0.3353803E+00
         11   -1    0    0    0    0  0.00000000000E+00  0.00000000000E+00  0.39999999674E+01  0.40000000000E+01  0.51100000000E-03 0. -1.
    9000002   -1    0    0    0    0 -0.00000000000E+00 -0.00000000000E+00  0.00000000000E+00  0.93800000000E+00  0.93800000000E+00 0.  1.
         11    1    1    2    0    0  0.23578945476E-02 -0.70258523634E-02  0.12287985024E+00  0.12310418752E+00  0.51100000000E-03 0. -1.
    9000002    1    1    2    0    0 -0.80231902456E-01  0.34435179860E+00  0.83923621361E-01  0.10059336427E+01  0.93800000000E+00 0.  1.
         22    1    1    2    0    0  0.77874007909E-01 -0.33732594624E+00  0.37931964958E+01  0.38089621697E+01  0.00000000000E+00 0. -1.
</event>
<event>
 5    1  0.6440325E+001  0.1568471E+01  0.7818608E-02  0.3388311E+00
         11   -1    0    0    0    0  0.00000000000E+00  0.00000000000E+00  0.39999999674E+01  0.40000000000E+01  0.51100000000E-03 0.  1.
    9000002   -1    0    0    0    0 -0.00000000000E+00 -0.00000000000E+00  0.00000000000E+00  0.93800000000E+00  0.93800000000E+00 0. -1.
         11    1    1    2    0    0 -0.18413152666E+00 -0.15468962885E+00  0.13545333801E+01  0.13757159007E+01  0.51100000000E-03 0.  1.
    9000002    1    1    2    0    0  0.64035702830E+00 -0.11877705408E+00  0.33309066868E+00  0.11895202839E+01  0.93800000000E+00 0. -1.
         22    1    1    2    0    0 -0.45622550164E+00  0.27346668293E+00  0.23123759185E+01  0.23727638154E+01  0.00000000000E+00 0.  1.
</event>
<event>
 5    1  0.6440325E+001  0.1599260E+01  0.7818608E-02  0.3354167E+00
         11   -1    0    0    0    0  0.00000000000E+00  0.00000000000E+00  0.39999999674E+01  0.40000000000E+01  0.51100000000E-03 0. -1.
    9000002   -1    0    0    0    0 -0.00000000000E+00 -0.00000000000E+00  0.00000000000E+00  0.93800000000E+00  0.93800000000E+00 0. -1.
         11    1    1    2    0    0  0.98905496743E-01  0.35343560959E-01  0.78583820181E+00  0.79282621371E+00  0.51100000000E-03 0. -1.
    9000002    1    1    2    0    0 -0.39162588977E+00 -0.19555813799E+00  0.13026670824E+00  0.10432771627E+01  0.93800000000E+00 0. -1.
         22    1    1    2    0    0  0.29272039302E+00  0.16021457703E+00  0.30838950573E+01  0.31018966236E+01  0.00000000000E+00 0. -1.
</event>
<event>
 5    1  0.6440325E+001  0.1599676E+01  0.7818608E-02  0.3353715E+00
         11   -1    0    0    0    0  0.00000000000E+00  0.00000000000E+00  0.39999999674E+01  0.40000000000E+01  0.51100000000E-03 0.  1.
    9000002   -1    0    0    0    0 -0.00000000000E+00 -0.00000000000E+00  0.00000000000E+00  0.93800000000E+00  0.93800000000E+00 0.  1.
         11    1    1    2    0    0 -0.11440813178E+00 -0.77203128500E-01  0.10986427518E+01  0.11072785110E+01  0.51100000000E-03 0.  1.
    9000002    1    1    2    0    0  0.40069189061E+00  0.27364505822E+00  0.16077774765E+00  0.10682364407E+01  0.93800000000E+00 0.  1.
         22    1    1    2    0    0 -0.28628375883E+00 -0.19644192972E+00  0.27405794679E+01  0.27624850483E+01  0.00000000000E+00 0.  1.
</event>
<event>
 5    1  0.6440325E+001  0.1599610E+01  0.7818608E-02  0.3353787E+00
         11   -1    0    0    0    0  0.00000000000E+00  0.00000000000E+00  0.39999999674E+01  0.40000000000E+01  0.51100000000E-03 0. -1.
    9000002   -1    0    0    0    0 -0.00000000000E+00 -0.00000000000E+00  0.00000000000E+00  0.93800000000E+00  0.93800000000E+00 0. -1.
         11    1    1    2    0    0  0.20857443374E-01  0.93389370061E-01  0.62516428361E+00  0.63244545220E+00  0.51100000000E-03 0. -1.
    9000002    1    1    2    0    0 -0.16751478829E+00 -0.54879225549E+00  0.22852647628E+00  0.11230772433E+01  0.93800000000E+00 0. -1.
         22    1    1    2    0    0  0.14665734492E+00  0.45540288543E+00  0.31463092075E+01  0.31824773045E+01  0.00000000000E+00 0. -1.
</event>
<event>
 5    1  0.6440325E+001  0.1599677E+01  0.7818608E-02  0.3353715E+00
         11   -1    0    0    0    0  0.00000000000E+00  0.00000000000E+00  0.39999999674E+01  0.40000000000E+01  0.51100000000E-03 0. -1.
    9000002   -1    0    0    0    0 -0.00000000000E+00 -0.00000000000E+00  0.00000000000E+00  0.93800000000E+00  0.93800000000E+00 0.  1.
         11    1    1    2    0    0 -0.13666130579E+00 -0.31643874097E-01  0.14921540612E+01  0.14987333488E+01  0.51100000000E-03 0. -1.
    9000002    1    1    2    0    0  0.35708340169E+00  0.84705759190E-01  0.90481151239E-01  0.10112934590E+01  0.93800000000E+00 0.  1.
         22    1    1    2    0    0 -0.22042209590E+00 -0.53061885093E-01  0.24173647549E+01  0.24279731923E+01  0.00000000000E+00 0. -1.
</event>
<event>
 5    1  0.6440325E+001  0.1473499E+01  0.7818608E-02  0.3503253E+00
         11   -1    0    0    0    0  0.00000000000E+00  0.00000000000E+00  0.39999999674E+01  0.40000000000E+01  0.51100000000E-03 0. -1.
    9000002   -1    0    0    0    0 -0.00000000000E+00 -0.00000000000E+00  0.00000000000E+00  0.93800000000E+00  0.93800000000E+00 0. -1.
         11    1    1    2    0    0 -0.38261106249E+00 -0.27190201097E+00  0.12348149961E+01  0.13210186465E+01  0.51100000000E-03 0. -1.
    9000002    1    1    2    0    0  0.41010773370E-01 -0.85320961758E-01  0.14894051024E+00  0.95445734616E+00  0.93800000000E+00 0.  1.
         22    1    1    2    0    0  0.34160028912E+00  0.35722297273E+00  0.26162444611E+01  0.26625240074E+01  0.00000000000E+00 0. -1.
</event>
<event>
 5    1  0.6440325E+001  0.1572916E+01  0.7818608E-02  0.3383294E+00
         11   -1    0    0    0    0  0.00000000000E+00  0.00000000000E+00  0.39999999674E+01  0.40000000000E+01  0.51100000000E-03 0.  1.
    9000002   -1    0    0    0    0 -0.00000000000E+00 -0.00000000000E+00  0.00000000000E+00  0.93800000000E+00  0.93800000000E+00 0.  1.
         11    1    1    2    0    0  0.47642734851E-02  0.41896219343E-01  0.30516311502E-01  0.52052837443E-01  0.51100000000E-03 0.  1.
    9000002    1    1    2    0    0  0.35313158707E+00 -0.22686322558E+00  0.14208132075E+00  0.10374005700E+01  0.93800000000E+00 0.  1.
         22    1    1    2    0    0 -0.35789586056E+00  0.18496700623E+00  0.38274023351E+01  0.38485465926E+01  0.00000000000E+00 0.  1.
</event>
<event>
 5    1  0.6440325E+001  0.1599494E+01  0.7818608E-02  0.3353913E+00
         11   -1    0    0    0    0  0.00000000000E+00  0.00000000000E+00  0.39999999674E+01  0.40000000000E+01  0.51100000000E-03 0.  1.
    9000002   -1    0    0    0    0 -0.00000000000E+00 -0.00000000000E+00  0.00000000000E+00  0.93800000000E+00  0.93800000000E+00 0. -1.
         11    1    1    2    0    0 -0.99589868868E-01  0.94861103530E-01  0.11385404086E+01  0.11468178993E+01  0.51100000000E-03 0.  1.
    9000002    1    1    2    0    0  0.34655861635E+00 -0.27249034142E+00  0.13198310734E+00  0.10448049585E+01  0.93800000000E+00 0. -1.
         22    1    1    2    0    0 -0.24696874749E+00  0.17762923789E+00  0.27294764514E+01  0.27463771422E+01  0.00000000000E+00 0.  1.
</event>
<event>
 5    1  0.6440325E+001  0.1599676E+01  0.7818608E-02  0.3353715E+00
         11   -1    0    0    0    0  0.00000000000E+00  0.00000000000E+00  0.39999999674E+01  0.40000000000E+01  0.51100000000E-03 0.  1.
    9000002   -1    0    0    0    0 -0.00000000000E+00 -0.00000000000E+00  0.00000000000E+00  0.93800000000E+00  0.93800000000E+00 0.  1.
         11    1    1    2    0    0  0.74222866304E-01 -0.14001689108E+00  0.13423716354E+01  0.13516936163E+01  0.51100000000E-03 0.  1.
    9000002    1    1    2    0    0 -0.21465083554E+00  0.40005558856E+00  0.14007685675E+00  0.10514680123E+01  0.93800000000E+00 0.  1.
         22    1    1    2    0    0  0.14042796924E+00 -0.26003869747E+00  0.25175514752E+01  0.25348383714E+01  0.00000000000E+00 0.  1.
</event>
<event>
 5    1  0.6440325E+001  0.1563951E+01  0.7818608E-02  0.3393444E+00
         11   -1    0    0    0    0  0.00000000000E+00  0.00000000000E+00  0.39999999674E+01  0.40000000000E+01  0.51100000000E-03 0.  1.
    9000002   -1    0    0    0    0 -0.00000000000E+00 -0.00000000000E+00  0.00000000000E+00  0.93800000000E+00  0.93800000000E+00 0. -1.
         11    1    1    2    0    0 -0.12317105275E+00  0.92650211681E-01  0.68486782237E+00  0.70199669885E+00  0.51100000000E-03 0.  1.
    9000002    1    1    2    0    0  0.45144118412E-01  0.20673059420E+00  0.57047158148E-01  0.96326211815E+00  0.93800000000E+00 0. -1.
         22    1    1    2    0    0  0.78026934343E-01 -0.29938080588E+00  0.32580849868E+01  0.32727411830E+01  0.00000000000E+00 0.  1.
</event>
<event>
 5    1  0.6440325E+001  0.1599676E+01  0.7818608E-02  0.3353715E+00
         11   -1    0    0    0    0  0.00000000000E+00  0.00000000000E+00  0.39999999674E+01  0.40000000000E+01  0.51100000000E-03 0.  1.
    9000002   -1    0    0    0    0 -0.00000000000E+00 -0.00000000000E+00  0.00000000000E+00  0.93800000000E+00  0.93800000000E+00 0.  1.
         11    1    1    2    0    0  0.28363073950E-01  0.94961374752E-01  0.91396015553E+00  0.91931798290E+00  0.51100000000E-03 0.  1.
    9000002    1    1    2    0    0 -0.12473342602E+00 -0.40396948385E+00  0.12093618968E+00  0.10359629981E+01  0.93800000000E+00 0.  1.
         22    1    1    2    0    0  0.96370352066E-01  0.30900810910E+00  0.29651036222E+01  0.29827190190E+01  0.00000000000E+00 0.  1.
</event>
<event>
 5    1  0.6440325E+001  0.1599567E+01  0.7818608E-02  0.3353833E+00
         11   -1    0    0    0    0  0.00000000000E+00  0.00000000000E+00  0.39999999674E+01  0.40000000000E+01  0.51100000000E-03 0. -1.
    9000002   -1    0    0    0    0 -0.00000000000E+00 -0.00000000000E+00  0.00000000000E+00  0.93800000000E+00  0.93800000000E+00 0. -1.
         11    1    1    2    0    0 -0.27754472909E-01  0.44562303321E-01  0.70012276899E+00  0.70208850042E+00  0.51100000000E-03 0. -1.
    9000002    1    1    2    0    0  0.19463397720E+00 -0.28676259115E+00  0.80596236809E-01  0.10032222696E+01  0.93800000000E+00 0. -1.
         22    1    1    2    0    0 -0.16687950429E+00  0.24220028783E+00  0.32192809616E+01  0.32326892300E+01  0.00000000000E+00 0. -1.
</event>
<event>
 5    1  0.6440325E+001  0.1580120E+01  0.7818608E-02  0.3375227E+00
         11   -1    0    0    0    0  0.00000000000E+00  0.00000000000E+00  0.39999999674E+01  0.40000000000E+01  0.51100000000E-03 0.  1.
    9000002   -1    0    0    0    0 -0.00000000000E+00 -0.00000000000E+00  0.00000000000E+00  0.93800000000E+00  0.93800000000E+00 0.  1.
         11    1    1    2    0    0  0.11924659147E+00  0.70294551741E-01  0.12520894180E+01  0.12597179229E+01  0.51100000000E-03 0.  1.
    9000002    1    1    2    0    0  0.11686309782E+00 -0.19122744862E+00  0.48237101578E-01  0.96560640983E+00  0.93800000000E+00 0.  1.
         22    1    1    2    0    0 -0.23610968929E+00  0.12093289688E+00  0.26996734478E+01  0.27126756673E+01  0.00000000000E+00 0.  1.
</event>
<event>
 5    1  0.6440325E+001  0.1599421E+01  0.7818608E-02  0.3353992E+00
         11   -1    0    0    0    0  0.00000000000E+00  0.00000000000E+00  0.39999999674E+01  0.40000000000E+01  0.51100000000E-03 0.  1.
    9000002   -1    0    0    0    0 -0.00000000000E+00 -0.00000000000E+00  0.00000000000E+00  0.93800000000E+00  0.93800000000E+00 0. -1.
         11    1    1    2    0    0 -0.35607408011E-01  0.12414272861E-03  0.47060212310E+00  0.47194758428E+00  0.51100000000E-03 0.  1.
    9000002    1    1    2    0    0  0.39748272897E+00  0.15541894089E-01  0.10691468067E+00  0.10244553769E+01  0.93800000000E+00 0. -1.
         22    1    1    2    0    0 -0.36187532096E+00 -0.15666036818E-01  0.34224831636E+01  0.34415970388E+01  0.00000000000E+00 0.  1.
</event>
<event>
 5    1  0.6440325E+001  0.1599574E+01  0.7818608E-02  0.3353826E+00
         11   -1    0    0    0    0  0.00000000000E+00  0.00000000000E+00  0.39999999674E+01  0.40000000000E+01  0.51100000000E-03 0.  1.
    9000002   -1    0    0    0    0 -0.00000000000E+00 -0.00000000000E+00  0.00000000000E+00  0.93800000000E+00  0.93800000000E+00 0. -1.
         11    1    1    2    0    0  0.19035297004E-01 -0.88057938150E-01  0.55584015907E+00  0.56309420754E+00  0.51100000000E-03 0.  1.
    9000002    1    1    2    0    0 -0.96547375651E-01  0.63724716669E+00  0.29285488906E+00  0.11751652366E+01  0.93800000000E+00 0. -1.
         22    1    1    2    0    0  0.77512078647E-01 -0.54918922854E+00  0.31513049192E+01  0.31997405559E+01  0.00000000000E+00 0.  1.
</event>
<event>
 5    1  0.6440325E+001  0.1599675E+01  0.7818608E-02  0.3353717E+00
         11   -1    0    0    0    0  0.00000000000E+00  0.00000000000E+00  0.39999999674E+01  0.40000000000E+01  0.51100000000E-03 0. -1.
    9000002   -1    0    0    0    0 -0.00000000000E+00 -0.00000000000E+00  0.00000000000E+00  0.93800000000E+00  0.93800000000E+00 0. -1.
         11    1    1    2    0    0  0.98965827696E-02  0.21463849600E-01  0.27009590560E+00  0.27112856458E+00  0.51100000000E-03 0.  1.
    9000002    1    1    2    0    0 -0.14867400586E+00 -0.32188627173E+00  0.84337650762E-01  0.10063158407E+01  0.93800000000E+00 0. -1.
         22    1    1    2    0    0  0.13877742309E+00  0.30042242213E+00  0.36455664110E+01  0.36605555947E+01  0.00000000000E+00 0. -1.
</event>
<event>
 5    1  0.6440325E+001  0.1599675E+01  0.7818608E-02  0.3353716E+00
         11   -1    0    0    0    0  0.00000000000E+00  0.00000000000E+00  0.39999999674E+01  0.40000000000E+01  0.51100000000E-03 0. -1.
    9000002   -1    0    0    0    0 -0.00000000000E+00 -0.00000000000E+00  0.00000000000E+00  0.93800000000E+00  0.93800000000E+00 0. -1.
         11    1    1    2    0    0 -0.36406133517E-01 -0.56111019437E-01  0.64674463222E+00  0.65019438131E+00  0.51100000000E-03 0. -1.
    9000002    1    1    2    0    0  0.21241904557E+00  0.34161434579E+00  0.10918609616E+00  0.10264442585E+01  0.93800000000E+00 0. -1.
         22    1    1    2    0    0 -0.17601291205E+00 -0.28550332635E+00  0.32440692390E+01  0.32613613602E+01  0.00000000000E+00 0. -1.
</event>
<event>
 5    1  0.6440325E+001  0.1599663E+01  0.7818608E-02  0.3353729E+00
         11   -1    0    0    0    0  0.00000000000E+00  0.00000000000E+00  0.39999999674E+01  0.40000000000E+01  0.51100000000E-03 0. -1.
    9000002   -1    0    0    0    0 -0.00000000000E+00 -0.00000000000E+00  0.00000000000E+00  0.93800000000E+00  0.93800000000E+00 0.  1.
         11    1    1    2    0    0  0.12367764405E+00 -0.42848910617E-01  0.12418771907E+01  0.12487559436E+01  0.51100000000E-03 0. -1.
    9000002    1    1    2    0    0 -0.37654370171E+00  0.14172224461E+00  0.10922939140E+00  0.10264723152E+01  0.93800000000E+00 0.  1.
         22    1    1    2    0    0  0.25286605766E+00 -0.98873333990E-01  0.26488933853E+01  0.26627717412E+01  0.00000000000E+00 0. -1.
</event>
<event>
 5    1  0.6440325E+001  0.1599502E+01  0.7818608E-02  0.3353904E+00
         11   -1    0    0    0    0  0.00000000000E+00  0.00000000000E+00  0.39999999674E+01  0.40000000000E+01  0.51100000000E-03 0. -1.
    9000002   -1    0    0    0    0 -0.00000000000E+00 -0.00000000000E+00  0.00000000000E+00  0.93800000000E+00  0.93800000000E+00 0.  1.
         11    1    1    2    0    0  0.75566173116E-01  0.50579321446E-01  0.84276336359E+00  0.84765491942E+00  0.51100000000E-03 0. -1.
    9000002    1    1    2    0    0 -0.37027695385E+00 -0.17674648192E+00  0.11385107851E+00  0.10301215508E+01  0.93800000000E+00 0.  1.
         22    1    1    2    0    0  0.29471078073E+00  0.12616716047E+00  0.30433855253E+01  0.30602235297E+01  0.00000000000E+00 0. -1.
</event>
<event>
 5    1  0.7096742E+001  0.1578149E+01  0.7818608E-02  0.3377426E+00
         11   -1    0    0    0    0  0.00000000000E+00  0.00000000000E+00  0.39999999674E+01  0.40000000000E+01  0.51100000000E-03 0.  1.
    9000002   -1    0    0    0    0 -0.00000000000E+00 -0.00000000000E+00  0.00000000000E+00  0.93800000000E+00  0.93800000000E+00 0. -1.
         11    1    1    2    0    0  0.98097610482E-01  0.25880715853E-01  0.75607074225E+00  0.76284741662E+00  0.51100000000E-03 0.  1.
    9000002    1    1    2    0    0  0.21325688870E+00 -0.12056442536E+00  0.56451566015E-01  0.97110507184E+00  0.93800000000E+00 0. -1.
         22    1    1    2    0    0 -0.31135449918E+00  0.94683709503E-01  0.31874776591E+01  0.32040475115E+01  0.00000000000E+00 0.  1.
</event>
<event>
 5    1  0.6440325E+001  0.1599658E+01  0.7818608E-02  0.3353735E+00
         11   -1    0    0    0    0  0.00000000000E+00  0.00000000000E+00  0.39999999674E+01  0.40000000000E+01  0.51100000000E-03 0. -1.
    9000002   -1    0    0    0    0 -0.00000000000E+00 -0.00000000000E+00  0.00000000000E+00  0.93800000000E+00  0.93800000000E+00 0.  1.
         11    1    1    2    0    0  0.62510896545E-01  0.98097109316E-01  0.12705384009E+01  0.12758521640E+01  0.51100000000E-03 0. -1.
    9000002    1    1    2    0    0 -0.20477110833E+00 -0.29305466070E+00  0.85786900268E-01  0.10074798426E+01  0.93800000000E+00 0.  1.
         22    1    1    2    0    0  0.14226021178E+00  0.19495755139E+00  0.26436746662E+01  0.26546679934E+01  0.00000000000E+00 0. -1.
</event>
<event>
 5    1  0.6440325E+001  0.1599636E+01  0.7818608E-02  0.3353759E+00
         11   -1    0    0    0    0  0.00000000000E+00  0.00000000000E+00  0.39999999674E+01  0.40000000000E+01  0.51100000000E-03 0.  1.
    9000002   -1    0    0    0    0 -0.00000000000E+00 -0.00000000000E+00  0.00000000000E+00  0.93800000000E+00  0.93800000000E+00 0.  1.
         11    1    1    2    0    0  0.20756292920E+00 -0.14539137062E+00  0.13511949225E+01  0.13747541598E+01  0.51100000000E-03 0.  1.
    9000002    1    1    2    0    0 -0.54505752971E+00  0.40146498177E+00  0.32558054940E+00  0.12017106708E+01  0.93800000000E+00 0.  1.
         22    1    1    2    0    0  0.33749460051E+00 -0.25607361115E+00  0.23232244954E+01  0.23615351693E+01  0.00000000000E+00 0.  1.
</event>
<event>
 5    1  0.6440325E+001  0.1599664E+01  0.7818608E-02  0.3353728E+00
         11   -1    0    0    0    0  0.00000000000E+00  0.00000000000E+00  0.39999999674E+01  0.40000000000E+01  0.51100000000E-03 0. -1.
    9000002   -1    0    0    0    0 -0.00000000000E+00 -0.00000000000E+00  0.00000000000E+00  0.93800000000E+00  0.93800000000E+00 0.  1.
         11    1    1    2    0    0 -0.65763364060E-01 -0.50081206462E-01  0.89600790134E+00  0.89981296261E+00  0.51100000000E-03 0. -1.
    9000002    1    1    2    0    0  0.30151852337E+00  0.22314976181E+00  0.94629547406E-01  0.10146467303E+01  0.93800000000E+00 0.  1.
         22    1    1    2    0    0 -0.23575515931E+00 -0.17306855534E+00  0.30093625186E+01  0.30235403071E+01  0.00000000000E+00 0. -1.
</event>
<event>
 5    1  0.6440325E+001  0.1599575E+01  0.7818608E-02  0.3353824E+00
         11   -1    0    0    0    0  0.00000000000E+00  0.00000000000E+00  0.39999999674E+01  0.40000000000E+01  0.51100000000E-03 0.  1.
    9000002   -1    0    0    0    0 -0.00000000000E+00 -0.00000000000E+00  0.00000000000E+00  0.93800000000E+00  0.93800000000E+00 0.  1.
         11    1    1    2    0    0  0.46852748764E-02  0.12217718639E+00  0.92051435737E+00  0.92859903076E+00  0.51100000000E-03 0.  1.
    9000002    1    1    2    0    0 -0.55979810650E-01 -0.48596227517E+00  0.16360677372E+00  0.10704691721E+01  0.93800000000E+00 0.  1.
         22    1    1    2    0    0  0.51294535774E-01  0.36378508879E+00  0.29158788363E+01  0.29389317971E+01  0.00000000000E+00 0.  1.
</event>
<event>
 5    1  0.6440325E+001  0.1599672E+01  0.7818608E-02  0.3353719E+00
         11   -1    0    0    0    0  0.00000000000E+00  0.00000000000E+00  0.39999999674E+01  0.40000000000E+01  0.51100000000E-03 0. -1.
    9000002   -1    0    0    0    0 -0.00000000000E+00 -0.00000000000E+00  0.00000000000E+00  0.93800000000E+00  0.93800000000E+00 0.  1.
         11    1    1    2    0    0  0.85285604748E-01  0.93915032368E-01  0.94679728315E+00  0.95525861639E+00  0.51100000000E-03 0. -1.
    9000002    1    1    2    0    0 -0.35255720749E+00 -0.38122764416E+00  0.18519464450E+00  0.10880129400E+01  0.93800000000E+00 0.  1.
         22    1    1    2    0    0  0.26727160274E+00  0.28731261179E+00  0.28680080397E+01  0.28947284436E+01  0.00000000000E+00 0. -1.
</event>
<event>
 5    1  0.6440325E+001  0.1599662E+01  0.7818608E-02  0.3353730E+00
         11   -1    0    0    0    0  0.00000000000E+00  0.00000000000E+00  0.39999999674E+01  0.40000000000E+01  0.51100000000E-03 0. -1.
    9000002   -1    0    0    0    0 -0.00000000000E+00 -0.00000000000E+00  0.00000000000E+00  0.93800000000E+00  0.93800000000E+00 0. -1.
         11    1    1    2    0    0 -0.14613561648E+00  0.51742200130E-01  0.12490284033E+01  0.12586123657E+01  0.51100000000E-03 0. -1.
    9000002    1    1    2    0    0  0.44462447036E+00 -0.14746495621E+00  0.14946700498E+00  0.10590662012E+01  0.93800000000E+00 0. -1.
         22    1    1    2    0    0 -0.29848885389E+00  0.95722756083E-01  0.26015045590E+01  0.26203214331E+01  0.00000000000E+00 0. -1.
</event>
<event>
 5    1  0.6440325E+001  0.1589396E+01  0.7818608E-02  0.3364954E+00
         11   -1    0    0    0    0  0.00000000000E+00  0.00000000000E+00  0.39999999674E+01  0.40000000000E+01  0.51100000000E-03 0. -1.
    9000002   -1    0    0    0    0 -0.00000000000E+00 -0.00000000000E+00  0.00000000000E+00  0.93800000000E+00  0.93800000000E+00 0. -1.
         11    1    1    2    0    0  0.96695537946E-01  0.10099346142E+00  0.55206163856E+00  0.56949277449E+00  0.51100000000E-03 0. -1.
    9000002    1    1    2    0    0 -0.15184438361E+00 -0.40712857579E+00  0.13677686956E+00  0.10427666595E+01  0.93800000000E+00 0. -1.
         22    1    1    2    0    0  0.55148845664E-01  0.30613511437E+00  0.33111614592E+01  0.33257405660E+01  0.00000000000E+00 0. -1.
</event>
<event>
 5    1  0.6440325E+001  0.1575015E+01  0.7818608E-02  0.3380936E+00
         11   -1    0    0    0    0  0.00000000000E+00  0.00000000000E+00  0.39999999674E+01  0.40000000000E+01  0.51100000000E-03 0. -1.
    9000002   -1    0    0    0    0 -0.00000000000E+00 -0.00000000000E+00  0.00000000000E+00  0.93800000000E+00  0.93800000000E+00 0. -1.
         11    1    1    2    0    0  0.99424195686E-01 -0.85700565083E-02  0.36397401221E+00  0.37740688817E+00  0.51100000000E-03 0. -1.
    9000002    1    1    2    0    0  0.85232513151E-01  0.37320659098E+00  0.11920300191E+00  0.10200985720E+01  0.93800000000E+00 0. -1.
         22    1    1    2    0    0 -0.18465670884E+00 -0.36463653447E+00  0.35168229532E+01  0.35404945399E+01  0.00000000000E+00 0. -1.
</event>
<event>
 5    1  0.6440325E+001  0.1591817E+01  0.7818608E-02  0.3362293E+00
         11   -1    0    0    0    0  0.00000000000E+00  0.00000000000E+00  0.39999999674E+01  0.40000000000E+01  0.51100000000E-03 0.  1.
    9000002   -1    0    0    0    0 -0.00000000000E+00 -0.00000000000E+00  0.00000000000E+00  0.93800000000E+00  0.93800000000E+00 0.  1.
         11    1    1    2    0    0  0.17540278437E+00 -0.23347599804E-01  0.69045223690E+00  0.71276630093E+00  0.51100000000E-03 0.  1.
    9000002    1    1    2    0    0 -0.56896075706E+00 -0.11463483390E+00  0.24175573927E+00  0.11292242141E+01  0.93800000000E+00 0.  1.
         22    1    1    2    0    0  0.39355797270E+00  0.13798243370E+00  0.30677919912E+01  0.30960094850E+01  0.00000000000E+00 0.  1.
</event>
<event>
 5    1  0.6440325E+001  0.1599552E+01  0.7818608E-02  0.3353850E+00
         11   -1    0    0    0    0  0.00000000000E+00  0.00000000000E+00  0.39999999674E+01  0.40000000000E+01  0.51100000000E-03 0. -1.
    9000002   -1    0    0    0    0 -0.00000000000E+00 -0.00000000000E+00  0.00000000000E+00  0.93800000000E+00  0.93800000000E+00 0. -1.
         11    1    1    2    0    0  0.80497600684E-01 -0.25121467491E-01  0.82724489273E+00  0.83153191491E+00  0.51100000000E-03 0. -1.
    9000002    1    1    2    0    0 -0.33578547703E+00  0.14545858314E+00  0.90051976527E-01  0.10108726154E+01  0.93800000000E+00 0. -1.
         22    1    1    2    0    0  0.25528787634E+00 -0.12033711565E+00  0.30827030981E+01  0.30955954697E+01  0.00000000000E+00 0. -1.
</event>
<event>
 5    1  0.6440325E+001  0.1593682E+01  0.7818608E-02  0.3360250E+00
         11   -1    0    0    0    0  0.00000000000E+00  0.00000000000E+00  0.39999999674E+01  0.40000000000E+01  0.51100000000E-03 0. -1.
    9000002   -1    0    0    0    0 -0.00000000000E+00 -0.00000000000E+00  0.00000000000E+00  0.93800000000E+00  0.93800000000E+00 0.  1.
         11    1    1    2    0    0  0.14955129342E-01  0.10839198253E+00  0.45363787632E+00  0.46664768479E+00  0.51100000000E-03 0. -1.
    9000002    1    1    2    0    0  0.10569607645E+00 -0.45868714361E+00  0.15624139956E+00  0.10610470919E+01  0.93800000000E+00 0.  1.
         22    1    1    2    0    0 -0.12065120579E+00  0.35029516107E+00  0.33901206915E+01  0.34103052233E+01  0.00000000000E+00 0. -1.
</event>
<event>
 5    1  0.6440325E+001  0.1599648E+01  0.7818608E-02  0.3353745E+00
         11   -1    0    0    0    0  0.00000000000E+00  0.00000000000E+00  0.39999999674E+01  0.40000000000E+01  0.51100000000E-03 0.  1.
    9000002   -1    0    0    0    0 -0.00000000000E+00 -0.00000000000E+00  0.00000000000E+00  0.93800000000E+00  0.93800000000E+00 0.  1.
         11    1    1    2    0    0 -0.60805289136E-01  0.11251967549E+00  0.10987960324E+01  0.11062146910E+01  0.51100000000E-03 0.  1.
    9000002    1    1    2    0    0  0.20579780944E+00 -0.37804918187E+00  0.12550633372E+00  0.10396488648E+01  0.93800000000E+00 0.  1.
         22    1    1    2    0    0 -0.14499252031E+00  0.26552950638E+00  0.27756976012E+01  0.27921364442E+01  0.00000000000E+00 0.  1.
</event>
<event>
 5    1  0.6440325E+001  0.1517182E+01  0.7818608E-02  0.3448467E+00
         11   -1    0    0    0    0  0.00000000000E+00  0.00000000000E+00  0.39999999674E+01  0.40000000000E+01  0.51100000000E-03 0. -1.
    9000002   -1    0    0    0    0 -0.00000000000E+00 -0.00000000000E+00  0.00000000000E+00  0.93800000000E+00  0.93800000000E+00 0.  1.
         11    1    1    2    0    0  0.87622702615E-01 -0.19272919678E+00  0.48274134039E+00  0.52712592817E+00  0.51100000000E-03 0. -1.
    9000002    1    1    2    0    0  0.22571510023E+00 -0.54019232040E-01  0.10115396690E+00  0.97156652316E+00  0.93800000000E+00 0.  1.
         22    1    1    2    0    0 -0.31333780285E+00  0.24674842882E+00  0.34161046601E+01  0.34393075487E+01  0.00000000000E+00 0. -1.
</event>
<event>
 5    1  0.6440325E+001  0.1596708E+01  0.7818608E-02  0.3356945E+00
         11   -1    0    0    0    0  0.00000000000E+00  0.00000000000E+00  0.39999999674E+01  0.40000000000E+01  0.51100000000E-03 0. -1.
    9000002   -1    0    0    0    0 -0.00000000000E+00 -0.00000000000E+00  0.00000000000E+00  0.93800000000E+00  0.93800000000E+00 0.  1.
         11    1    1    2    0    0 -0.86009290924E-01 -0.12199026284E-01  0.46637638671E+00  0.47439815511E+00  0.51100000000E-03 0. -1.
    9000002    1    1    2    0    0  0.42081510439E+00  0.31096676305E+00  0.19091275603E+00  0.10909066689E+01  0.93800000000E+00 0.  1.
         22    1    1    2    0    0 -0.33480581346E+00 -0.29876773676E+00  0.33427108246E+01  0.33726951760E+01  0.00000000000E+00 0. -1.
</event>
<event>
 5    1  0.6440325E+001  0.1586949E+01  0.7818608E-02  0.3367651E+00
         11   -1    0    0    0    0  0.00000000000E+00  0.00000000000E+00  0.39999999674E+01  0.40000000000E+01  0.51100000000E-03 0.  1.
    9000002   -1    0    0    0    0 -0.00000000000E+00 -0.00000000000E+00  0.00000000000E+00  0.93800000000E+00  0.93800000000E+00 0. -1.
         11    1    1    2    0    0  0.23481250053E-01 -0.28919567359E-01  0.10754403966E+01  0.10760855069E+01  0.51100000000E-03 0.  1.
    9000002    1    1    2    0    0  0.30005499475E+00  0.31402880706E+00  0.13877729352E+00  0.10429526493E+01  0.93800000000E+00 0. -1.
         22    1    1    2    0    0 -0.32353624480E+00 -0.28510923970E+00  0.27857822773E+01  0.28189618438E+01  0.00000000000E+00 0.  1.
</event>
<event>
 5    1  0.6440325E+001  0.1599642E+01  0.7818608E-02  0.3353753E+00
         11   -1    0    0    0    0  0.00000000000E+00  0.00000000000E+00  0.39999999674E+01  0.40000000000E+01  0.51100000000E-03 0. -1.
    9000002   -1    0    0    0    0 -0.00000000000E+00 -0.00000000000E+00  0.00000000000E+00  0.93800000000E+00  0.93800000000E+00 0. -1.
         11    1    1    2    0    0  0.11438625453E-01  0.10369586291E-01  0.12352773698E+00  0.12448989275E+00  0.51100000000E-03 0. -1.
    9000002    1    1    2    0    0 -0.40393410552E+00 -0.26219781033E+00  0.15830798033E+00  0.10662156770E+01  0.93800000000E+00 0. -1.
         22    1    1    2    0    0  0.39249548007E+00  0.25182822404E+00  0.37181642500E+01  0.37472944302E+01  0.00000000000E+00 0. -1.
</event>
<event>
 5    1  0.6440325E+001  0.1556138E+01  0.7818608E-02  0.3402391E+00
         11   -1    0    0    0    0  0.00000000000E+00  0.00000000000E+00  0.39999999674E+01  0.40000000000E+01  0.51100000000E-03 0. -1.
    9000002   -1    0    0    0    0 -0.00000000000E+00 -0.00000000000E+00  0.00000000000E+00  0.93800000000E+00  0.93800000000E+00 0. -1.
         11    1    1    2    0    0  0.54310483308E-01 -0.15577436953E+00  0.31084025342E+00  0.35190511089E+00  0.51100000000E-03 0. -1.
    9000002    1    1    2    0    0  0.17805546401E+00  0.39199572515E+00  0.16357269543E+00  0.10449710156E+01  0.93800000000E+00 0. -1.
         22    1    1    2    0    0 -0.23236594732E+00 -0.23622135562E+00  0.35255870185E+01  0.35411238735E+01  0.00000000000E+00 0. -1.
</event>
<event>
 5    1  0.6440325E+001  0.1599550E+01  0.7818608E-02  0.3353852E+00
         11   -1    0    0    0    0  0.00000000000E+00  0.00000000000E+00  0.39999999674E+01  0.40000000000E+01  0.51100000000E-03 0.  1.
    9000002   -1    0    0    0    0 -0.00000000000E+00 -0.00000000000E+00  0.00000000000E+00  0.93800000000E+00  0.93800000000E+00 0.  1.
         11    1    1    2    0    0  0.24371440638E-01  0.86463736766E-01  0.73718964718E+00  0.74264310535E+00  0.51100000000E-03 0.  1.
    9000002    1    1    2    0    0 -0.14999165390E+00 -0.49774760022E+00  0.18575087540E+00  0.10883921892E+01  0.93800000000E+00 0.  1.
         22    1    1    2    0    0  0.12562021327E+00  0.41128386345E+00  0.30770594448E+01  0.31069647055E+01  0.00000000000E+00 0.  1.
</event>
<event>
 5    1  0.6440325E+001  0.1599406E+01  0.7818608E-02  0.3354008E+00
         11   -1    0    0    0    0  0.00000000000E+00  0.00000000000E+00  0.39999999674E+01  0.40000000000E+01  0.51100000000E-03 0.  1.
    9000002   -1    0    0    0    0 -0.00000000000E+00 -0.00000000000E+00  0.00000000000E+00  0.93800000000E+00  0.93800000000E+00 0. -1.
         11    1    1    2    0    0 -0.16278297558E+00 -0.80742971067E-01  0.14670418158E+01  0.14782522366E+01  0.51100000000E-03 0.  1.
    9000002    1    1    2    0    0  0.37895445117E+00  0.22000687100E+00  0.13041829538E+00  0.10434857120E+01  0.93800000000E+00 0. -1.
         22    1    1    2    0    0 -0.21617147559E+00 -0.13926389994E+00  0.24025398561E+01  0.24162620514E+01  0.00000000000E+00 0.  1.
</event>
<event>
 5    1  0.6440325E+001  0.1599671E+01  0.7818608E-02  0.3353721E+00
         11   -1    0    0    0    0  0.00000000000E+00  0.00000000000E+00  0.39999999674E+01  0.40000000000E+01  0.51100000000E-03 0. -1.
    9000002   -1    0    0    0    0 -0.00000000000E+00 -0.00000000000E+00  0.00000000000E+00  0.93800000000E+00  0.93800000000E+00 0. -1.
         11    1    1    2    0    0 -0.85939910961E-01  0.15718058459E+00  0.14690808715E+01  0.14799629295E+01  0.51100000000E-03 0. -1.
    9000002    1    1    2    0    0  0.21813010494E+00 -0.41002749430E+00  0.14682598381E+00  0.10569319554E+01  0.93800000000E+00 0. -1.
         22    1    1    2    0    0 -0.13219019398E+00  0.25284690971E+00  0.23840931120E+01  0.24011051151E+01  0.00000000000E+00 0. -1.
</event>
<event>
 5    1  0.9027854E+001  0.1562092E+01  0.7818608E-02  0.3395564E+00
         11   -1    0    0    0    0  0.00000000000E+00  0.00000000000E+00  0.39999999674E+01  0.40000000000E+01  0.51100000000E-03 0.  1.
    9000002   -1    0    0    0    0 -0.00000000000E+00 -0.00000000000E+00  0.00000000000E+00  0.93800000000E+00  0.93800000000E+00 0. -1.
         11    1    1    2    0    0 -0.78094041461E-01 -0.16472137316E+00  0.12405154364E+01  0.12538383545E+01  0.51100000000E-03 0.  1.
    9000002    1    1    2    0    0 -0.19271373482E+00 -0.53558046462E-02  0.53237015045E-01  0.95908573548E+00  0.93800000000E+00 0. -1.
         22    1    1    2    0    0  0.27080777628E+00  0.17007717781E+00  0.27062475159E+01  0.27250759100E+01  0.00000000000E+00 0.  1.
</event>
<event>
 5    1  0.6440325E+001  0.1599676E+01  0.7818608E-02  0.3353715E+00
         11   -1    0    0    0    0  0.00000000000E+00  0.00000000000E+00  0.39999999674E+01  0.40000000000E+01  0.51100000000E-03 0.  1.
    9000002   -1    0    0    0    0 -0.00000000000E+00 -0.00000000000E+00  0.00000000000E+00  0.93800000000E+00  0.93800000000E+00 0. -1.
         11    1    1    2    0    0 -0.72423816515E-01  0.96944553574E-01  0.93039050413E+00  0.93822716171E+00  0.51100000000E-03 0.  1.
    9000002    1    1    2    0    0  0.29500322647E+00 -0.40099869385E+00  0.16959027055E+00  0.10753751513E+01  0.93800000000E+00 0. -1.
         22    1    1    2    0    0 -0.22257940996E+00  0.30405414028E+00  0.29000191927E+01  0.29243976870E+01  0.00000000000E+00 0.  1.
</event>
<event>
 5    1  0.6440325E+001  0.1560035E+01  0.7818608E-02  0.3397916E+00
         11   -1    0    0    0    0  0.00000000000E+00  0.00000000000E+00  0.39999999674E+01  0.40000000000E+01  0.51100000000E-03 0.  1.
    9000002   -1    0    0    0    0 -0.00000000000E+00 -0.00000000000E+00  0.00000000000E+00  0.93800000000E+00  0.93800000000E+00 0.  1.
         11    1    1    2    0    0 -0.45484915643E-01  0.18249626330E+00  0.42456516463E+00  0.46435934771E+00  0.51100000000E-03 0.  1.
    9000002    1    1    2    0    0 -0.18313656678E+00 -0.39066874347E+00  0.16066525292E+00  0.10449011402E+01  0.93800000000E+00 0.  1.
         22    1    1    2    0    0  0.22862148242E+00  0.20817248018E+00  0.34147695498E+01  0.34287395121E+01  0.00000000000E+00 0.  1.
</event>
<event>
 5    1  0.6440325E+001  0.1596565E+01  0.7818608E-02  0.3357100E+00
         11   -1    0    0    0    0  0.00000000000E+00  0.00000000000E+00  0.39999999674E+01  0.40000000000E+01  0.51100000000E-03 0.  1.
    9000002   -1    0    0    0    0 -0.00000000000E+00 -0.00000000000E+00  0.00000000000E+00  0.93800000000E+00  0.93800000000E+00 0. -1.
         11    1    1    2    0    0  0.42491827821E-01 -0.22693126280E+00  0.12562057809E+01  0.12772457002E+01  0.51100000000E-03 0.  1.
    9000002    1    1    2    0    0 -0.30737144992E+00  0.64731364965E+00  0.37222623850E+00  0.12376948501E+01  0.93800000000E+00 0. -1.
         22    1    1    2    0    0  0.26487962210E+00 -0.42038238686E+00  0.23715679479E+01  0.24230594498E+01  0.00000000000E+00 0.  1.
</event>
<event>
 5    1  0.6440325E+001  0.1598631E+01  0.7818608E-02  0.3354850E+00
         11   -1    0    0    0    0  0.00000000000E+00  0.00000000000E+00  0.39999999674E+01  0.40000000000E+01  0.51100000000E-03 0.  1.
    9000002   -1    0    0    0    0 -0.00000000000E+00 -0.00000000000E+00  0.00000000000E+00  0.93800000000E+00  0.93800000000E+00 0. -1.
         11    1    1    2    0    0  0.91944936020E-01 -0.23894326452E-01  0.86134088472E+00  0.86656401432E+00  0.51100000000E-03 0.  1.
    9000002    1    1    2    0    0 -0.51710296373E+00  0.11693541303E-01  0.18464038396E+00  0.10869536721E+01  0.93800000000E+00 0. -1.
         22    1    1    2    0    0  0.42515802771E+00  0.12200785149E-01  0.29540186987E+01  0.29844823135E+01  0.00000000000E+00 0.  1.
</event>
<event>
 5    1  0.6440325E+001  0.1599658E+01  0.7818608E-02  0.3353734E+00
         11   -1    0    0    0    0  0.00000000000E+00  0.00000000000E+00  0.39999999674E+01  0.40000000000E+01  0.51100000000E-03 0. -1.
    9000002   -1    0    0    0    0 -0.00000000000E+00 -0.00000000000E+00  0.00000000000E+00  0.93800000000E+00  0.93800000000E+00 0. -1.
         11    1    1    2    0    0 -0.11154513487E-01  0.10063510614E+00  0.72439052944E+00  0.73143266814E+00  0.51100000000E-03 0. -1.
    9000002    1    1    2    0    0  0.37626027604E-01 -0.53228206907E+00  0.19608824660E+00  0.10968293028E+01  0.93800000000E+00 0. -1.
         22    1    1    2    0    0 -0.26471514117E-01  0.43164696293E+00  0.30795211913E+01  0.31097380291E+01  0.00000000000E+00 0. -1.
</event>
<event>
 5    1  0.6440325E+001  0.1598960E+01  0.7818608E-02  0.3354493E+00
         11   -1    0    0    0    0  0.00000000000E+00  0.00000000000E+00  0.39999999674E+01  0.40000000000E+01  0.51100000000E-03 0.  1.
    9000002   -1    0    0    0    0 -0.00000000000E+00 -0.00000000000E+00  0.00000000000E+00  0.93800000000E+00  0.93800000000E+00 0.  1.
         11    1    1    2    0    0  0.41159256795E-01 -0.45664122465E-01  0.43568111501E+00  0.43999726317E+00  0.51100000000E-03 0.  1.
    9000002    1    1    2    0    0 -0.21424961025E+00  0.31138393413E+00  0.96688078220E-01  0.10159012917E+01  0.93800000000E+00 0.  1.
         22    1    1    2    0    0  0.17309035345E+00 -0.26571981166E+00  0.34676307741E+01  0.34821014452E+01  0.00000000000E+00 0.  1.
</event>
<event>
 5    1  0.6440325E+001  0.1599665E+01  0.7818608E-02  0.3353728E+00
         11   -1    0    0    0    0  0.00000000000E+00  0.00000000000E+00  0.39999999674E+01  0.40000000000E+01  0.51100000000E-03 0. -1.
    9000002   -1    0    0    0    0 -0.00000000000E+00 -0.00000000000E+00  0.00000000000E+00  0.93800000000E+00  0.93800000000E+00 0. -1.
         11    1    1    2    0    0  0.72678982246E-02 -0.10927306295E-02  0.50424423891E-01  0.50959788565E-01  0.51100000000E-03 0. -1.
    9000002    1    1    2    0    0 -0.49118261961E+00  0.65299665611E-01  0.16796031890E+00  0.10740479882E+01  0.93800000000E+00 0. -1.
         22    1    1    2    0    0  0.48391472138E+00 -0.64206934982E-01  0.37816152246E+01  0.38129922233E+01  0.00000000000E+00 0. -1.
</event>
<event>
 5    1  0.6440325E+001  0.1599677E+01  0.7818608E-02  0.3353714E+00
         11   -1    0    0    0    0  0.00000000000E+00  0.00000000000E+00  0.39999999674E+01  0.40000000000E+01  0.51100000000E-03 0. -1.
    9000002   -1    0    0    0    0 -0.00000000000E+00 -0.00000000000E+00  0.00000000000E+00  0.93800000000E+00  0.93800000000E+00 0. -1.
         11    1    1    2    0    0  0.67586725729E-01 -0.20260940042E+00  0.14108480588E+01  0.14269236282E+01  0.51100000000E-03 0. -1.
    9000002    1    1    2    0    0 -0.18102309839E+00  0.54086703533E+00  0.22558127690E+00  0.11207307547E+01  0.93800000000E+00 0. -1.
         22    1    1    2    0    0  0.11343637266E+00 -0.33825763491E+00  0.23635706317E+01  0.23903456171E+01  0.00000000000E+00 0. -1.
</event>
<event>
 5    1  0.1135612E+002  0.1591169E+01  0.7818608E-02  0.3363005E+00
         11   -1    0    0    0    0  0.00000000000E+00  0.00000000000E+00  0.39999999674E+01  0.40000000000E+01  0.51100000000E-03 0. -1.
    9000002   -1    0    0    0    0 -0.00000000000E+00 -0.00000000000E+00  0.00000000000E+00  0.93800000000E+00  0.93800000000E+00 0.  1.
         11    1    1    2    0    0  0.26183216068E-01  0.29433741736E-01  0.14886679243E+01  0.14891891606E+01  0.51100000000E-03 0. -1.
    9000002    1    1    2    0    0  0.21537823535E+00 -0.10271979282E+00  0.44290838850E-01  0.96888844482E+00  0.93800000000E+00 0.  1.
         22    1    1    2    0    0 -0.24156145141E+00  0.73286051081E-01  0.24670412042E+01  0.24799223946E+01  0.00000000000E+00 0. -1.
</event>
<event>
 5    1  0.6440325E+001  0.1599675E+01  0.7818608E-02  0.3353717E+00
         11   -1    0    0    0    0  0.00000000000E+00  0.00000000000E+00  0.39999999674E+01  0.40000000000E+01  0.51100000000E-03 0.  1.
    9000002   -1    0    0    0    0 -0.00000000000E+00 -0.00000000000E+00  0.00000000000E+00  0.93800000000E+00  0.93800000000E+00 0. -1.
         11    1    1    2    0    0  0.48310136682E-01  0.73224740701E-01  0.81314768453E+00  0.81786621762E+00  0.51100000000E-03 0.  1.
    9000002    1    1    2    0    0 -0.22923387714E+00 -0.34293841334E+00  0.11496251277E+00  0.10311233220E+01  0.93800000000E+00 0. -1.
         22    1    1    2    0    0  0.18092374045E+00  0.26971367264E+00  0.30718897701E+01  0.30890104604E+01  0.00000000000E+00 0.  1.
</event>
<event>
 5    1  0.6440325E+001  0.1563547E+01  0.7818608E-02  0.3393904E+00
         11   -1    0    0    0    0  0.00000000000E+00  0.00000000000E+00  0.39999999674E+01  0.40000000000E+01  0.51100000000E-03 0.  1.
    9000002   -1    0    0    0    0 -0.00000000000E+00 -0.00000000000E+00  0.00000000000E+00  0.93800000000E+00  0.93800000000E+00 0. -1.
         11    1    1    2    0    0 -0.11442264619E-01 -0.15778851379E+00  0.55555019010E+00  0.57763692346E+00  0.51100000000E-03 0.  1.
    9000002    1    1    2    0    0  0.28215760493E+00 -0.68064141894E-03  0.81597064691E-01  0.98291172455E+00  0.93800000000E+00 0. -1.
         22    1    1    2    0    0 -0.27071534031E+00  0.15846915521E+00  0.33628527126E+01  0.33774513520E+01  0.00000000000E+00 0.  1.
</event>
<event>
 5    1  0.6440325E+001  0.1577118E+01  0.7818608E-02  0.3378579E+00
         11   -1    0    0    0    0  0.00000000000E+00  0.00000000000E+00  0.39999999674E+01  0.40000000000E+01  0.51100000000E-03 0. -1.
    9000002   -1    0    0    0    0 -0.00000000000E+00 -0.00000000000E+00  0.00000000000E+00  0.93800000000E+00  0.93800000000E+00 0.  1.
         11    1    1    2    0    0 -0.68139645518E-01 -0.10608663816E+00  0.49154679919E+00  0.50746024771E+00  0.51100000000E-03 0. -1.
    9000002    1    1    2    0    0 -0.26833349560E+00  0.32613970397E+00  0.13999954644E+00  0.10381781371E+01  0.93800000000E+00 0.  1.
         22    1    1    2    0    0  0.33647314112E+00 -0.22005306581E+00  0.33684536217E+01  0.33923616152E+01  0.00000000000E+00 0. -1.
</event>
<event>
 5    1  0.6440325E+001  0.1598069E+01  0.7818608E-02  0.3355462E+00
         11   -1    0    0    0    0  0.00000000000E+00  0.00000000000E+00  0.39999999674E+01  0.40000000000E+01  0.51100000000E-03 0. -1.
    9000002   -1    0    0    0    0 -0.00000000000E+00 -0.00000000000E+00  0.00000000000E+00  0.93800000000E+00  0.93800000000E+00 0. -1.
         11    1    1    2    0    0 -0.13670155136E+00 -0.30396789864E-02  0.89326326345E+00  0.90366812091E+00  0.51100000000E-03 0. -1.
    9000002    1    1    2    0    0  0.42671649280E+00  0.76092078290E-01  0.12867079387E+00  0.10412862924E+01  0.93800000000E+00 0. -1.
         22    1    1    2    0    0 -0.29001494143E+00 -0.73052399303E-01  0.29780659100E+01  0.29930455867E+01  0.00000000000E+00 0. -1.
</event>
<event>
 5    1  0.6440325E+001  0.1599676E+01  0.7818608E-02  0.3353715E+00
         11   -1    0    0    0    0  0.00000000000E+00  0.00000000000E+00  0.39999999674E+01  0.40000000000E+01  0.51100000000E-03 0.  1.
    9000002   -1    0    0    0    0 -0.00000000000E+00 -0.00000000000E+00  0.00000000000E+00  0.93800000000E+00  0.93800000000E+00 0.  1.
         11    1    1    2    0    0 -0.35264840994E-01 -0.53237339321E-01  0.51022795136E+00  0.51420875797E+00  0.51100000000E-03 0.  1.
    9000002    1    1    2    0    0  0.26962369202E+00  0.40467325815E+00  0.16150304885E+00  0.10688239406E+01  0.93800000000E+00 0.  1.
         22    1    1    2    0    0 -0.23435885102E+00 -0.35143591883E+00  0.33282689672E+01  0.33549673015E+01  0.00000000000E+00 0.  1.
</event>
<event>
 5    1  0.6440325E+001  0.1599624E+01  0.7818608E-02  0.3353771E+00
         11   -1    0    0    0    0  0.00000000000E+00  0.00000000000E+00  0.39999999674E+01  0.40000000000E+01  0.51100000000E-03 0.  1.
    9000002   -1    0    0    0    0 -0.00000000000E+00 -0.00000000000E+00  0.00000000000E+00  0.93800000000E+00  0.93800000000E+00 0. -1.
         11    1    1    2    0    0  0.18567193048E-01  0.38980421928E-01  0.41182755622E+00  0.41408502887E+00  0.51100000000E-03 0.  1.
    9000002    1    1    2    0    0 -0.13338547110E+00 -0.34237793574E+00  0.90750738490E-01  0.10114811077E+01  0.93800000000E+00 0. -1.
         22    1    1    2    0    0  0.11481827805E+00  0.30339751381E+00  0.34974216726E+01  0.35124338634E+01  0.00000000000E+00 0.  1.
</event>
<event>
 5    1  0.6440325E+001  0.1566439E+01  0.7818608E-02  0.3390614E+00
         11   -1    0    0    0    0  0.00000000000E+00  0.00000000000E+00  0.39999999674E+01  0.40000000000E+01  0.51100000000E-03 0. -1.
    9000002   -1    0    0    0    0 -0.00000000000E+00 -0.00000000000E+00  0.00000000000E+00  0.93800000000E+00  0.93800000000E+00 0. -1.
         11    1    1    2    0    0 -0.32155339956E-01 -0.11767190588E+00  0.10172260399E+01  0.10245143828E+01  0.51100000000E-03 0. -1.
    9000002    1    1    2    0    0 -0.60476811708E-01 -0.26441479978E+00  0.75058576850E-01  0.97931119725E+00  0.93800000000E+00 0. -1.
         22    1    1    2    0    0  0.92632151663E-01  0.38208670566E+00  0.29077153506E+01  0.29341744199E+01  0.00000000000E+00 0. -1.
</event>
<event>
 5    1  0.6440325E+001  0.1583707E+01  0.7818608E-02  0.3371240E+00
         11   -1    0    0    0    0  0.00000000000E+00  0.00000000000E+00  0.39999999674E+01  0.40000000000E+01  0.51100000000E-03 0. -1.
    9000002   -1    0    0    0    0 -0.00000000000E+00 -0.00000000000E+00  0.00000000000E+00  0.93800000000E+00  0.93800000000E+00 0. -1.
         11    1    1    2    0    0 -0.82785048841E-01 -0.93499881868E-02  0.42109648945E+00  0.42925901404E+00  0.51100000000E-03 0. -1.
    9000002    1    1    2    0    0 -0.22457076515E-02 -0.33032207230E+00  0.85831379014E-01  0.99816268227E+00  0.93800000000E+00 0. -1.
         22    1    1    2    0    0  0.85030756493E-01  0.33967206049E+00  0.34930720989E+01  0.35105783037E+01  0.00000000000E+00 0. -1.
</event>
<event>
 5    1  0.6440325E+001  0.1599670E+01  0.7818608E-02  0.3353722E+00
         11   -1    0    0    0    0  0.00000000000E+00  0.00000000000E+00  0.39999999674E+01  0.40000000000E+01  0.51100000000E-03 0.  1.
    9000002   -1    0    0    0    0 -0.00000000000E+00 -0.00000000000E+00  0.00000000000E+00  0.93800000000E+00  0.93800000000E+00 0. -1.
         11    1    1    2    0    0 -0.10140584777E+00  0.21524985103E-01  0.10657989187E+01  0.10708286824E+01  0.51100000000E-03 0.  1.
    9000002    1    1    2    0    0  0.36403386956E+00 -0.71632352505E-01  0.92524368075E-01  0.10129445250E+01  0.93800000000E+00 0. -1.
         22    1    1    2    0    0 -0.26262802179E+00  0.50107367403E-01  0.28416766806E+01  0.28542267925E+01  0.00000000000E+00 0.  1.
</event>
<event>
 5    1  0.6440325E+001  0.1599017E+01  0.7818608E-02  0.3354430E+00
         11   -1    0    0    0    0  0.00000000000E+00  0.00000000000E+00  0.39999999674E+01  0.40000000000E+01  0.51100000000E-03 0. -1.
    9000002   -1    0    0    0    0 -0.00000000000E+00 -0.00000000000E+00  0.00000000000E+00  0.93800000000E+00  0.93800000000E+00 0. -1.
         11    1    1    2    0    0 -0.74212668694E-01  0.30507457138E-01  0.10849918338E+01  0.10879548547E+01  0.51100000000E-03 0. -1.
    9000002    1    1    2    0    0  0.36426736429E+00 -0.86398821401E-01  0.94778047101E-01  0.10143876711E+01  0.93800000000E+00 0. -1.
         22    1    1    2    0    0 -0.29005469560E+00  0.55891364262E-01  0.28202300864E+01  0.28356574743E+01  0.00000000000E+00 0. -1.
</event>
<event>
 5    1  0.6440325E+001  0.1478157E+01  0.7818608E-02  0.3497243E+00
         11   -1    0    0    0    0  0.00000000000E+00  0.00000000000E+00  0.39999999674E+01  0.40000000000E+01  0.51100000000E-03 0. -1.
    9000002   -1    0    0    0    0 -0.00000000000E+00 -0.00000000000E+00  0.00000000000E+00  0.93800000000E+00  0.93800000000E+00 0. -1.
         11    1    1    2    0    0 -0.26405240186E+00  0.77568438319E-01  0.52814418073E+00  0.59554770616E+00  0.51100000000E-03 0. -1.
    9000002    1    1    2    0    0 -0.92334678210E-01  0.13215682597E+00  0.11322951400E+00  0.95846546223E+00  0.93800000000E+00 0. -1.
         22    1    1    2    0    0  0.35638708007E+00 -0.20972526429E+00  0.33586262726E+01  0.33839868316E+01  0.00000000000E+00 0. -1.
</event>
<event>
 5    1  0.6440325E+001  0.1599664E+01  0.7818608E-02  0.3353729E+00
         11   -1    0    0    0    0  0.00000000000E+00  0.00000000000E+00  0.39999999674E+01  0.40000000000E+01  0.51100000000E-03 0. -1.
    9000002   -1    0    0    0    0 -0.00000000000E+00 -0.00000000000E+00  0.00000000000E+00  0.93800000000E+00  0.93800000000E+00 0. -1.
         11    1    1    2    0    0  0.13583706512E-01  0.84357328274E-01  0.71597738780E+00  0.72105794281E+00  0.51100000000E-03 0. -1.
    9000002    1    1    2    0    0 -0.64506916016E-01 -0.43926227464E+00  0.13376924031E+00  0.10463511350E+01  0.93800000000E+00 0. -1.
         22    1    1    2    0    0  0.50923209504E-01  0.35490494637E+00  0.31502533392E+01  0.31705909222E+01  0.00000000000E+00 0. -1.
</event>
<event>
 5    1  0.6440325E+001  0.1599647E+01  0.7818608E-02  0.3353747E+00
         11   -1    0    0    0    0  0.00000000000E+00  0.00000000000E+00  0.39999999674E+01  0.40000000000E+01  0.51100000000E-03 0.  1.
    9000002   -1    0    0    0    0 -0.00000000000E+00 -0.00000000000E+00  0.00000000000E+00  0.93800000000E+00  0.93800000000E+00 0. -1.
         11    1    1    2    0    0  0.59285951072E-01  0.72916477989E-01  0.87555840567E+00  0.88058754228E+00  0.51100000000E-03 0.  1.
    9000002    1    1    2    0    0 -0.23927013055E+00 -0.32820343688E+00  0.11138787379E+00  0.10282115297E+01  0.93800000000E+00 0. -1.
         22    1    1    2    0    0  0.17998417948E+00  0.25528695890E+00  0.30130536879E+01  0.30292009280E+01  0.00000000000E+00 0.  1.
</event>
<event>
 5    1  0.6440325E+001  0.1599676E+01  0.7818608E-02  0.3353715E+00
         11   -1    0    0    0    0  0.00000000000E+00  0.00000000000E+00  0.39999999674E+01  0.40000000000E+01  0.51100000000E-03 0. -1.
    9000002   -1    0    0    0    0 -0.00000000000E+00 -0.00000000000E+00  0.00000000000E+00  0.93800000000E+00  0.93800000000E+00 0.  1.
         11    1    1    2    0    0 -0.50500295851E-01 -0.24079044151E-01  0.38270214637E+00  0.38677031195E+00  0.51100000000E-03 0.  1.
    9000002    1    1    2    0    0  0.50146925951E+00  0.24347857736E+00  0.21494506937E+00  0.11121144809E+01  0.93800000000E+00 0.  1.
         22    1    1    2    0    0 -0.45096896365E+00 -0.21939953321E+00  0.34023527516E+01  0.34391152071E+01  0.00000000000E+00 0. -1.
</event>
<event>
 5    1  0.6440325E+001  0.1590804E+01  0.7818608E-02  0.3363405E+00
         11   -1    0    0    0    0  0.00000000000E+00  0.00000000000E+00  0.39999999674E+01  0.40000000000E+01  0.51100000000E-03 0. -1.
    9000002   -1    0    0    0    0 -0.00000000000E+00 -0.00000000000E+00  0.00000000000E+00  0.93800000000E+00  0.93800000000E+00 0.  1.
         11    1    1    2    0    0 -0.25531753940E+00 -0.73534000114E-01  0.81069061095E+00  0.85312005187E+00  0.51100000000E-03 0. -1.
    9000002    1    1    2    0    0  0.72099820913E+00  0.18549142229E+00  0.41177282973E+00  0.12663515897E+01  0.93800000000E+00 0.  1.
         22    1    1    2    0    0 -0.46568066973E+00 -0.11195742218E+00  0.27775365267E+01  0.28185283585E+01  0.00000000000E+00 0. -1.
</event>
<event>
 5    1  0.6440325E+001  0.1599677E+01  0.7818608E-02  0.3353714E+00
         11   -1    0    0    0    0  0.00000000000E+00  0.00000000000E+00  0.39999999674E+01  0.40000000000E+01  0.51100000000E-03 0.  1.
    9000002   -1    0    0    0    0 -0.00000000000E+00 -0.00000000000E+00  0.00000000000E+00  0.93800000000E+00  0.93800000000E+00 0. -1.
         11    1    1    2    0    0 -0.98245508656E-01 -0.12078190535E+00  0.13209961620E+01  0.13301396806E+01  0.51100000000E-03 0.  1.
    9000002    1    1    2    0    0  0.28743772057E+00  0.35465509519E+00  0.14167988190E+00  0.10527667684E+01  0.93800000000E+00 0. -1.
         22    1    1    2    0    0 -0.18919221191E+00 -0.23387318985E+00  0.25373239234E+01  0.25550935510E+01  0.00000000000E+00 0.  1.
</event>
<event>
 5    1  0.6440325E+001  0.1599671E+01  0.7818608E-02  0.3353720E+00
         11   -1    0    0    0    0  0.00000000000E+00  0.00000000000E+00  0.39999999674E+01  0.40000000000E+01  0.51100000000E-03 0. -1.
    9000002   -1    0    0    0    0 -0.00000000000E+00 -0.00000000000E+00  0.00000000000E+00  0.93800000000E+00  0.93800000000E+00 0.  1.
         11    1    1    2    0    0 -0.21166563176E-02  0.12843180150E-01  0.10174181753E+00  0.10257234552E+00  0.51100000000E-03 0. -1.
    9000002    1    1    2    0    0  0.55129228782E-01 -0.47000302359E+00  0.15264113351E+00  0.10616427788E+01  0.93800000000E+00 0.  1.
         22    1    1    2    0    0 -0.53012572464E-01  0.45715984344E+00  0.37456170163E+01  0.37737848757E+01  0.00000000000E+00 0. -1.
</event>
<event>
 5    1  0.6440325E+001  0.1598270E+01  0.7818608E-02  0.3355243E+00
         11   -1    0    0    0    0  0.00000000000E+00  0.00000000000E+00  0.39999999674E+01  0.40000000000E+01  0.51100000000E-03 0. -1.
    9000002   -1    0    0    0    0 -0.00000000000E+00 -0.00000000000E+00  0.00000000000E+00  0.93800000000E+00  0.93800000000E+00 0. -1.
         11    1    1    2    0    0 -0.12358802614E-01 -0.35233033098E-02  0.23514995928E+00  0.23550141855E+00  0.51100000000E-03 0. -1.
    9000002    1    1    2    0    0  0.44510960983E+00 -0.19961157767E+00  0.16382883510E+00  0.10698837479E+01  0.93800000000E+00 0. -1.
         22    1    1    2    0    0 -0.43275080722E+00  0.20313488098E+00  0.36010211730E+01  0.36326148336E+01  0.00000000000E+00 0. -1.
</event>
<event>
 5    1  0.6440325E+001  0.1599541E+01  0.7818608E-02  0.3353862E+00
         11   -1    0    0    0    0  0.00000000000E+00  0.00000000000E+00  0.39999999674E+01  0.40000000000E+01  0.51100000000E-03 0. -1.
    9000002   -1    0    0    0    0 -0.00000000000E+00 -0.00000000000E+00  0.00000000000E+00  0.93800000000E+00  0.93800000000E+00 0.  1.
         11    1    1    2    0    0 -0.26437436838E-01 -0.39780496941E-02  0.29642280876E+00  0.29762645316E+00  0.51100000000E-03 0. -1.
    9000002    1    1    2    0    0  0.40119458416E+00  0.13275005228E+00  0.12093210935E+00  0.10358804206E+01  0.93800000000E+00 0.  1.
         22    1    1    2    0    0 -0.37475714732E+00 -0.12877200259E+00  0.35826450492E+01  0.36044931262E+01  0.00000000000E+00 0. -1.
</event>
<event>
 5    1  0.6440325E+001  0.1594125E+01  0.7818608E-02  0.3359765E+00
         11   -1    0    0    0    0  0.00000000000E+00  0.00000000000E+00  0.39999999674E+01  0.40000000000E+01  0.51100000000E-03 0.  1.
    9000002   -1    0    0    0    0 -0.00000000000E+00 -0.00000000000E+00  0.00000000000E+00  0.93800000000E+00  0.93800000000E+00 0. -1.
         11    1    1    2    0    0  0.44842059988E-01  0.33038389908E-01  0.51693642556E+00  0.51992872083E+00  0.51100000000E-03 0.  1.
    9000002    1    1    2    0    0 -0.33992810585E+00  0.20939817705E+00  0.11213868936E+00  0.10255816883E+01  0.93800000000E+00 0. -1.
         22    1    1    2    0    0  0.29508604586E+00 -0.24243656696E+00  0.33709248524E+01  0.33924895909E+01  0.00000000000E+00 0.  1.
</event>
<event>
 5    1  0.6440325E+001  0.1599664E+01  0.7818608E-02  0.3353728E+00
         11   -1    0    0    0    0  0.00000000000E+00  0.00000000000E+00  0.39999999674E+01  0.40000000000E+01  0.51100000000E-03 0.  1.
    9000002   -1    0    0    0    0 -0.00000000000E+00 -0.00000000000E+00  0.00000000000E+00  0.93800000000E+00  0.93800000000E+00 0. -1.
         11    1    1    2    0    0  0.24562686739E-01  0.11190919602E-01  0.21382527491E+00  0.21552278666E+00  0.51100000000E-03 0. -1.
    9000002    1    1    2    0    0 -0.45499131752E+00 -0.23032987941E+00  0.17834521153E+00  0.10824601456E+01  0.93800000000E+00 0. -1.
         22    1    1    2    0    0  0.43042863078E+00  0.21913895981E+00  0.36078294809E+01  0.36400170677E+01  0.00000000000E+00 0.  1.
</event>
<event>
 5    1  0.6440325E+001  0.1599636E+01  0.7818608E-02  0.3353758E+00
         11   -1    0    0    0    0  0.00000000000E+00  0.00000000000E+00  0.39999999674E+01  0.40000000000E+01  0.51100000000E-03 0. -1.
    9000002   -1    0    0    0    0 -0.00000000000E+00 -0.00000000000E+00  0.00000000000E+00  0.93800000000E+00  0.93800000000E+00 0. -1.
         11    1    1    2    0    0  0.42556523504E-01 -0.29459535786E-01  0.51385909921E+00  0.51645944362E+00  0.51100000000E-03 0. -1.
    9000002    1    1    2    0    0 -0.32452854666E+00  0.18447345282E+00  0.93717909653E-01  0.10138916505E+01  0.93800000000E+00 0. -1.
         22    1    1    2    0    0  0.28197202316E+00 -0.15501391703E+00  0.33924229585E+01  0.34076489059E+01  0.00000000000E+00 0. -1.
</event>
<event>
 5    1  0.6440325E+001  0.1599665E+01  0.7818608E-02  0.3353727E+00
         11   -1    0    0    0    0  0.00000000000E+00  0.00000000000E+00  0.39999999674E+01  0.40000000000E+01  0.51100000000E-03 0. -1.
    9000002   -1    0    0    0    0 -0.00000000000E+00 -0.00000000000E+00  0.00000000000E+00  0.93800000000E+00  0.93800000000E+00 0.  1.
         11    1    1    2    0    0  0.10237098435E+00 -0.55849327789E-01  0.94223968314E+00  0.94942869530E+00  0.51100000000E-03 0. -1.
    9000002    1    1    2    0    0 -0.40977661464E+00  0.21695493300E+00  0.14632553948E+00  0.10565232985E+01  0.93800000000E+00 0.  1.
         22    1    1    2    0    0  0.30740563028E+00 -0.16110560521E+00  0.29114347447E+01  0.29320480062E+01  0.00000000000E+00 0. -1.
</event>
<event>
 5    1  0.6440325E+001  0.1599675E+01  0.7818608E-02  0.3353716E+00
         11   -1    0    0    0    0  0.00000000000E+00  0.00000000000E+00  0.39999999674E+01  0.40000000000E+01  0.51100000000E-03 0.  1.
    9000002   -1    0    0    0    0 -0.00000000000E+00 -0.00000000000E+00  0.00000000000E+00  0.93800000000E+00  0.93800000000E+00 0. -1.
         11    1    1    2    0    0  0.53524047563E-01 -0.10494650050E+00  0.80121274585E+00  0.80982758465E+00  0.51100000000E-03 0.  1.
    9000002    1    1    2    0    0 -0.25732193846E+00  0.49186928520E+00  0.21304909576E+00  0.11105781787E+01  0.93800000000E+00 0. -1.
         22    1    1    2    0    0  0.20379789090E+00 -0.38692278470E+00  0.29857381258E+01  0.30175942367E+01  0.00000000000E+00 0.  1.
</event>
<event>
 5    1  0.6440325E+001  0.1599541E+01  0.7818608E-02  0.3353862E+00
         11   -1    0    0    0    0  0.00000000000E+00  0.00000000000E+00  0.39999999674E+01  0.40000000000E+01  0.51100000000E-03 0.  1.
    9000002   -1    0    0    0    0 -0.00000000000E+00 -0.00000000000E+00  0.00000000000E+00  0.93800000000E+00  0.93800000000E+00 0. -1.
         11    1    1    2    0    0  0.44634006997E-01 -0.24437185766E-01  0.63109011855E+00  0.63313850734E+00  0.51100000000E-03 0.  1.
    9000002    1    1    2    0    0 -0.33938568136E+00  0.16178945265E+00  0.95176902348E-01  0.10150177882E+01  0.93800000000E+00 0. -1.
         22    1    1    2    0    0  0.29475167436E+00 -0.13735226688E+00  0.32737329465E+01  0.32898437044E+01  0.00000000000E+00 0.  1.
</event>
<event>
 5    1  0.6440325E+001  0.1599649E+01  0.7818608E-02  0.3353744E+00
         11   -1    0    0    0    0  0.00000000000E+00  0.00000000000E+00  0.39999999674E+01  0.40000000000E+01  0.51100000000E-03 0. -1.
    9000002   -1    0    0    0    0 -0.00000000000E+00 -0.00000000000E+00  0.00000000000E+00  0.93800000000E+00  0.93800000000E+00 0. -1.
         11    1    1    2    0    0 -0.75144793697E-01  0.91784622889E-01  0.13224572223E+01  0.13277667427E+01  0.51100000000E-03 0. -1.
    9000002    1    1    2    0    0  0.23978900192E+00 -0.27458429741E+00  0.89276853961E-01  0.10103017660E+01  0.93800000000E+00 0. -1.
         22    1    1    2    0    0 -0.16464420822E+00  0.18279967452E+00  0.25882658911E+01  0.25999314912E+01  0.00000000000E+00 0. -1.
</event>
<event>
 5    1  0.6440325E+001  0.1599597E+01  0.7818608E-02  0.3353801E+00
         11   -1    0    0    0    0  0.00000000000E+00  0.00000000000E+00  0.39999999674E+01  0.40000000000E+01  0.51100000000E-03 0. -1.
    9000002   -1    0    0    0    0 -0.00000000000E+00 -0.00000000000E+00  0.00000000000E+00  0.93800000000E+00  0.93800000000E+00 0. -1.
         11    1    1    2    0    0 -0.23190070261E-01 -0.28817121319E-02  0.22822205483E+00  0.22941589102E+00  0.51100000000E-03 0. -1.
    9000002    1    1    2    0    0  0.38602597601E+00 -0.36343856229E-01  0.10131483602E+00  0.10200223655E+01  0.93800000000E+00 0. -1.
         22    1    1    2    0    0 -0.36283590575E+00  0.39225568361E-01  0.36704630765E+01  0.36885617435E+01  0.00000000000E+00 0. -1.
</event>
<event>
 5    1  0.6440325E+001  0.1599666E+01  0.7818608E-02  0.3353726E+00
         11   -1    0    0    0    0  0.00000000000E+00  0.00000000000E+00  0.39999999674E+01  0.40000000000E+01  0.51100000000E-03 0. -1.
    9000002   -1    0    0    0    0 -0.00000000000E+00 -0.00000000000E+00  0.00000000000E+00  0.93800000000E+00  0.93800000000E+00 0.  1.
         11    1    1    2    0    0  0.11666637535E+00  0.24761511522E-01  0.96916736832E+00  0.97647827653E+00  0.51100000000E-03 0. -1.
    9000002    1    1    2    0    0 -0.45081253568E+00 -0.10174434722E+00  0.14533653088E+00  0.10557227675E+01  0.93800000000E+00 0.  1.
         22    1    1    2    0    0  0.33414616033E+00  0.76982835701E-01  0.28854960682E+01  0.29057989560E+01  0.00000000000E+00 0. -1.
</event>
<event>
 5    1  0.6440325E+001  0.1599490E+01  0.7818608E-02  0.3353917E+00
         11   -1    0    0    0    0  0.00000000000E+00  0.00000000000E+00  0.39999999674E+01  0.40000000000E+01  0.51100000000E-03 0.  1.
    9000002   -1    0    0    0    0 -0.00000000000E+00 -0.00000000000E+00  0.00000000000E+00  0.93800000000E+00  0.93800000000E+00 0.  1.
         11    1    1    2    0    0 -0.13275975454E-01 -0.90114600556E-02  0.11822956955E+00  0.11931450111E+00  0.51100000000E-03 0. -1.
    9000002    1    1    2    0    0  0.25156201876E+00  0.30593995957E+00  0.10592280609E+00  0.10236925071E+01  0.93800000000E+00 0.  1.
         22    1    1    2    0    0 -0.23828604331E+00 -0.29692849951E+00  0.37758475917E+01  0.37949929918E+01  0.00000000000E+00 0.  1.
</event>
<event>
 5    1  0.6440325E+001  0.1546715E+01  0.7818608E-02  0.3413308E+00
         11   -1    0    0    0    0  0.00000000000E+00  0.00000000000E+00  0.39999999674E+01  0.40000000000E+01  0.51100000000E-03 0.  1.
    9000002   -1    0    0    0    0 -0.00000000000E+00 -0.00000000000E+00  0.00000000000E+00  0.93800000000E+00  0.93800000000E+00 0. -1.
         11    1    1    2    0    0  0.86932777047E-01  0.45745079058E-01  0.76683517558E-01  0.12462159913E+00  0.51100000000E-03 0.  1.
    9000002    1    1    2    0    0 -0.43776777110E+00  0.16065416612E-02  0.17673182535E+00  0.10501053949E+01  0.93800000000E+00 0. -1.
         22    1    1    2    0    0  0.35083499405E+00 -0.47351620720E-01  0.37465846244E+01  0.37632730059E+01  0.00000000000E+00 0.  1.
</event>
<event>
 5    1  0.6440325E+001  0.1599670E+01  0.7818608E-02  0.3353722E+00
         11   -1    0    0    0    0  0.00000000000E+00  0.00000000000E+00  0.39999999674E+01  0.40000000000E+01  0.51100000000E-03 0. -1.
    9000002   -1    0    0    0    0 -0.00000000000E+00 -0.00000000000E+00  0.00000000000E+00  0.93800000000E+00  0.93800000000E+00 0. -1.
         11    1    1    2    0    0 -0.30332891490E-01 -0.91945267233E-02  0.32641631105E+00  0.32795196732E+00  0.51100000000E-03 0. -1.
    9000002    1    1    2    0    0  0.34370133468E+00  0.10346892951E+00  0.86478520538E-01  0.10080471027E+01  0.93800000000E+00 0. -1.
         22    1    1    2    0    0 -0.31336844319E+00 -0.94274402784E-01  0.35871051358E+01  0.36020009299E+01  0.00000000000E+00 0. -1.
</event>
<event>
 5    1  0.6440325E+001  0.1599374E+01  0.7818608E-02  0.3354043E+00
         11   -1    0    0    0    0  0.00000000000E+00  0.00000000000E+00  0.39999999674E+01  0.40000000000E+01  0.51100000000E-03 0. -1.
    9000002   -1    0    0    0    0 -0.00000000000E+00 -0.00000000000E+00  0.00000000000E+00  0.93800000000E+00  0.93800000000E+00 0. -1.
         11    1    1    2    0    0  0.99781644923E-01 -0.27911369254E-01  0.10382954367E+01  0.10434524888E+01  0.51100000000E-03 0. -1.
    9000002    1    1    2    0    0 -0.43440346722E+00  0.13202409738E+00  0.14035110573E+00  0.10515127995E+01  0.93800000000E+00 0. -1.
         22    1    1    2    0    0  0.33462182230E+00 -0.10411272812E+00  0.28213534249E+01  0.28430347118E+01  0.00000000000E+00 0. -1.
</event>
<event>
 5    1  0.6440325E+001  0.1599673E+01  0.7818608E-02  0.3353718E+00
         11   -1    0    0    0    0  0.00000000000E+00  0.00000000000E+00  0.39999999674E+01  0.40000000000E+01  0.51100000000E-03 0.  1.
    9000002   -1    0    0    0    0 -0.00000000000E+00 -0.00000000000E+00  0.00000000000E+00  0.93800000000E+00  0.93800000000E+00 0.  1.
         11    1    1    2    0    0  0.94339550158E-01 -0.89850938001E-01  0.13258876004E+01  0.13322729945E+01  0.51100000000E-03 0.  1.
    9000002    1    1    2    0    0 -0.28203384075E+00  0.25955595495E+00  0.98891290956E-01  0.10181040558E+01  0.93800000000E+00 0.  1.
         22    1    1    2    0    0  0.18769429059E+00 -0.16970501695E+00  0.25752210760E+01  0.25876229497E+01  0.00000000000E+00 0.  1.
</event>
<event>
 5    1  0.6440325E+001  0.1599232E+01  0.7818608E-02  0.3354197E+00
         11   -1    0    0    0    0  0.00000000000E+00  0.00000000000E+00  0.39999999674E+01  0.40000000000E+01  0.51100000000E-03 0.  1.
    9000002   -1    0    0    0    0 -0.00000000000E+00 -0.00000000000E+00  0.00000000000E+00  0.93800000000E+00  0.93800000000E+00 0. -1.
         11    1    1    2    0    0 -0.98328762669E-01  0.16612213279E+00  0.14669003104E+01  0.14795478669E+01  0.51100000000E-03 0.  1.
    9000002    1    1    2    0    0  0.19437280208E+00 -0.42422510953E+00  0.14865185942E+00  0.10581536302E+01  0.93800000000E+00 0. -1.
         22    1    1    2    0    0 -0.96044039409E-01  0.25810297674E+00  0.23844477975E+01  0.24002985029E+01  0.00000000000E+00 0.  1.
</event>
<event>
 5    1  0.6440325E+001  0.1599672E+01  0.7818608E-02  0.3353720E+00
         11   -1    0    0    0    0  0.00000000000E+00  0.00000000000E+00  0.39999999674E+01  0.40000000000E+01  0.51100000000E-03 0. -1.
    9000002   -1    0    0    0    0 -0.00000000000E+00 -0.00000000000E+00  0.00000000000E+00  0.93800000000E+00  0.93800000000E+00 0. -1.
         11    1    1    2    0    0 -0.13248662144E-01 -0.75579577227E-01  0.84295859448E+00  0.84644388631E+00  0.51100000000E-03 0. -1.
    9000002    1    1    2    0    0  0.51740934793E-01  0.35471464788E+00  0.86246205045E-01  0.10078601161E+01  0.93800000000E+00 0. -1.
         22    1    1    2    0    0 -0.38492272649E-01 -0.27913507065E+00  0.30707951678E+01  0.30836959976E+01  0.00000000000E+00 0. -1.
</event>
<event>
 5    1  0.6440325E+001  0.1599128E+01  0.7818608E-02  0.3354311E+00
         11   -1    0    0    0    0  0.00000000000E+00  0.00000000000E+00  0.39999999674E+01  0.40000000000E+01  0.51100000000E-03 0.  1.
    9000002   -1    0    0    0    0 -0.00000000000E+00 -0.00000000000E+00  0.00000000000E+00  0.93800000000E+00  0.93800000000E+00 0.  1.
         11    1    1    2    0    0 -0.28143762328E+00  0.91685046621E-01  0.11069461250E+01  0.11458373656E+01  0.51100000000E-03 0.  1.
    9000002    1    1    2    0    0  0.90932788670E+00 -0.30206015873E+00  0.72312292092E+00  0.15234396292E+01  0.93800000000E+00 0.  1.
         22    1    1    2    0    0 -0.62789026342E+00  0.21037511211E+00  0.21699309214E+01  0.22687230052E+01  0.00000000000E+00 0.  1.
</event>
<event>
 5    1  0.6440325E+001  0.1599560E+01  0.7818608E-02  0.3353842E+00
         11   -1    0    0    0    0  0.00000000000E+00  0.00000000000E+00  0.39999999674E+01  0.40000000000E+01  0.51100000000E-03 0.  1.
    9000002   -1    0    0    0    0 -0.00000000000E+00 -0.00000000000E+00  0.00000000000E+00  0.93800000000E+00  0.93800000000E+00 0. -1.
         11    1    1    2    0    0  0.13850134017E-01 -0.65118314429E-01  0.52182955875E+00  0.52605947438E+00  0.51100000000E-03 0.  1.
    9000002    1    1    2    0    0 -0.56903689475E-01  0.43489698537E+00  0.13054145646E+00  0.10436754714E+01  0.93800000000E+00 0. -1.
         22    1    1    2    0    0  0.43053555457E-01 -0.36977867095E+00  0.33476289522E+01  0.33682650542E+01  0.00000000000E+00 0.  1.
</event>
<event>
 5    1  0.6440325E+001  0.1599249E+01  0.7818608E-02  0.3354179E+00
         11   -1    0    0    0    0  0.00000000000E+00  0.00000000000E+00  0.39999999674E+01  0.40000000000E+01  0.51100000000E-03 0.  1.
    9000002   -1    0    0    0    0 -0.00000000000E+00 -0.00000000000E+00  0.00000000000E+00  0.93800000000E+00  0.93800000000E+00 0. -1.
         11    1    1    2    0    0 -0.22716330920E-01  0.81403940906E-02  0.38342237179E+00  0.38418130357E+00  0.51100000000E-03 0.  1.
    9000002    1    1    2    0    0  0.38195340026E+00 -0.76850729469E-01  0.10260768808E+00  0.10208656975E+01  0.93800000000E+00 0. -1.
         22    1    1    2    0    0 -0.35923706934E+00  0.68710335378E-01  0.35139699075E+01  0.35329529990E+01  0.00000000000E+00 0.  1.
</event>
<event>
 5    1  0.6440325E+001  0.1568896E+01  0.7818608E-02  0.3387831E+00
         11   -1    0    0    0    0  0.00000000000E+00  0.00000000000E+00  0.39999999674E+01  0.40000000000E+01  0.51100000000E-03 0.  1.
    9000002   -1    0    0    0    0 -0.00000000000E+00 -0.00000000000E+00  0.00000000000E+00  0.93800000000E+00  0.93800000000E+00 0. -1.
         11    1    1    2    0    0 -0.11420755844E+00 -0.91975846718E-01  0.14525567588E+01  0.14599398349E+01  0.51100000000E-03 0.  1.
    9000002    1    1    2    0    0 -0.23787509361E+00  0.17980482104E+00  0.83777534545E-01  0.98781425841E+00  0.93800000000E+00 0. -1.
         22    1    1    2    0    0  0.35208265205E+00 -0.87828974320E-01  0.24636656740E+01  0.24902459067E+01  0.00000000000E+00 0.  1.
</event>
<event>
 5    1  0.6440325E+001  0.1532989E+01  0.7818608E-02  0.3429469E+00
         11   -1    0    0    0    0  0.00000000000E+00  0.00000000000E+00  0.39999999674E+01  0.40000000000E+01  0.51100000000E-03 0. -1.
    9000002   -1    0    0    0    0 -0.00000000000E+00 -0.00000000000E+00  0.00000000000E+00  0.93800000000E+00  0.93800000000E+00 0.  1.
         11    1    1    2    0    0  0.19470019463E+00  0.18506569033E+00  0.81897805677E+00  0.86190648803E+00  0.51100000000E-03 0. -1.
    9000002    1    1    2    0    0 -0.22229854870E+00  0.10652147329E+00  0.93094612966E-01  0.97430697215E+00  0.93800000000E+00 0.  1.
         22    1    1    2    0    0  0.27598354073E-01 -0.29158716362E+00  0.30879272976E+01  0.31017865398E+01  0.00000000000E+00 0. -1.
</event>
<event>
 5    1  0.6440325E+001  0.1599235E+01  0.7818608E-02  0.3354194E+00
         11   -1    0    0    0    0  0.00000000000E+00  0.00000000000E+00  0.39999999674E+01  0.40000000000E+01  0.51100000000E-03 0. -1.
    9000002   -1    0    0    0    0 -0.00000000000E+00 -0.00000000000E+00  0.00000000000E+00  0.93800000000E+00  0.93800000000E+00 0.  1.
         11    1    1    2    0    0 -0.26957526450E-01 -0.10515367381E-04  0.16757471588E+00  0.16972994688E+00  0.51100000000E-03 0. -1.
    9000002    1    1    2    0    0  0.39870788243E+00 -0.77773969056E-01  0.11176625259E+00  0.10282764516E+01  0.93800000000E+00 0.  1.
         22    1    1    2    0    0 -0.37175035598E+00  0.77784484424E-01  0.37206589989E+01  0.37399936015E+01  0.00000000000E+00 0. -1.
</event>
<event>
 5    1  0.6440325E+001  0.1599667E+01  0.7818608E-02  0.3353725E+00
         11   -1    0    0    0    0  0.00000000000E+00  0.00000000000E+00  0.39999999674E+01  0.40000000000E+01  0.51100000000E-03 0. -1.
    9000002   -1    0    0    0    0 -0.00000000000E+00 -0.00000000000E+00  0.00000000000E+00  0.93800000000E+00  0.93800000000E+00 0. -1.
         11    1    1    2    0    0 -0.15397027192E-01  0.70713849013E-01  0.74303457018E+00  0.74655083584E+00  0.51100000000E-03 0. -1.
    9000002    1    1    2    0    0  0.91707409454E-01 -0.36060756093E+00  0.93073368368E-01  0.10133877411E+01  0.93800000000E+00 0. -1.
         22    1    1    2    0    0 -0.76310382263E-01  0.28989371192E+00  0.31638920288E+01  0.31780614230E+01  0.00000000000E+00 0. -1.
</event>
<event>
 5    1  0.6440325E+001  0.1509794E+01  0.7818608E-02  0.3457493E+00
         11   -1    0    0    0    0  0.00000000000E+00  0.00000000000E+00  0.39999999674E+01  0.40000000000E+01  0.51100000000E-03 0. -1.
    9000002   -1    0    0    0    0 -0.00000000000E+00 -0.00000000000E+00  0.00000000000E+00  0.93800000000E+00  0.93800000000E+00 0. -1.
         11    1    1    2    0    0 -0.64503257154E-01  0.17337717491E+00  0.29066662551E+00  0.34453978474E+00  0.51100000000E-03 0. -1.
    9000002    1    1    2    0    0  0.27833691210E+00  0.24565308788E+00  0.17001982402E+00  0.10230188741E+01  0.93800000000E+00 0. -1.
         22    1    1    2    0    0 -0.21383365495E+00 -0.41903026278E+00  0.35393135178E+01  0.35704413412E+01  0.00000000000E+00 0. -1.
</event>
<event>
 5    1  0.6440325E+001  0.1599568E+01  0.7818608E-02  0.3353833E+00
         11   -1    0    0    0    0  0.00000000000E+00  0.00000000000E+00  0.39999999674E+01  0.40000000000E+01  0.51100000000E-03 0.  1.
    9000002   -1    0    0    0    0 -0.00000000000E+00 -0.00000000000E+00  0.00000000000E+00  0.93800000000E+00  0.93800000000E+00 0.  1.
         11    1    1    2    0    0 -0.12475082071E+00 -0.13052562880E+00  0.83534479919E+00  0.85463495231E+00  0.51100000000E-03 0.  1.
    9000002    1    1    2    0    0  0.52028863510E+00  0.52100088087E+00  0.39154968113E+00  0.12551084951E+01  0.93800000000E+00 0.  1.
         22    1    1    2    0    0 -0.39553781438E+00 -0.39047525206E+00  0.27731054870E+01  0.28282565526E+01  0.00000000000E+00 0. -1.
</event>
<event>
 5    1  0.6440325E+001  0.1599072E+01  0.7818608E-02  0.3354371E+00
         11   -1    0    0    0    0  0.00000000000E+00  0.00000000000E+00  0.39999999674E+01  0.40000000000E+01  0.51100000000E-03 0. -1.
    9000002   -1    0    0    0    0 -0.00000000000E+00 -0.00000000000E+00  0.00000000000E+00  0.93800000000E+00  0.93800000000E+00 0.  1.
         11    1    1    2    0    0  0.14126963058E+00 -0.12179654638E+00  0.11479540966E+01  0.11630091901E+01  0.51100000000E-03 0. -1.
    9000002    1    1    2    0    0 -0.38599093029E+00  0.36509596754E+00  0.19485899908E+00  0.10954898874E+01  0.93800000000E+00 0.  1.
         22    1    1    2    0    0  0.24472129971E+00 -0.24329942117E+00  0.26571868717E+01  0.26795009226E+01  0.00000000000E+00 0. -1.
</event>
<event>
 5    1  0.6440325E+001  0.1546356E+01  0.7818608E-02  0.3413727E+00
         11   -1    0    0    0    0  0.00000000000E+00  0.00000000000E+00  0.39999999674E+01  0.40000000000E+01  0.51100000000E-03 0. -1.
    9000002   -1    0    0    0    0 -0.00000000000E+00 -0.00000000000E+00  0.00000000000E+00  0.93800000000E+00  0.93800000000E+00 0.  1.
         11    1    1    2    0    0  0.17047412948E+00  0.13226511175E+00  0.11571098530E+01  0.11770552076E+01  0.51100000000E-03 0. -1.
    9000002    1    1    2    0    0  0.35747164017E-01  0.15245928294E+00  0.56708511535E-01  0.95267074479E+00  0.93800000000E+00 0.  1.
         22    1    1    2    0    0 -0.20622129350E+00 -0.28472439469E+00  0.27861816028E+01  0.28082740477E+01  0.00000000000E+00 0. -1.
</event>
<event>
 5    1  0.6440325E+001  0.1579060E+01  0.7818608E-02  0.3376409E+00
         11   -1    0    0    0    0  0.00000000000E+00  0.00000000000E+00  0.39999999674E+01  0.40000000000E+01  0.51100000000E-03 0.  1.
    9000002   -1    0    0    0    0 -0.00000000000E+00 -0.00000000000E+00  0.00000000000E+00  0.93800000000E+00  0.93800000000E+00 0.  1.
         11    1    1    2    0    0 -0.68857371594E-01  0.21128023180E+00  0.12039503868E+01  0.12242865143E+01  0.51100000000E-03 0.  1.
    9000002    1    1    2    0    0 -0.17589482995E+00 -0.35204324107E+00  0.12165871917E+00  0.10244599937E+01  0.93800000000E+00 0.  1.
         22    1    1    2    0    0  0.24475220154E+00  0.14076300927E+00  0.26743908614E+01  0.26892534920E+01  0.00000000000E+00 0. -1.
</event>
<event>
 5    1  0.6440325E+001  0.1506866E+01  0.7818608E-02  0.3461096E+00
         11   -1    0    0    0    0  0.00000000000E+00  0.00000000000E+00  0.39999999674E+01  0.40000000000E+01  0.51100000000E-03 0. -1.
    9000002   -1    0    0    0    0 -0.00000000000E+00 -0.00000000000E+00  0.00000000000E+00  0.93800000000E+00  0.93800000000E+00 0. -1.
         11    1    1    2    0    0  0.24280355852E+00 -0.19035062853E+00  0.63359116528E+00  0.70471622349E+00  0.51100000000E-03 0. -1.
    9000002    1    1    2    0    0  0.61690843226E-01  0.43363455745E+00  0.21430187825E+00  0.10571726371E+01  0.93800000000E+00 0. -1.
         22    1    1    2    0    0 -0.30449440175E+00 -0.24328392892E+00  0.31521069238E+01  0.31761111394E+01  0.00000000000E+00 0. -1.
</event>
<event>
 5    1  0.6440325E+001  0.1599665E+01  0.7818608E-02  0.3353727E+00
         11   -1    0    0    0    0  0.00000000000E+00  0.00000000000E+00  0.39999999674E+01  0.40000000000E+01  0.51100000000E-03 0. -1.
    9000002   -1    0    0    0    0 -0.00000000000E+00 -0.00000000000E+00  0.00000000000E+00  0.93800000000E+00  0.93800000000E+00 0. -1.
         11    1    1    2    0    0  0.25962501860E-01 -0.11873941658E-01  0.28187746369E+00  0.28331997397E+00  0.51100000000E-03 0. -1.
    9000002    1    1    2    0    0 -0.34046045654E+00  0.14293415052E+00  0.91629664667E-01  0.10122171157E+01  0.93800000000E+00 0. -1.
         22    1    1    2    0    0  0.31449795468E+00 -0.13106020886E+00  0.36264928390E+01  0.36424629103E+01  0.00000000000E+00 0. -1.
</event>
<event>
 5    1  0.6440325E+001  0.1589009E+01  0.7818608E-02  0.3365380E+00
         11   -1    0    0    0    0  0.00000000000E+00  0.00000000000E+00  0.39999999674E+01  0.40000000000E+01  0.51100000000E-03 0.  1.
    9000002   -1    0    0    0    0 -0.00000000000E+00 -0.00000000000E+00  0.00000000000E+00  0.93800000000E+00  0.93800000000E+00 0. -1.
         11    1    1    2    0    0  0.68617652997E-01  0.90100928382E-01  0.14627260290E+01  0.14671040375E+01  0.51100000000E-03 0.  1.
    9000002    1    1    2    0    0 -0.27218563615E+00  0.68787418874E-01  0.60803763539E-01  0.98099838286E+00  0.93800000000E+00 0. -1.
         22    1    1    2    0    0  0.20356798315E+00 -0.15888834726E+00  0.24764701748E+01  0.24898975797E+01  0.00000000000E+00 0.  1.
</event>
<event>
 5    1  0.6440325E+001  0.1599676E+01  0.7818608E-02  0.3353715E+00
         11   -1    0    0    0    0  0.00000000000E+00  0.00000000000E+00  0.39999999674E+01  0.40000000000E+01  0.51100000000E-03 0.  1.
    9000002   -1    0    0    0    0 -0.00000000000E+00 -0.00000000000E+00  0.00000000000E+00  0.93800000000E+00  0.93800000000E+00 0.  1.
         11    1    1    2    0    0  0.19192461720E+00 -0.69737644406E-01  0.94685924640E+00  0.96862845887E+00  0.51100000000E-03 0.  1.
    9000002    1    1    2    0    0 -0.72482056941E+00  0.26480882387E+00  0.43459487801E+00  0.12900408052E+01  0.93800000000E+00 0.  1.
         22    1    1    2    0    0  0.53289595221E+00 -0.19507117947E+00  0.26185458430E+01  0.26793307359E+01  0.00000000000E+00 0.  1.
</event>
<event>
 5    1  0.6440325E+001  0.1584073E+01  0.7818608E-02  0.3370834E+00
         11   -1    0    0    0    0  0.00000000000E+00  0.00000000000E+00  0.39999999674E+01  0.40000000000E+01  0.51100000000E-03 0.  1.
    9000002   -1    0    0    0    0 -0.00000000000E+00 -0.00000000000E+00  0.00000000000E+00  0.93800000000E+00  0.93800000000E+00 0.  1.
         11    1    1    2    0    0  0.45201104492E-01  0.57175656540E-01  0.98745703364E+00  0.99014334818E+00  0.51100000000E-03 0.  1.
    9000002    1    1    2    0    0  0.33542752707E+00 -0.17700382808E+00  0.10968754619E+00  0.10177019892E+01  0.93800000000E+00 0.  1.
         22    1    1    2    0    0 -0.38062863156E+00  0.11982817154E+00  0.29028553875E+01  0.29301546626E+01  0.00000000000E+00 0.  1.
</event>
<event>
 5    1  0.6440325E+001  0.1599323E+01  0.7818608E-02  0.3354098E+00
         11   -1    0    0    0    0  0.00000000000E+00  0.00000000000E+00  0.39999999674E+01  0.40000000000E+01  0.51100000000E-03 0. -1.
    9000002   -1    0    0    0    0 -0.00000000000E+00 -0.00000000000E+00  0.00000000000E+00  0.93800000000E+00  0.93800000000E+00 0.  1.
         11    1    1    2    0    0 -0.17193319882E+00  0.35460402968E+00  0.11781587548E+01  0.12423217600E+01  0.51100000000E-03 0. -1.
    9000002    1    1    2    0    0  0.43338831644E+00 -0.90570859595E+00  0.81360958145E+00  0.15968525432E+01  0.93800000000E+00 0.  1.
         22    1    1    2    0    0 -0.26145511763E+00  0.55110456627E+00  0.20082316311E+01  0.20988256968E+01  0.00000000000E+00 0. -1.
</event>
<event>
 5    1  0.6440325E+001  0.1599640E+01  0.7818608E-02  0.3353754E+00
         11   -1    0    0    0    0  0.00000000000E+00  0.00000000000E+00  0.39999999674E+01  0.40000000000E+01  0.51100000000E-03 0.  1.
    9000002   -1    0    0    0    0 -0.00000000000E+00 -0.00000000000E+00  0.00000000000E+00  0.93800000000E+00  0.93800000000E+00 0.  1.
         11    1    1    2    0    0 -0.15704089094E-01  0.99366133253E-03  0.16788309498E+00  0.16861969184E+00  0.51100000000E-03 0.  1.
    9000002    1    1    2    0    0  0.42840717556E+00 -0.41088703284E-01  0.12547663803E+00  0.10396198230E+01  0.93800000000E+00 0.  1.
         22    1    1    2    0    0 -0.41270308646E+00  0.40095041952E-01  0.37066402344E+01  0.37297604852E+01  0.00000000000E+00 0.  1.
</event>
<event>
 5    1  0.6440325E+001  0.1594296E+01  0.7818608E-02  0.3359578E+00
         11   -1    0    0    0    0  0.00000000000E+00  0.00000000000E+00  0.39999999674E+01  0.40000000000E+01  0.51100000000E-03 0. -1.
    9000002   -1    0    0    0    0 -0.00000000000E+00 -0.00000000000E+00  0.00000000000E+00  0.93800000000E+00  0.93800000000E+00 0. -1.
         11    1    1    2    0    0 -0.22975295089E-01 -0.25085209569E-02  0.12834901105E+01  0.12836982829E+01  0.51100000000E-03 0. -1.
    9000002    1    1    2    0    0  0.57751870322E-01  0.26203539232E+00  0.52055118352E-01  0.97701154584E+00  0.93800000000E+00 0. -1.
         22    1    1    2    0    0 -0.34776575233E-01 -0.25952687136E+00  0.26644547386E+01  0.26772901712E+01  0.00000000000E+00 0. -1.
</event>
<event>
 5    1  0.6440325E+001  0.1598562E+01  0.7818608E-02  0.3354926E+00
         11   -1    0    0    0    0  0.00000000000E+00  0.00000000000E+00  0.39999999674E+01  0.40000000000E+01  0.51100000000E-03 0. -1.
    9000002   -1    0    0    0    0 -0.00000000000E+00 -0.00000000000E+00  0.00000000000E+00  0.93800000000E+00  0.93800000000E+00 0. -1.
         11    1    1    2    0    0 -0.68375968715E-01  0.30934941887E-01  0.46244390483E+00  0.46849425819E+00  0.51100000000E-03 0. -1.
    9000002    1    1    2    0    0  0.35272394340E+00 -0.25551266955E+00  0.12952549880E+00  0.10422676045E+01  0.93800000000E+00 0. -1.
         22    1    1    2    0    0 -0.28434797468E+00  0.22457772767E+00  0.34080305637E+01  0.34272381373E+01  0.00000000000E+00 0. -1.
</event>
<event>
 5    1  0.6440325E+001  0.1599633E+01  0.7818608E-02  0.3353762E+00
         11   -1    0    0    0    0  0.00000000000E+00  0.00000000000E+00  0.39999999674E+01  0.40000000000E+01  0.51100000000E-03 0. -1.
    9000002   -1    0    0    0    0 -0.00000000000E+00 -0.00000000000E+00  0.00000000000E+00  0.93800000000E+00  0.93800000000E+00 0. -1.
         11    1    1    2    0    0 -0.17045347779E+00  0.55949531811E-01  0.13788505818E+01  0.13904725550E+01  0.51100000000E-03 0. -1.
    9000002    1    1    2    0    0  0.45382381078E+00 -0.15972583603E+00  0.15800223921E+00  0.10659629926E+01  0.93800000000E+00 0. -1.
         22    1    1    2    0    0 -0.28337033299E+00  0.10377630422E+00  0.24631471464E+01  0.24815644524E+01  0.00000000000E+00 0. -1.
</event>
<event>
 5    1  0.6440325E+001  0.1599139E+01  0.7818608E-02  0.3354299E+00
         11   -1    0    0    0    0  0.00000000000E+00  0.00000000000E+00  0.39999999674E+01  0.40000000000E+01  0.51100000000E-03 0.  1.
    9000002   -1    0    0    0    0 -0.00000000000E+00 -0.00000000000E+00  0.00000000000E+00  0.93800000000E+00  0.93800000000E+00 0.  1.
         11    1    1    2    0    0  0.57086927611E-01  0.10794350962E+00  0.10622955098E+01  0.10692907602E+01  0.51100000000E-03 0.  1.
    9000002    1    1    2    0    0 -0.23080159959E+00 -0.30732845031E+00  0.99887800317E-01  0.10185979223E+01  0.93800000000E+00 0.  1.
         22    1    1    2    0    0  0.17371467198E+00  0.19938494069E+00  0.28378166572E+01  0.28501113174E+01  0.00000000000E+00 0.  1.
</event>
<event>
 5    1  0.6440325E+001  0.1598880E+01  0.7818608E-02  0.3354580E+00
         11   -1    0    0    0    0  0.00000000000E+00  0.00000000000E+00  0.39999999674E+01  0.40000000000E+01  0.51100000000E-03 0. -1.
    9000002   -1    0    0    0    0 -0.00000000000E+00 -0.00000000000E+00  0.00000000000E+00  0.93800000000E+00  0.93800000000E+00 0. -1.
         11    1    1    2    0    0 -0.13281738610E+00 -0.17328043283E+00  0.10025464461E+01  0.10260439582E+01  0.51100000000E-03 0. -1.
    9000002    1    1    2    0    0  0.45242651942E+00  0.70809459125E+00  0.52873197304E+00  0.13658291273E+01  0.93800000000E+00 0. -1.
         22    1    1    2    0    0 -0.31960913331E+00 -0.53481415842E+00  0.24687215482E+01  0.25461269145E+01  0.00000000000E+00 0. -1.
</event>
<event>
 5    1  0.6440325E+001  0.1599165E+01  0.7818608E-02  0.3354270E+00
         11   -1    0    0    0    0  0.00000000000E+00  0.00000000000E+00  0.39999999674E+01  0.40000000000E+01  0.51100000000E-03 0. -1.
    9000002   -1    0    0    0    0 -0.00000000000E+00 -0.00000000000E+00  0.00000000000E+00  0.93800000000E+00  0.93800000000E+00 0.  1.
         11    1    1    2    0    0  0.14728087729E+00  0.19745722718E-01  0.12410520781E+01  0.12499168261E+01  0.51100000000E-03 0. -1.
    9000002    1    1    2    0    0 -0.48811685418E+00  0.10666509315E-01  0.16331827470E+00  0.10699947180E+01  0.93800000000E+00 0.  1.
         22    1    1    2    0    0  0.34083597689E+00 -0.30412232033E-01  0.25956296146E+01  0.26180884559E+01  0.00000000000E+00 0. -1.
</event>
<event>
 5    1  0.6440325E+001  0.1599623E+01  0.7818608E-02  0.3353772E+00
         11   -1    0    0    0    0  0.00000000000E+00  0.00000000000E+00  0.39999999674E+01  0.40000000000E+01  0.51100000000E-03 0. -1.
    9000002   -1    0    0    0    0 -0.00000000000E+00 -0.00000000000E+00  0.00000000000E+00  0.93800000000E+00  0.93800000000E+00 0. -1.
         11    1    1    2    0    0  0.36677859618E-01 -0.39654488421E-01  0.26641983402E+00  0.27184100669E+00  0.51100000000E-03 0. -1.
    9000002    1    1    2    0    0 -0.46427754967E+00  0.49751518927E+00  0.32931260685E+00  0.12047264419E+01  0.93800000000E+00 0. -1.
         22    1    1    2    0    0  0.42759969005E+00 -0.45786070085E+00  0.34042675265E+01  0.34614325515E+01  0.00000000000E+00 0. -1.
</event>
<event>
 5    1  0.6440325E+001  0.1598783E+01  0.7818608E-02  0.3354686E+00
         11   -1    0    0    0    0  0.00000000000E+00  0.00000000000E+00  0.39999999674E+01  0.40000000000E+01  0.51100000000E-03 0. -1.
    9000002   -1    0    0    0    0 -0.00000000000E+00 -0.00000000000E+00  0.00000000000E+00  0.93800000000E+00  0.93800000000E+00 0. -1.
         11    1    1    2    0    0 -0.68869709688E-01 -0.45891572030E-01  0.12249222763E+01  0.12277149170E+01  0.51100000000E-03 0. -1.
    9000002    1    1    2    0    0  0.31010241793E+00  0.87956622688E-01  0.70171895413E-01  0.99431784254E+00  0.93800000000E+00 0. -1.
         22    1    1    2    0    0 -0.24123270824E+00 -0.42065050658E-01  0.27049057957E+01  0.27159672405E+01  0.00000000000E+00 0. -1.
</event>
<event>
 5    1  0.6440325E+001  0.1599675E+01  0.7818608E-02  0.3353716E+00
         11   -1    0    0    0    0  0.00000000000E+00  0.00000000000E+00  0.39999999674E+01  0.40000000000E+01  0.51100000000E-03 0. -1.
    9000002   -1    0    0    0    0 -0.00000000000E+00 -0.00000000000E+00  0.00000000000E+00  0.93800000000E+00  0.93800000000E+00 0. -1.
         11    1    1    2    0    0  0.10685149780E-01 -0.15681871493E+00  0.12145523868E+01  0.12246812006E+01  0.51100000000E-03 0. -1.
    9000002    1    1    2    0    0 -0.28769584853E-01  0.49457784007E+00  0.16788719154E+00  0.10739948966E+01  0.93800000000E+00 0. -1.
         22    1    1    2    0    0  0.18084435074E-01 -0.33775912513E+00  0.26175603890E+01  0.26393239027E+01  0.00000000000E+00 0. -1.
</event>
<event>
 5    1  0.6440325E+001  0.1599676E+01  0.7818608E-02  0.3353715E+00
         11   -1    0    0    0    0  0.00000000000E+00  0.00000000000E+00  0.39999999674E+01  0.40000000000E+01  0.51100000000E-03 0. -1.
    9000002   -1    0    0    0    0 -0.00000000000E+00 -0.00000000000E+00  0.00000000000E+00  0.93800000000E+00  0.93800000000E+00 0.  1.
         11    1    1    2    0    0  0.35883839493E-01 -0.75288495954E-01  0.89560786112E+00  0.89948302351E+00  0.51100000000E-03 0. -1.
    9000002    1    1    2    0    0 -0.15822540122E+00  0.33117474799E+00  0.90500686834E-01  0.10113092334E+01  0.93800000000E+00 0.  1.
         22    1    1    2    0    0  0.12234156172E+00 -0.25588625203E+00  0.30138914194E+01  0.30272077431E+01  0.00000000000E+00 0.  1.
</event>
<event>
 5    1  0.6440325E+001  0.1581497E+01  0.7818608E-02  0.3373694E+00
         11   -1    0    0    0    0  0.00000000000E+00  0.00000000000E+00  0.39999999674E+01  0.40000000000E+01  0.51100000000E-03 0. -1.
    9000002   -1    0    0    0    0 -0.00000000000E+00 -0.00000000000E+00  0.00000000000E+00  0.93800000000E+00  0.93800000000E+00 0.  1.
         11    1    1    2    0    0 -0.13378552166E-01  0.95167830190E-01  0.39889146194E+00  0.41030544852E+00  0.51100000000E-03 0. -1.
    9000002    1    1    2    0    0  0.40149902432E+00 -0.28411621011E-02  0.12406162067E+00  0.10278350181E+01  0.93800000000E+00 0.  1.
         22    1    1    2    0    0 -0.38812047215E+00 -0.92326668089E-01  0.34770468848E+01  0.34998595334E+01  0.00000000000E+00 0. -1.
</event>
<event>
 5    1  0.6440325E+001  0.1599668E+01  0.7818608E-02  0.3353724E+00
         11   -1    0    0    0    0  0.00000000000E+00  0.00000000000E+00  0.39999999674E+01  0.40000000000E+01  0.51100000000E-03 0. -1.
    9000002   -1    0    0    0    0 -0.00000000000E+00 -0.00000000000E+00  0.00000000000E+00  0.93800000000E+00  0.93800000000E+00 0. -1.
         11    1    1    2    0    0 -0.52849243182E-01 -0.89468600072E-02  0.31349258604E+00  0.31804237364E+00  0.51100000000E-03 0. -1.
    9000002    1    1    2    0    0  0.61220318858E+00  0.12396521791E+00  0.27370238963E+00  0.11597056167E+01  0.93800000000E+00 0. -1.
         22    1    1    2    0    0 -0.55935394540E+00 -0.11501835790E+00  0.34128049917E+01  0.34602520096E+01  0.00000000000E+00 0. -1.
</event>
<event>
 5    1  0.6440325E+001  0.1593148E+01  0.7818608E-02  0.3360834E+00
         11   -1    0    0    0    0  0.00000000000E+00  0.00000000000E+00  0.39999999674E+01  0.40000000000E+01  0.51100000000E-03 0. -1.
    9000002   -1    0    0    0    0 -0.00000000000E+00 -0.00000000000E+00  0.00000000000E+00  0.93800000000E+00  0.93800000000E+00 0. -1.
         11    1    1    2    0    0  0.16235466794E+00 -0.13072300268E+00  0.13812766283E+01  0.13969155045E+01  0.51100000000E-03 0. -1.
    9000002    1    1    2    0    0 -0.19399291798E+00  0.38423612789E+00  0.13105480561E+00  0.10403316857E+01  0.93800000000E+00 0. -1.
         22    1    1    2    0    0  0.31638250035E-01 -0.25351312521E+00  0.24876685335E+01  0.25007528098E+01  0.00000000000E+00 0. -1.
</event>
<event>
 5    1  0.6440325E+001  0.1561924E+01  0.7818608E-02  0.3395756E+00
         11   -1    0    0    0    0  0.00000000000E+00  0.00000000000E+00  0.39999999674E+01  0.40000000000E+01  0.51100000000E-03 0. -1.
    9000002   -1    0    0    0    0 -0.00000000000E+00 -0.00000000000E+00  0.00000000000E+00  0.93800000000E+00  0.93800000000E+00 0.  1.
         11    1    1    2    0    0 -0.28896500513E+00  0.77986690867E-01  0.87829419780E+00  0.92789205037E+00  0.51100000000E-03 0. -1.
    9000002    1    1    2    0    0  0.38105160929E+00 -0.34806998813E+00  0.21820163053E+00  0.10926156676E+01  0.93800000000E+00 0.  1.
         22    1    1    2    0    0 -0.92086604157E-01  0.27008329727E+00  0.29035041390E+01  0.29174922820E+01  0.00000000000E+00 0. -1.
</event>
<event>
 5    1  0.6440325E+001  0.1599675E+01  0.7818608E-02  0.3353716E+00
         11   -1    0    0    0    0  0.00000000000E+00  0.00000000000E+00  0.39999999674E+01  0.40000000000E+01  0.51100000000E-03 0.  1.
    9000002   -1    0    0    0    0 -0.00000000000E+00 -0.00000000000E+00  0.00000000000E+00  0.93800000000E+00  0.93800000000E+00 0.  1.
         11    1    1    2    0    0 -0.81165227769E-02  0.78595804367E-01  0.59377340299E+00  0.59900775756E+00  0.51100000000E-03 0.  1.
    9000002    1    1    2    0    0  0.49325123091E-01 -0.49985758007E+00  0.17277520005E+00  0.10779544693E+01  0.93800000000E+00 0.  1.
         22    1    1    2    0    0 -0.41208600314E-01  0.42126177570E+00  0.32334513643E+01  0.32610377731E+01  0.00000000000E+00 0.  1.
</event>
<event>
 5    1  0.6440325E+001  0.1597653E+01  0.7818608E-02  0.3355914E+00
         11   -1    0    0    0    0  0.00000000000E+00  0.00000000000E+00  0.39999999674E+01  0.40000000000E+01  0.51100000000E-03 0. -1.
    9000002   -1    0    0    0    0 -0.00000000000E+00 -0.00000000000E+00  0.00000000000E+00  0.93800000000E+00  0.93800000000E+00 0.  1.
         11    1    1    2    0    0 -0.15227971769E-02  0.58976788123E-02  0.16494573070E+00  0.16505894924E+00  0.51100000000E-03 0. -1.
    9000002    1    1    2    0    0  0.45009663175E-01  0.37585028308E+00  0.98054882391E-01  0.10162421291E+01  0.93800000000E+00 0.  1.
         22    1    1    2    0    0 -0.43486865998E-01 -0.38174796190E+00  0.37369993543E+01  0.37566989216E+01  0.00000000000E+00 0. -1.
</event>
<event>
 5    1  0.6440325E+001  0.1599519E+01  0.7818608E-02  0.3353886E+00
         11   -1    0    0    0    0  0.00000000000E+00  0.00000000000E+00  0.39999999674E+01  0.40000000000E+01  0.51100000000E-03 0. -1.
    9000002   -1    0    0    0    0 -0.00000000000E+00 -0.00000000000E+00  0.00000000000E+00  0.93800000000E+00  0.93800000000E+00 0. -1.
         11    1    1    2    0    0 -0.11472136855E+00  0.85520162570E-01  0.11426891132E+01  0.11516133731E+01  0.51100000000E-03 0. -1.
    9000002    1    1    2    0    0  0.39321466539E+00 -0.24221056593E+00  0.14525384382E+00  0.10555692353E+01  0.93800000000E+00 0. -1.
         22    1    1    2    0    0 -0.27849329684E+00  0.15669040336E+00  0.27120570103E+01  0.27308173916E+01  0.00000000000E+00 0. -1.
</event>
<event>
 5    1  0.6440325E+001  0.1594171E+01  0.7818608E-02  0.3359715E+00
         11   -1    0    0    0    0  0.00000000000E+00  0.00000000000E+00  0.39999999674E+01  0.40000000000E+01  0.51100000000E-03 0.  1.
    9000002   -1    0    0    0    0 -0.00000000000E+00 -0.00000000000E+00  0.00000000000E+00  0.93800000000E+00  0.93800000000E+00 0.  1.
         11    1    1    2    0    0  0.10019482109E+00 -0.18960295021E+00  0.14053950074E+01  0.14216622907E+01  0.51100000000E-03 0.  1.
    9000002    1    1    2    0    0 -0.48638731384E-01  0.45214895229E+00  0.14534667681E+00  0.10525084597E+01  0.93800000000E+00 0.  1.
         22    1    1    2    0    0 -0.51556089704E-01 -0.26254600208E+00  0.24492582832E+01  0.24638292496E+01  0.00000000000E+00 0.  1.
</event>
<event>
 5    1  0.6440325E+001  0.1605707E+01  0.7818608E-02  0.3347193E+00
         11   -1    0    0    0    0  0.00000000000E+00  0.00000000000E+00  0.39999999674E+01  0.40000000000E+01  0.51100000000E-03 0. -1.
    9000002   -1    0    0    0    0 -0.00000000000E+00 -0.00000000000E+00  0.00000000000E+00  0.93800000000E+00  0.93800000000E+00 0. -1.
         11    1    1    2    0    0 -0.13926637056E+00  0.21035370705E+00  0.41065147123E-01  0.25559814449E+00  0.51100000000E-03 0. -1.
    9000002    1    1    2    0    0  0.74792783657E-01  0.30912512509E+00  0.37284024746E+00  0.10583034317E+01  0.93800000000E+00 0. -1.
         22    1    1    2    0    0  0.64473586906E-01 -0.51947883214E+00  0.35860945728E+01  0.36240984238E+01  0.00000000000E+00 0. -1.
</event>
<event>
 5    1  0.6440325E+001  0.1599675E+01  0.7818608E-02  0.3353716E+00
         11   -1    0    0    0    0  0.00000000000E+00  0.00000000000E+00  0.39999999674E+01  0.40000000000E+01  0.51100000000E-03 0.  1.
    9000002   -1    0    0    0    0 -0.00000000000E+00 -0.00000000000E+00  0.00000000000E+00  0.93800000000E+00  0.93800000000E+00 0. -1.
         11    1    1    2    0    0 -0.12954852282E+00  0.13608677300E+00  0.14819323562E+01  0.14937959028E+01  0.51100000000E-03 0.  1.
    9000002    1    1    2    0    0  0.33218757985E+00 -0.35067810566E+00  0.15928012810E+00  0.10670229057E+01  0.93800000000E+00 0. -1.
         22    1    1    2    0    0 -0.20263905703E+00  0.21459133266E+00  0.23587874830E+01  0.23771811916E+01  0.00000000000E+00 0. -1.
</event>
<event>
 5    1  0.6440325E+001  0.1599675E+01  0.7818608E-02  0.3353717E+00
         11   -1    0    0    0    0  0.00000000000E+00  0.00000000000E+00  0.39999999674E+01  0.40000000000E+01  0.51100000000E-03 0. -1.
    9000002   -1    0    0    0    0 -0.00000000000E+00 -0.00000000000E+00  0.00000000000E+00  0.93800000000E+00  0.93800000000E+00 0. -1.
         11    1    1    2    0    0 -0.62305590843E-02 -0.23319664666E-01  0.16520003494E+00  0.16695490197E+00  0.51100000000E-03 0. -1.
    9000002    1    1    2    0    0  0.13030791550E+00  0.54117391740E+00  0.21428777126E+00  0.11115811309E+01  0.93800000000E+00 0. -1.
         22    1    1    2    0    0 -0.12407735641E+00 -0.51785425273E+00  0.36205121612E+01  0.36594639671E+01  0.00000000000E+00 0. -1.
</event>
<event>
 5    1  0.6440325E+001  0.1561649E+01  0.7818608E-02  0.3396070E+00
         11   -1    0    0    0    0  0.00000000000E+00  0.00000000000E+00  0.39999999674E+01  0.40000000000E+01  0.51100000000E-03 0. -1.
    9000002   -1    0    0    0    0 -0.00000000000E+00 -0.00000000000E+00  0.00000000000E+00  0.93800000000E+00  0.93800000000E+00 0. -1.
         11    1    1    2    0    0  0.16124374892E+00 -0.16590487532E+00  0.13633044650E+01  0.13827954656E+01  0.51100000000E-03 0. -1.
    9000002    1    1    2    0    0 -0.33418472581E+00 -0.15322808760E+00  0.12244396351E+00  0.10148865956E+01  0.93800000000E+00 0. -1.
         22    1    1    2    0    0  0.17294097689E+00  0.31913296292E+00  0.25142515389E+01  0.25403179388E+01  0.00000000000E+00 0. -1.
</event>
<event>
 5    1  0.6440325E+001  0.1597052E+01  0.7818608E-02  0.3356570E+00
         11   -1    0    0    0    0  0.00000000000E+00  0.00000000000E+00  0.39999999674E+01  0.40000000000E+01  0.51100000000E-03 0. -1.
    9000002   -1    0    0    0    0 -0.00000000000E+00 -0.00000000000E+00  0.00000000000E+00  0.93800000000E+00  0.93800000000E+00 0. -1.
         11    1    1    2    0    0  0.10592467136E+00 -0.39110639619E-01  0.67223654374E+00  0.68165380509E+00  0.51100000000E-03 0. -1.
    9000002    1    1    2    0    0 -0.40480662243E+00  0.51077662073E-01  0.11460930841E+00  0.10292990929E+01  0.93800000000E+00 0. -1.
         22    1    1    2    0    0  0.29888195107E+00 -0.11967022455E-01  0.32131541152E+01  0.32270471020E+01  0.00000000000E+00 0. -1.
</event>
<event>
 5    1  0.6440325E+001  0.1599677E+01  0.7818608E-02  0.3353714E+00
         11   -1    0    0    0    0  0.00000000000E+00  0.00000000000E+00  0.39999999674E+01  0.40000000000E+01  0.51100000000E-03 0. -1.
    9000002   -1    0    0    0    0 -0.00000000000E+00 -0.00000000000E+00  0.00000000000E+00  0.93800000000E+00  0.93800000000E+00 0. -1.
         11    1    1    2    0    0 -0.12253076725E+00 -0.68472574958E-01  0.13969859309E+01  0.14040200265E+01  0.51100000000E-03 0.  1.
    9000002    1    1    2    0    0  0.34062186703E+00  0.19028599909E+00  0.10255605073E+00  0.10210748069E+01  0.93800000000E+00 0. -1.
         22    1    1    2    0    0 -0.21809109978E+00 -0.12181342413E+00  0.25004579857E+01  0.25129051666E+01  0.00000000000E+00 0. -1.
</event>
<event>
 5    1  0.6440325E+001  0.1599673E+01  0.7818608E-02  0.3353719E+00
         11   -1    0    0    0    0  0.00000000000E+00  0.00000000000E+00  0.39999999674E+01  0.40000000000E+01  0.51100000000E-03 0. -1.
    9000002   -1    0    0    0    0 -0.00000000000E+00 -0.00000000000E+00  0.00000000000E+00  0.93800000000E+00  0.93800000000E+00 0.  1.
         11    1    1    2    0    0 -0.14136196532E+00 -0.15030056167E-01  0.14605921369E+01  0.14674940407E+01  0.51100000000E-03 0. -1.
    9000002    1    1    2    0    0  0.37795755133E+00  0.33707930643E-01  0.96878189433E-01  0.10164730782E+01  0.93800000000E+00 0.  1.
         22    1    1    2    0    0 -0.23659558601E+00 -0.18677874476E-01  0.24425296410E+01  0.24540328811E+01  0.00000000000E+00 0. -1.
</event>
<event>
 5    1  0.6440325E+001  0.1486707E+01  0.7818608E-02  0.3486320E+00
         11   -1    0    0    0    0  0.00000000000E+00  0.00000000000E+00  0.39999999674E+01  0.40000000000E+01  0.51100000000E-03 0.  1.
    9000002   -1    0    0    0    0 -0.00000000000E+00 -0.00000000000E+00  0.00000000000E+00  0.93800000000E+00  0.93800000000E+00 0.  1.
         11    1    1    2    0    0  0.12631035191E-01 -0.34966934343E+00  0.12270356586E+01  0.12759486516E+01  0.51100000000E-03 0.  1.
    9000002    1    1    2    0    0 -0.20038468626E+00 -0.74609447579E-01  0.12080798951E+00  0.96961804979E+00  0.93800000000E+00 0.  1.
         22    1    1    2    0    0  0.18775365107E+00  0.42427879101E+00  0.26521563192E+01  0.26924332986E+01  0.00000000000E+00 0.  1.
</event>
<event>
 5    1  0.6440325E+001  0.1599666E+01  0.7818608E-02  0.3353726E+00
         11   -1    0    0    0    0  0.00000000000E+00  0.00000000000E+00  0.39999999674E+01  0.40000000000E+01  0.51100000000E-03 0. -1.
    9000002   -1    0    0    0    0 -0.00000000000E+00 -0.00000000000E+00  0.00000000000E+00  0.93800000000E+00  0.93800000000E+00 0.  1.
         11    1    1    2    0    0 -0.72427402647E-01 -0.12701158420E+00  0.14588312201E+01  0.14661399869E+01  0.51100000000E-03 0. -1.
    9000002    1    1    2    0    0  0.19555892838E+00  0.32951054308E+00  0.98833806592E-01  0.10180533453E+01  0.93800000000E+00 0.  1.
         22    1    1    2    0    0 -0.12313152574E+00 -0.20249895888E+00  0.24423349406E+01  0.24538066679E+01  0.00000000000E+00 0. -1.
</event>
<event>
 5    1  0.6440325E+001  0.1595163E+01  0.7818608E-02  0.3358630E+00
         11   -1    0    0    0    0  0.00000000000E+00  0.00000000000E+00  0.39999999674E+01  0.40000000000E+01  0.51100000000E-03 0.  1.
    9000002   -1    0    0    0    0 -0.00000000000E+00 -0.00000000000E+00  0.00000000000E+00  0.93800000000E+00  0.93800000000E+00 0.  1.
         11    1    1    2    0    0  0.22301981104E-02 -0.13116115700E-01  0.58176084638E+00  0.58191318062E+00  0.51100000000E-03 0.  1.
    9000002    1    1    2    0    0 -0.39928863850E+00  0.51915756127E-01  0.11316708264E+00  0.10270235884E+01  0.93800000000E+00 0.  1.
         22    1    1    2    0    0  0.39705844039E+00 -0.38799640428E-01  0.33050720383E+01  0.33290632310E+01  0.00000000000E+00 0.  1.
</event>
<event>
 5    1  0.6440325E+001  0.1599392E+01  0.7818608E-02  0.3354024E+00
         11   -1    0    0    0    0  0.00000000000E+00  0.00000000000E+00  0.39999999674E+01  0.40000000000E+01  0.51100000000E-03 0. -1.
    9000002   -1    0    0    0    0 -0.00000000000E+00 -0.00000000000E+00  0.00000000000E+00  0.93800000000E+00  0.93800000000E+00 0.  1.
         11    1    1    2    0    0  0.43849881202E-01 -0.21730044256E-02  0.52291476572E+00  0.52475484501E+00  0.51100000000E-03 0. -1.
    9000002    1    1    2    0    0 -0.42790805691E+00  0.64608293730E-02  0.12424074414E+00  0.10384733073E+01  0.93800000000E+00 0.  1.
         22    1    1    2    0    0  0.38405817570E+00 -0.42878249474E-02  0.33528444575E+01  0.33747718477E+01  0.00000000000E+00 0. -1.
</event>
<event>
 5    1  0.6440325E+001  0.1599649E+01  0.7818608E-02  0.3353744E+00
         11   -1    0    0    0    0  0.00000000000E+00  0.00000000000E+00  0.39999999674E+01  0.40000000000E+01  0.51100000000E-03 0.  1.
    9000002   -1    0    0    0    0 -0.00000000000E+00 -0.00000000000E+00  0.00000000000E+00  0.93800000000E+00  0.93800000000E+00 0.  1.
         11    1    1    2    0    0 -0.37670387236E-01 -0.31295357023E-01  0.54750002163E+00  0.54968626712E+00  0.51100000000E-03 0.  1.
    9000002    1    1    2    0    0  0.27021393590E+00  0.25454328775E+00  0.92648007141E-01  0.10130328276E+01  0.93800000000E+00 0.  1.
         22    1    1    2    0    0 -0.23254354867E+00 -0.22324793073E+00  0.33598519386E+01  0.33752809053E+01  0.00000000000E+00 0.  1.
</event>
<event>
 5    1  0.6440325E+001  0.1580736E+01  0.7818608E-02  0.3374541E+00
         11   -1    0    0    0    0  0.00000000000E+00  0.00000000000E+00  0.39999999674E+01  0.40000000000E+01  0.51100000000E-03 0.  1.
    9000002   -1    0    0    0    0 -0.00000000000E+00 -0.00000000000E+00  0.00000000000E+00  0.93800000000E+00  0.93800000000E+00 0.  1.
         11    1    1    2    0    0 -0.14002863902E-01 -0.32437079080E+00  0.11529143275E+01  0.11977579880E+01  0.51100000000E-03 0.  1.
    9000002    1    1    2    0    0 -0.87124829355E-01  0.56840738930E+00  0.24809598829E+00  0.11278622768E+01  0.93800000000E+00 0.  1.
         22    1    1    2    0    0  0.10112769326E+00 -0.24403659851E+00  0.25989896516E+01  0.26123797352E+01  0.00000000000E+00 0.  1.
</event>
<event>
 5    1  0.6440325E+001  0.1534740E+01  0.7818608E-02  0.3427390E+00
         11   -1    0    0    0    0  0.00000000000E+00  0.00000000000E+00  0.39999999674E+01  0.40000000000E+01  0.51100000000E-03 0.  1.
    9000002   -1    0    0    0    0 -0.00000000000E+00 -0.00000000000E+00  0.00000000000E+00  0.93800000000E+00  0.93800000000E+00 0. -1.
         11    1    1    2    0    0 -0.53345962083E-01 -0.60581198830E-01  0.63607630134E-01  0.10277190791E+00  0.51100000000E-03 0.  1.
    9000002    1    1    2    0    0 -0.37670599644E+00 -0.17794793226E+00  0.17420996019E+00  0.10410408179E+01  0.93800000000E+00 0.  1.
         22    1    1    2    0    0  0.43005195853E+00  0.23852913109E+00  0.37621823770E+01  0.37941872742E+01  0.00000000000E+00 0.  1.
</event>
<event>
 5    1  0.6440325E+001  0.1595583E+01  0.7818608E-02  0.3358171E+00
         11   -1    0    0    0    0  0.00000000000E+00  0.00000000000E+00  0.39999999674E+01  0.40000000000E+01  0.51100000000E-03 0. -1.
    9000002   -1    0    0    0    0 -0.00000000000E+00 -0.00000000000E+00  0.00000000000E+00  0.93800000000E+00  0.93800000000E+00 0. -1.
         11    1    1    2    0    0 -0.60506471974E-01 -0.27453335076E-01  0.74052444638E+00  0.74349945229E+00  0.51100000000E-03 0. -1.
    9000002    1    1    2    0    0  0.56420324799E+00  0.30607438478E+00  0.29445045961E+00  0.11741175015E+01  0.93800000000E+00 0. -1.
         22    1    1    2    0    0 -0.50369677602E+00 -0.27862104970E+00  0.29650250614E+01  0.30203830462E+01  0.00000000000E+00 0. -1.
</event>
<event>
 5    1  0.6440325E+001  0.1583619E+01  0.7818608E-02  0.3371337E+00
         11   -1    0    0    0    0  0.00000000000E+00  0.00000000000E+00  0.39999999674E+01  0.40000000000E+01  0.51100000000E-03 0.  1.
    9000002   -1    0    0    0    0 -0.00000000000E+00 -0.00000000000E+00  0.00000000000E+00  0.93800000000E+00  0.93800000000E+00 0. -1.
         11    1    1    2    0    0  0.16621079748E-01 -0.86169316490E-02  0.13870708595E+01  0.13871972975E+01  0.51100000000E-03 0.  1.
    9000002    1    1    2    0    0  0.33807494904E+00 -0.12135579451E+00  0.99719371506E-01  0.10093611113E+01  0.93800000000E+00 0. -1.
         22    1    1    2    0    0 -0.35469602878E+00  0.12997272615E+00  0.25132097364E+01  0.25414415912E+01  0.00000000000E+00 0.  1.
</event>
<event>
 5    1  0.6440325E+001  0.1598686E+01  0.7818608E-02  0.3354790E+00
         11   -1    0    0    0    0  0.00000000000E+00  0.00000000000E+00  0.39999999674E+01  0.40000000000E+01  0.51100000000E-03 0. -1.
    9000002   -1    0    0    0    0 -0.00000000000E+00 -0.00000000000E+00  0.00000000000E+00  0.93800000000E+00  0.93800000000E+00 0. -1.
         11    1    1    2    0    0 -0.41907139264E-01  0.84297403608E-01  0.56080252292E+00  0.56864926924E+00  0.51100000000E-03 0. -1.
    9000002    1    1    2    0    0  0.27395385439E+00 -0.39336412096E+00  0.15764820698E+00  0.10651211214E+01  0.93800000000E+00 0. -1.
         22    1    1    2    0    0 -0.23204671512E+00  0.30906671735E+00  0.32815492375E+01  0.33042296094E+01  0.00000000000E+00 0. -1.
</event>
<event>
 5    1  0.6440325E+001  0.1592860E+01  0.7818608E-02  0.3361149E+00
         11   -1    0    0    0    0  0.00000000000E+00  0.00000000000E+00  0.39999999674E+01  0.40000000000E+01  0.51100000000E-03 0. -1.
    9000002   -1    0    0    0    0 -0.00000000000E+00 -0.00000000000E+00  0.00000000000E+00  0.93800000000E+00  0.93800000000E+00 0. -1.
         11    1    1    2    0    0 -0.45723374913E-01  0.12961088429E+00  0.54975943755E+00  0.56667919376E+00  0.51100000000E-03 0. -1.
    9000002    1    1    2    0    0  0.11508475235E+00 -0.45681426307E+00  0.15722345619E+00  0.10613609124E+01  0.93800000000E+00 0. -1.
         22    1    1    2    0    0 -0.69361377439E-01  0.32720337878E+00  0.32930170736E+01  0.33099598939E+01  0.00000000000E+00 0. -1.
</event>
<event>
 5    1  0.6440325E+001  0.1599668E+01  0.7818608E-02  0.3353724E+00
         11   -1    0    0    0    0  0.00000000000E+00  0.00000000000E+00  0.39999999674E+01  0.40000000000E+01  0.51100000000E-03 0. -1.
    9000002   -1    0    0    0    0 -0.00000000000E+00 -0.00000000000E+00  0.00000000000E+00  0.93800000000E+00  0.93800000000E+00 0. -1.
         11    1    1    2    0    0 -0.63440297467E-01  0.37377819759E-01  0.83985607198E+00  0.84307784665E+00  0.51100000000E-03 0. -1.
    9000002    1    1    2    0    0  0.30985617492E+00 -0.17386116262E+00  0.84701786088E-01  0.10066066489E+01  0.93800000000E+00 0. -1.
         22    1    1    2    0    0 -0.24641587745E+00  0.13648334286E+00  0.30754421093E+01  0.30883155045E+01  0.00000000000E+00 0. -1.
</event>
<event>
 5    1  0.6440325E+001  0.1588103E+01  0.7818608E-02  0.3366378E+00
         11   -1    0    0    0    0  0.00000000000E+00  0.00000000000E+00  0.39999999674E+01  0.40000000000E+01  0.51100000000E-03 0.  1.
    9000002   -1    0    0    0    0 -0.00000000000E+00 -0.00000000000E+00  0.00000000000E+00  0.93800000000E+00  0.93800000000E+00 0.  1.
         11    1    1    2    0    0  0.10293153919E+00  0.50076120754E-01  0.30174176373E+00  0.32272414339E+00  0.51100000000E-03 0.  1.
    9000002    1    1    2    0    0 -0.52618711974E+00 -0.14300101303E+00  0.21613320114E+00  0.11062909813E+01  0.93800000000E+00 0.  1.
         22    1    1    2    0    0  0.42325558055E+00  0.92924892278E-01  0.34821250025E+01  0.35089848753E+01  0.00000000000E+00 0.  1.
</event>
<event>
 5    1  0.6440325E+001  0.1599470E+01  0.7818608E-02  0.3353939E+00
         11   -1    0    0    0    0  0.00000000000E+00  0.00000000000E+00  0.39999999674E+01  0.40000000000E+01  0.51100000000E-03 0. -1.
    9000002   -1    0    0    0    0 -0.00000000000E+00 -0.00000000000E+00  0.00000000000E+00  0.93800000000E+00  0.93800000000E+00 0.  1.
         11    1    1    2    0    0 -0.48316007309E-01 -0.94980556896E-02  0.49971645744E+00  0.50213688232E+00  0.51100000000E-03 0. -1.
    9000002    1    1    2    0    0  0.33368031863E+00  0.15307654357E+00  0.90711856898E-01  0.10113592953E+01  0.93800000000E+00 0.  1.
         22    1    1    2    0    0 -0.28536431132E+00 -0.14357848788E+00  0.34095716530E+01  0.34245038224E+01  0.00000000000E+00 0. -1.
</event>
<event>
 5    1  0.6440325E+001  0.1509185E+01  0.7818608E-02  0.3458241E+00
         11   -1    0    0    0    0  0.00000000000E+00  0.00000000000E+00  0.39999999674E+01  0.40000000000E+01  0.51100000000E-03 0.  1.
    9000002   -1    0    0    0    0 -0.00000000000E+00 -0.00000000000E+00  0.00000000000E+00  0.93800000000E+00  0.93800000000E+00 0.  1.
         11    1    1    2    0    0  0.86715643775E-01 -0.14333465025E+00  0.24524998793E+00  0.29700545877E+00  0.51100000000E-03 0.  1.
    9000002    1    1    2    0    0  0.22421695131E+00 -0.13424650024E+00  0.11847103111E+00  0.98090506640E+00  0.93800000000E+00 0.  1.
         22    1    1    2    0    0 -0.31093259508E+00  0.27758115049E+00  0.36362789483E+01  0.36600894748E+01  0.00000000000E+00 0.  1.
</event>
<event>
 5    1  0.6440325E+001  0.1599675E+01  0.7818608E-02  0.3353717E+00
         11   -1    0    0    0    0  0.00000000000E+00  0.00000000000E+00  0.39999999674E+01  0.40000000000E+01  0.51100000000E-03 0. -1.
    9000002   -1    0    0    0    0 -0.00000000000E+00 -0.00000000000E+00  0.00000000000E+00  0.93800000000E+00  0.93800000000E+00 0.  1.
         11    1    1    2    0    0  0.68851336513E-01 -0.18912763886E+00  0.14415007139E+01  0.14554842286E+01  0.51100000000E-03 0. -1.
    9000002    1    1    2    0    0 -0.18124331784E+00  0.50373139668E+00  0.19741293471E+00  0.10979118029E+01  0.93800000000E+00 0.  1.
         22    1    1    2    0    0  0.11239198132E+00 -0.31460375782E+00  0.23610863187E+01  0.23846039684E+01  0.00000000000E+00 0. -1.
</event>
<event>
 5    1  0.6440325E+001  0.1599634E+01  0.7818608E-02  0.3353761E+00
         11   -1    0    0    0    0  0.00000000000E+00  0.00000000000E+00  0.39999999674E+01  0.40000000000E+01  0.51100000000E-03 0.  1.
    9000002   -1    0    0    0    0 -0.00000000000E+00 -0.00000000000E+00  0.00000000000E+00  0.93800000000E+00  0.93800000000E+00 0. -1.
         11    1    1    2    0    0  0.75455036603E-02  0.12227140445E+00  0.89813727440E+00  0.90645355963E+00  0.51100000000E-03 0.  1.
    9000002    1    1    2    0    0 -0.94896400513E-02 -0.53525079136E+00  0.19744292769E+00  0.10979121880E+01  0.93800000000E+00 0. -1.
         22    1    1    2    0    0  0.19441363910E-02  0.41297938691E+00  0.29044197653E+01  0.29336342524E+01  0.00000000000E+00 0.  1.
</event>
<event>
 5    1  0.6440325E+001  0.1595175E+01  0.7818608E-02  0.3358617E+00
         11   -1    0    0    0    0  0.00000000000E+00  0.00000000000E+00  0.39999999674E+01  0.40000000000E+01  0.51100000000E-03 0.  1.
    9000002   -1    0    0    0    0 -0.00000000000E+00 -0.00000000000E+00  0.00000000000E+00  0.93800000000E+00  0.93800000000E+00 0.  1.
         11    1    1    2    0    0  0.28426339559E-01 -0.85571161732E-02  0.67661347588E+00  0.67726459961E+00  0.51100000000E-03 0.  1.
    9000002    1    1    2    0    0  0.16206204435E-01  0.35330762675E+00  0.87549648272E-01  0.10062792163E+01  0.93800000000E+00 0.  1.
         22    1    1    2    0    0 -0.44632543994E-01 -0.34475051058E+00  0.32358368432E+01  0.32544561841E+01  0.00000000000E+00 0.  1.
</event>
<event>
 5    1  0.6440325E+001  0.1579923E+01  0.7818608E-02  0.3375447E+00
         11   -1    0    0    0    0  0.00000000000E+00  0.00000000000E+00  0.39999999674E+01  0.40000000000E+01  0.51100000000E-03 0. -1.
    9000002   -1    0    0    0    0 -0.00000000000E+00 -0.00000000000E+00  0.00000000000E+00  0.93800000000E+00  0.93800000000E+00 0. -1.
         11    1    1    2    0    0 -0.95888814604E-01 -0.12169373471E+00  0.36196886141E+00  0.39373309181E+00  0.51100000000E-03 0. -1.
    9000002    1    1    2    0    0  0.66776781175E+00  0.21812599979E+00  0.37549106381E+00  0.12305813022E+01  0.93800000000E+00 0. -1.
         22    1    1    2    0    0 -0.57187899715E+00 -0.96432265085E-01  0.32625400421E+01  0.33136856060E+01  0.00000000000E+00 0. -1.
</event>
<event>
 5    1  0.6440325E+001  0.1599643E+01  0.7818608E-02  0.3353751E+00
         11   -1    0    0    0    0  0.00000000000E+00  0.00000000000E+00  0.39999999674E+01  0.40000000000E+01  0.51100000000E-03 0. -1.
    9000002   -1    0    0    0    0 -0.00000000000E+00 -0.00000000000E+00  0.00000000000E+00  0.93800000000E+00  0.93800000000E+00 0. -1.
         11    1    1    2    0    0  0.72980919880E-01  0.12238150045E+00  0.13923987538E+01  0.13996706744E+01  0.51100000000E-03 0. -1.
    9000002    1    1    2    0    0 -0.19920506716E+00 -0.32474026676E+00  0.97694947960E-01  0.10171171036E+01  0.93800000000E+00 0. -1.
         22    1    1    2    0    0  0.12622414728E+00  0.20235876631E+00  0.25099062656E+01  0.25212122219E+01  0.00000000000E+00 0. -1.
</event>
<event>
 5    1  0.6440325E+001  0.1599356E+01  0.7818608E-02  0.3354062E+00
         11   -1    0    0    0    0  0.00000000000E+00  0.00000000000E+00  0.39999999674E+01  0.40000000000E+01  0.51100000000E-03 0.  1.
    9000002   -1    0    0    0    0 -0.00000000000E+00 -0.00000000000E+00  0.00000000000E+00  0.93800000000E+00  0.93800000000E+00 0.  1.
         11    1    1    2    0    0  0.44564874460E-01 -0.12353932111E+00  0.10998750195E+01  0.11076882736E+01  0.51100000000E-03 0.  1.
    9000002    1    1    2    0    0 -0.88289876643E-01  0.43450698185E+00  0.13366832537E+00  0.10460892126E+01  0.93800000000E+00 0.  1.
         22    1    1    2    0    0  0.43725002183E-01 -0.31096766074E+00  0.27664566225E+01  0.27842225138E+01  0.00000000000E+00 0.  1.
</event>
<event>
 5    1  0.6440325E+001  0.1599676E+01  0.7818608E-02  0.3353715E+00
         11   -1    0    0    0    0  0.00000000000E+00  0.00000000000E+00  0.39999999674E+01  0.40000000000E+01  0.51100000000E-03 0. -1.
    9000002   -1    0    0    0    0 -0.00000000000E+00 -0.00000000000E+00  0.00000000000E+00  0.93800000000E+00  0.93800000000E+00 0. -1.
         11    1    1    2    0    0  0.77021754576E-01  0.52389133852E-01  0.95419275048E+00  0.95872886585E+00  0.51100000000E-03 0. -1.
    9000002    1    1    2    0    0 -0.31362622210E+00 -0.21079003710E+00  0.96053611656E-01  0.10158071388E+01  0.93800000000E+00 0. -1.
         22    1    1    2    0    0  0.23660446752E+00  0.15840090325E+00  0.29497536052E+01  0.29634639953E+01  0.00000000000E+00 0. -1.
</event>
<event>
 5    1  0.6440325E+001  0.1598310E+01  0.7818608E-02  0.3355200E+00
         11   -1    0    0    0    0  0.00000000000E+00  0.00000000000E+00  0.39999999674E+01  0.40000000000E+01  0.51100000000E-03 0. -1.
    9000002   -1    0    0    0    0 -0.00000000000E+00 -0.00000000000E+00  0.00000000000E+00  0.93800000000E+00  0.93800000000E+00 0.  1.
         11    1    1    2    0    0 -0.28253207972E-01 -0.10122989638E-01  0.33276581671E+00  0.33411684868E+00  0.51100000000E-03 0. -1.
    9000002    1    1    2    0    0  0.30905299935E+00 -0.17188426778E+00  0.84990665658E-01  0.10060444181E+01  0.93800000000E+00 0.  1.
         22    1    1    2    0    0 -0.28079979138E+00  0.18200725741E+00  0.35822434850E+01  0.35978387332E+01  0.00000000000E+00 0. -1.
</event>
<event>
 5    1  0.6440325E+001  0.1594818E+01  0.7818608E-02  0.3359007E+00
         11   -1    0    0    0    0  0.00000000000E+00  0.00000000000E+00  0.39999999674E+01  0.40000000000E+01  0.51100000000E-03 0. -1.
    9000002   -1    0    0    0    0 -0.00000000000E+00 -0.00000000000E+00  0.00000000000E+00  0.93800000000E+00  0.93800000000E+00 0. -1.
         11    1    1    2    0    0 -0.61138677845E-01  0.16729358403E-02  0.19331987475E+00  0.20276481878E+00  0.51100000000E-03 0. -1.
    9000002    1    1    2    0    0  0.50519229275E+00  0.21985442018E+00  0.21430840561E+00  0.11087503377E+01  0.93800000000E+00 0. -1.
         22    1    1    2    0    0 -0.44405361491E+00 -0.22152735602E+00  0.35923716870E+01  0.36264848435E+01  0.00000000000E+00 0. -1.
</event>
<event>
 5    1  0.6440325E+001  0.1599545E+01  0.7818608E-02  0.3353858E+00
         11   -1    0    0    0    0  0.00000000000E+00  0.00000000000E+00  0.39999999674E+01  0.40000000000E+01  0.51100000000E-03 0. -1.
    9000002   -1    0    0    0    0 -0.00000000000E+00 -0.00000000000E+00  0.00000000000E+00  0.93800000000E+00  0.93800000000E+00 0.  1.
         11    1    1    2    0    0  0.97533997147E-02 -0.17318090208E+00  0.13107623682E+01  0.13221894723E+01  0.51100000000E-03 0. -1.
    9000002    1    1    2    0    0  0.96460425714E-02  0.50919120011E+00  0.17795278392E+00  0.10820720483E+01  0.93800000000E+00 0.  1.
         22    1    1    2    0    0 -0.19399442286E-01 -0.33601029803E+00  0.25112848152E+01  0.25337384794E+01  0.00000000000E+00 0. -1.
</event>
<event>
 5    1  0.6440325E+001  0.1589982E+01  0.7818608E-02  0.3364309E+00
         11   -1    0    0    0    0  0.00000000000E+00  0.00000000000E+00  0.39999999674E+01  0.40000000000E+01  0.51100000000E-03 0. -1.
    9000002   -1    0    0    0    0 -0.00000000000E+00 -0.00000000000E+00  0.00000000000E+00  0.93800000000E+00  0.93800000000E+00 0. -1.
         11    1    1    2    0    0  0.25207077857E-01  0.41624168382E-01  0.28378115464E+00  0.28792355412E+00  0.51100000000E-03 0. -1.
    9000002    1    1    2    0    0 -0.24748373040E+00  0.26851946995E+00  0.97489645319E-01  0.10112858812E+01  0.93800000000E+00 0. -1.
         22    1    1    2    0    0  0.22227665254E+00 -0.31014363833E+00  0.36187291674E+01  0.36387905647E+01  0.00000000000E+00 0. -1.
</event>
<event>
 5    1  0.6440325E+001  0.1595970E+01  0.7818608E-02  0.3357749E+00
         11   -1    0    0    0    0  0.00000000000E+00  0.00000000000E+00  0.39999999674E+01  0.40000000000E+01  0.51100000000E-03 0.  1.
    9000002   -1    0    0    0    0 -0.00000000000E+00 -0.00000000000E+00  0.00000000000E+00  0.93800000000E+00  0.93800000000E+00 0.  1.
         11    1    1    2    0    0  0.45381474274E-01 -0.79068163319E-01  0.10780716765E+01  0.10819196150E+01  0.51100000000E-03 0.  1.
    9000002    1    1    2    0    0 -0.36533044408E+00  0.16105596938E+00  0.11060111375E+00  0.10254179465E+01  0.93800000000E+00 0.  1.
         22    1    1    2    0    0  0.31994896981E+00 -0.81987806063E-01  0.28113271772E+01  0.28306624385E+01  0.00000000000E+00 0.  1.
</event>
<event>
 5    1  0.6440325E+001  0.1599677E+01  0.7818608E-02  0.3353714E+00
         11   -1    0    0    0    0  0.00000000000E+00  0.00000000000E+00  0.39999999674E+01  0.40000000000E+01  0.51100000000E-03 0.  1.
    9000002   -1    0    0    0    0 -0.00000000000E+00 -0.00000000000E+00  0.00000000000E+00  0.93800000000E+00  0.93800000000E+00 0.  1.
         11    1    1    2    0    0  0.42867807859E-01  0.11927788299E+00  0.11198790456E+01  0.11270289260E+01  0.51100000000E-03 0.  1.
    9000002    1    1    2    0    0 -0.14893868101E+00 -0.41063033663E+00  0.12934108929E+00  0.10427718453E+01  0.93800000000E+00 0.  1.
         22    1    1    2    0    0  0.10607087315E+00  0.29135245364E+00  0.27507798325E+01  0.27681992286E+01  0.00000000000E+00 0.  1.
</event>
<event>
 5    1  0.6440325E+001  0.1599599E+01  0.7818608E-02  0.3353799E+00
         11   -1    0    0    0    0  0.00000000000E+00  0.00000000000E+00  0.39999999674E+01  0.40000000000E+01  0.51100000000E-03 0.  1.
    9000002   -1    0    0    0    0 -0.00000000000E+00 -0.00000000000E+00  0.00000000000E+00  0.93800000000E+00  0.93800000000E+00 0. -1.
         11    1    1    2    0    0 -0.13482627899E-01  0.16180096228E+00  0.13023317982E+01  0.13124136948E+01  0.51100000000E-03 0.  1.
    9000002    1    1    2    0    0  0.44823366742E-01 -0.50446493980E+00  0.17584703363E+00  0.10803981622E+01  0.93800000000E+00 0. -1.
         22    1    1    2    0    0 -0.31340738843E-01  0.34266397752E+00  0.25218211355E+01  0.25451881429E+01  0.00000000000E+00 0.  1.
</event>
<event>
 5    1  0.6440325E+001  0.1598599E+01  0.7818608E-02  0.3354885E+00
         11   -1    0    0    0    0  0.00000000000E+00  0.00000000000E+00  0.39999999674E+01  0.40000000000E+01  0.51100000000E-03 0. -1.
    9000002   -1    0    0    0    0 -0.00000000000E+00 -0.00000000000E+00  0.00000000000E+00  0.93800000000E+00  0.93800000000E+00 0.  1.
         11    1    1    2    0    0 -0.12858850471E-01 -0.41853190085E-01  0.21668244808E+00  0.22106239839E+00  0.51100000000E-03 0. -1.
    9000002    1    1    2    0    0  0.28583792376E+00  0.41876683503E+00  0.17716478244E+00  0.10808794294E+01  0.93800000000E+00 0.  1.
         22    1    1    2    0    0 -0.27297907329E+00 -0.37691364495E+00  0.36061527368E+01  0.36360581722E+01  0.00000000000E+00 0. -1.
</event>
<event>
 5    1  0.6440325E+001  0.1599570E+01  0.7818608E-02  0.3353831E+00
         11   -1    0    0    0    0  0.00000000000E+00  0.00000000000E+00  0.39999999674E+01  0.40000000000E+01  0.51100000000E-03 0. -1.
    9000002   -1    0    0    0    0 -0.00000000000E+00 -0.00000000000E+00  0.00000000000E+00  0.93800000000E+00  0.93800000000E+00 0.  1.
         11    1    1    2    0    0 -0.52394751481E-01 -0.95421051571E-01  0.10330511456E+01  0.10387710612E+01  0.51100000000E-03 0. -1.
    9000002    1    1    2    0    0  0.18361926957E+00  0.32179961728E+00  0.92344384078E-01  0.10127401025E+01  0.93800000000E+00 0.  1.
         22    1    1    2    0    0 -0.13122451809E+00 -0.22637856571E+00  0.28746044377E+01  0.28864888363E+01  0.00000000000E+00 0. -1.
</event>
<event>
 5    1  0.6440325E+001  0.1599606E+01  0.7818608E-02  0.3353791E+00
         11   -1    0    0    0    0  0.00000000000E+00  0.00000000000E+00  0.39999999674E+01  0.40000000000E+01  0.51100000000E-03 0.  1.
    9000002   -1    0    0    0    0 -0.00000000000E+00 -0.00000000000E+00  0.00000000000E+00  0.93800000000E+00  0.93800000000E+00 0.  1.
         11    1    1    2    0    0  0.13779151290E-01  0.40549290885E-01  0.39502578312E+00  0.39734083663E+00  0.51100000000E-03 0.  1.
    9000002    1    1    2    0    0 -0.14213457420E+00 -0.34088668892E+00  0.91720761691E-01  0.10122562274E+01  0.93800000000E+00 0.  1.
         22    1    1    2    0    0  0.12835542291E+00  0.30033739803E+00  0.35132534225E+01  0.35284029359E+01  0.00000000000E+00 0.  1.
</event>
<event>
 5    1  0.6440325E+001  0.1599674E+01  0.7818608E-02  0.3353717E+00
         11   -1    0    0    0    0  0.00000000000E+00  0.00000000000E+00  0.39999999674E+01  0.40000000000E+01  0.51100000000E-03 0.  1.
    9000002   -1    0    0    0    0 -0.00000000000E+00 -0.00000000000E+00  0.00000000000E+00  0.93800000000E+00  0.93800000000E+00 0. -1.
         11    1    1    2    0    0  0.12660275629E+00  0.67219219876E-01  0.13534670766E+01  0.13610363955E+01  0.51100000000E-03 0.  1.
    9000002    1    1    2    0    0 -0.36887121043E+00 -0.19353001087E+00  0.11730014577E+00  0.10330165338E+01  0.93800000000E+00 0. -1.
         22    1    1    2    0    0  0.24226845414E+00  0.12631079100E+00  0.25292327450E+01  0.25439470706E+01  0.00000000000E+00 0.  1.
</event>
<event>
 5    1  0.6440325E+001  0.1592149E+01  0.7818608E-02  0.3361929E+00
         11   -1    0    0    0    0  0.00000000000E+00  0.00000000000E+00  0.39999999674E+01  0.40000000000E+01  0.51100000000E-03 0.  1.
    9000002   -1    0    0    0    0 -0.00000000000E+00 -0.00000000000E+00  0.00000000000E+00  0.93800000000E+00  0.93800000000E+00 0.  1.
         11    1    1    2    0    0  0.63716358366E-01 -0.33597627250E-02  0.68453991203E+00  0.68750724696E+00  0.51100000000E-03 0.  1.
    9000002    1    1    2    0    0 -0.16295285024E+00 -0.38621143696E+00  0.12520013466E+00  0.10350033716E+01  0.93800000000E+00 0.  1.
         22    1    1    2    0    0  0.99236491873E-01  0.38957119969E+00  0.31902599207E+01  0.32154893815E+01  0.00000000000E+00 0.  1.
</event>
<event>
 5    1  0.6440325E+001  0.1599595E+01  0.7818608E-02  0.3353803E+00
         11   -1    0    0    0    0  0.00000000000E+00  0.00000000000E+00  0.39999999674E+01  0.40000000000E+01  0.51100000000E-03 0.  1.
    9000002   -1    0    0    0    0 -0.00000000000E+00 -0.00000000000E+00  0.00000000000E+00  0.93800000000E+00  0.93800000000E+00 0.  1.
         11    1    1    2    0    0 -0.46458339800E-01  0.10068483266E+00  0.12058104151E+01  0.12108983571E+01  0.51100000000E-03 0.  1.
    9000002    1    1    2    0    0  0.16868510912E+00 -0.35224794284E+00  0.10283119490E+00  0.10212499860E+01  0.93800000000E+00 0.  1.
         22    1    1    2    0    0 -0.12222676932E+00  0.25156311017E+00  0.26913583574E+01  0.27058516569E+01  0.00000000000E+00 0.  1.
</event>
<event>
 5    1  0.6440325E+001  0.1599071E+01  0.7818608E-02  0.3354372E+00
         11   -1    0    0    0    0  0.00000000000E+00  0.00000000000E+00  0.39999999674E+01  0.40000000000E+01  0.51100000000E-03 0.  1.
    9000002   -1    0    0    0    0 -0.00000000000E+00 -0.00000000000E+00  0.00000000000E+00  0.93800000000E+00  0.93800000000E+00 0. -1.
         11    1    1    2    0    0 -0.14984984318E-01 -0.15894795992E-02  0.14597101204E+00  0.14674765305E+00  0.51100000000E-03 0.  1.
    9000002    1    1    2    0    0  0.49538727568E+00 -0.23542470357E+00  0.20829705525E+00  0.11063747137E+01  0.93800000000E+00 0. -1.
         22    1    1    2    0    0 -0.48040229136E+00  0.23701418317E+00  0.36457319001E+01  0.36848776332E+01  0.00000000000E+00 0.  1.
</event>
<event>
 5    1  0.6440325E+001  0.1599673E+01  0.7818608E-02  0.3353718E+00
         11   -1    0    0    0    0  0.00000000000E+00  0.00000000000E+00  0.39999999674E+01  0.40000000000E+01  0.51100000000E-03 0.  1.
    9000002   -1    0    0    0    0 -0.00000000000E+00 -0.00000000000E+00  0.00000000000E+00  0.93800000000E+00  0.93800000000E+00 0. -1.
         11    1    1    2    0    0 -0.91399424415E-01  0.64308201272E-01  0.10566951758E+01  0.10625885165E+01  0.51100000000E-03 0.  1.
    9000002    1    1    2    0    0  0.34258414465E+00 -0.23298539622E+00  0.11599892641E+00  0.10319621320E+01  0.93800000000E+00 0. -1.
         22    1    1    2    0    0 -0.25118472023E+00  0.16867719495E+00  0.28273058651E+01  0.28434493515E+01  0.00000000000E+00 0. -1.
</event>
<event>
 5    1  0.6440325E+001  0.1505964E+01  0.7818608E-02  0.3462209E+00
         11   -1    0    0    0    0  0.00000000000E+00  0.00000000000E+00  0.39999999674E+01  0.40000000000E+01  0.51100000000E-03 0. -1.
    9000002   -1    0    0    0    0 -0.00000000000E+00 -0.00000000000E+00  0.00000000000E+00  0.93800000000E+00  0.93800000000E+00 0.  1.
         11    1    1    2    0    0 -0.33077479730E+00 -0.58097633521E-01  0.96391062736E+00  0.10207405450E+01  0.51100000000E-03 0. -1.
    9000002    1    1    2    0    0  0.18181508642E+00 -0.36569578896E+00  0.19574127458E+00  0.10416087472E+01  0.93800000000E+00 0.  1.
         22    1    1    2    0    0  0.14895971088E+00  0.42379342248E+00  0.28403480654E+01  0.28756507078E+01  0.00000000000E+00 0. -1.
</event>
<event>
 5    1  0.6440325E+001  0.1599611E+01  0.7818608E-02  0.3353786E+00
         11   -1    0    0    0    0  0.00000000000E+00  0.00000000000E+00  0.39999999674E+01  0.40000000000E+01  0.51100000000E-03 0.  1.
    9000002   -1    0    0    0    0 -0.00000000000E+00 -0.00000000000E+00  0.00000000000E+00  0.93800000000E+00  0.93800000000E+00 0.  1.
         11    1    1    2    0    0 -0.10363354534E+00 -0.85334766660E-01  0.12927859428E+01  0.12997375462E+01  0.51100000000E-03 0.  1.
    9000002    1    1    2    0    0  0.31276860490E+00  0.28375628709E+00  0.12070714871E+00  0.10357393719E+01  0.93800000000E+00 0.  1.
         22    1    1    2    0    0 -0.20913505956E+00 -0.19842152043E+00  0.25865068759E+01  0.26025230819E+01  0.00000000000E+00 0.  1.
</event>
<event>
 5    1  0.6440325E+001  0.1597886E+01  0.7818608E-02  0.3355661E+00
         11   -1    0    0    0    0  0.00000000000E+00  0.00000000000E+00  0.39999999674E+01  0.40000000000E+01  0.51100000000E-03 0.  1.
    9000002   -1    0    0    0    0 -0.00000000000E+00 -0.00000000000E+00  0.00000000000E+00  0.93800000000E+00  0.93800000000E+00 0. -1.
         11    1    1    2    0    0  0.27063433372E-02  0.88901601033E-01  0.94617443501E+00  0.95034580104E+00  0.51100000000E-03 0.  1.
    9000002    1    1    2    0    0 -0.18052227771E+00 -0.30566968299E+00  0.85993827302E-01  0.10066087553E+01  0.93800000000E+00 0. -1.
         22    1    1    2    0    0  0.17781593438E+00  0.21676808196E+00  0.29678317050E+01  0.29810454437E+01  0.00000000000E+00 0.  1.
</event>
<event>
 5    1  0.6440325E+001  0.1599614E+01  0.7818608E-02  0.3353783E+00
         11   -1    0    0    0    0  0.00000000000E+00  0.00000000000E+00  0.39999999674E+01  0.40000000000E+01  0.51100000000E-03 0. -1.
    9000002   -1    0    0    0    0 -0.00000000000E+00 -0.00000000000E+00  0.00000000000E+00  0.93800000000E+00  0.93800000000E+00 0. -1.
         11    1    1    2    0    0 -0.84204188371E-01 -0.11995583495E+00  0.88598464280E+00  0.89802494179E+00  0.51100000000E-03 0. -1.
    9000002    1    1    2    0    0  0.33818213905E+00  0.47990061118E+00  0.23988637587E+00  0.11322814266E+01  0.93800000000E+00 0. -1.
         22    1    1    2    0    0 -0.25397795068E+00 -0.35994477623E+00  0.28741289487E+01  0.29076936316E+01  0.00000000000E+00 0. -1.
</event>
<event>
 5    1  0.6440325E+001  0.1599665E+01  0.7818608E-02  0.3353727E+00
         11   -1    0    0    0    0  0.00000000000E+00  0.00000000000E+00  0.39999999674E+01  0.40000000000E+01  0.51100000000E-03 0.  1.
    9000002   -1    0    0    0    0 -0.00000000000E+00 -0.00000000000E+00  0.00000000000E+00  0.93800000000E+00  0.93800000000E+00 0. -1.
         11    1    1    2    0    0  0.11557175220E+00 -0.44165364514E-01  0.10059812805E+01  0.10135610525E+01  0.51100000000E-03 0.  1.
    9000002    1    1    2    0    0 -0.44105309448E+00  0.15526491486E+00  0.14889851467E+00  0.10586074785E+01  0.93800000000E+00 0. -1.
         22    1    1    2    0    0  0.32548134227E+00 -0.11109955034E+00  0.28451201722E+01  0.28658314690E+01  0.00000000000E+00 0.  1.
</event>
<event>
 5    1  0.6440325E+001  0.1499235E+01  0.7818608E-02  0.3470559E+00
         11   -1    0    0    0    0  0.00000000000E+00  0.00000000000E+00  0.39999999674E+01  0.40000000000E+01  0.51100000000E-03 0. -1.
    9000002   -1    0    0    0    0 -0.00000000000E+00 -0.00000000000E+00  0.00000000000E+00  0.93800000000E+00  0.93800000000E+00 0. -1.
         11    1    1    2    0    0 -0.32535027828E-01  0.25641034257E+00  0.80426411408E+00  0.84477560224E+00  0.51100000000E-03 0. -1.
    9000002    1    1    2    0    0 -0.18593986093E+00  0.22005257280E+00  0.13801641349E+00  0.99090327332E+00  0.93800000000E+00 0. -1.
         22    1    1    2    0    0  0.21847488875E+00 -0.47646291537E+00  0.30577194398E+01  0.31023211244E+01  0.00000000000E+00 0. -1.
</event>
<event>
 5    1  0.6440325E+001  0.1598400E+01  0.7818608E-02  0.3355101E+00
         11   -1    0    0    0    0  0.00000000000E+00  0.00000000000E+00  0.39999999674E+01  0.40000000000E+01  0.51100000000E-03 0.  1.
    9000002   -1    0    0    0    0 -0.00000000000E+00 -0.00000000000E+00  0.00000000000E+00  0.93800000000E+00  0.93800000000E+00 0.  1.
         11    1    1    2    0    0  0.75811309904E-01 -0.38159396765E-01  0.68076230451E+00  0.68603284952E+00  0.51100000000E-03 0.  1.
    9000002    1    1    2    0    0 -0.53933128531E+00  0.70258877583E-01  0.20528275568E+00  0.11035395575E+01  0.93800000000E+00 0.  1.
         22    1    1    2    0    0  0.46351997540E+00 -0.32099480818E-01  0.31139549072E+01  0.31484275930E+01  0.00000000000E+00 0.  1.
</event>
<event>
 5    1  0.6440325E+001  0.1599672E+01  0.7818608E-02  0.3353720E+00
         11   -1    0    0    0    0  0.00000000000E+00  0.00000000000E+00  0.39999999674E+01  0.40000000000E+01  0.51100000000E-03 0.  1.
    9000002   -1    0    0    0    0 -0.00000000000E+00 -0.00000000000E+00  0.00000000000E+00  0.93800000000E+00  0.93800000000E+00 0.  1.
         11    1    1    2    0    0  0.38848822211E-01  0.56251463429E-01  0.58749095110E+00  0.59145527039E+00  0.51100000000E-03 0.  1.
    9000002    1    1    2    0    0 -0.24277012446E+00 -0.37283689347E+00  0.13434543594E+00  0.10468225153E+01  0.93800000000E+00 0.  1.
         22    1    1    2    0    0  0.20392130225E+00  0.31658543004E+00  0.32781635803E+01  0.32997222143E+01  0.00000000000E+00 0.  1.
</event>
<event>
 5    1  0.6440325E+001  0.1599641E+01  0.7818608E-02  0.3353753E+00
         11   -1    0    0    0    0  0.00000000000E+00  0.00000000000E+00  0.39999999674E+01  0.40000000000E+01  0.51100000000E-03 0.  1.
    9000002   -1    0    0    0    0 -0.00000000000E+00 -0.00000000000E+00  0.00000000000E+00  0.93800000000E+00  0.93800000000E+00 0.  1.
         11    1    1    2    0    0  0.91190135037E-01 -0.16328934306E-01  0.72417574615E+00  0.73007742552E+00  0.51100000000E-03 0. -1.
    9000002    1    1    2    0    0 -0.47837361053E+00  0.11607818230E+00  0.16569745692E+00  0.10722010553E+01  0.93800000000E+00 0.  1.
         22    1    1    2    0    0  0.38718347550E+00 -0.99749247997E-01  0.31101267643E+01  0.31357215192E+01  0.00000000000E+00 0.  1.
</event>
<event>
 5    1  0.6440325E+001  0.1595704E+01  0.7818608E-02  0.3358039E+00
         11   -1    0    0    0    0  0.00000000000E+00  0.00000000000E+00  0.39999999674E+01  0.40000000000E+01  0.51100000000E-03 0.  1.
    9000002   -1    0    0    0    0 -0.00000000000E+00 -0.00000000000E+00  0.00000000000E+00  0.93800000000E+00  0.93800000000E+00 0.  1.
         11    1    1    2    0    0  0.15145972998E-01  0.63495948256E-01  0.72532673123E+00  0.72825837730E+00  0.51100000000E-03 0.  1.
    9000002    1    1    2    0    0 -0.30324904907E+00 -0.11442459716E+00  0.73403744303E-01  0.99513068683E+00  0.93800000000E+00 0.  1.
         22    1    1    2    0    0  0.28810307608E+00  0.50928648900E-01  0.32012694918E+01  0.32146109359E+01  0.00000000000E+00 0.  1.
</event>
<event>
 5    1  0.6440325E+001  0.1598087E+01  0.7818608E-02  0.3355443E+00
         11   -1    0    0    0    0  0.00000000000E+00  0.00000000000E+00  0.39999999674E+01  0.40000000000E+01  0.51100000000E-03 0.  1.
    9000002   -1    0    0    0    0 -0.00000000000E+00 -0.00000000000E+00  0.00000000000E+00  0.93800000000E+00  0.93800000000E+00 0. -1.
         11    1    1    2    0    0 -0.79432970441E-01 -0.83788198082E-01  0.14788828776E+01  0.14833829194E+01  0.51100000000E-03 0.  1.
    9000002    1    1    2    0    0  0.28508273463E+00  0.31541856748E+00  0.12368440617E+00  0.10372573792E+01  0.93800000000E+00 0. -1.
         22    1    1    2    0    0 -0.20564976419E+00 -0.23163036940E+00  0.23974326836E+01  0.24173597014E+01  0.00000000000E+00 0.  1.
</event>
<event>
 5    1  0.6440325E+001  0.1593364E+01  0.7818608E-02  0.3360597E+00
         11   -1    0    0    0    0  0.00000000000E+00  0.00000000000E+00  0.39999999674E+01  0.40000000000E+01  0.51100000000E-03 0.  1.
    9000002   -1    0    0    0    0 -0.00000000000E+00 -0.00000000000E+00  0.00000000000E+00  0.93800000000E+00  0.93800000000E+00 0.  1.
         11    1    1    2    0    0 -0.16210313020E-02 -0.71455007853E-01  0.29969603046E+00  0.30810131075E+00  0.51100000000E-03 0.  1.
    9000002    1    1    2    0    0  0.24227558651E+00  0.29866401643E+00  0.10478238315E+00  0.10191766296E+01  0.93800000000E+00 0.  1.
         22    1    1    2    0    0 -0.24065455520E+00 -0.22720900858E+00  0.35955215537E+01  0.36107220596E+01  0.00000000000E+00 0.  1.
</event>
<event>
 5    1  0.6440325E+001  0.1598731E+01  0.7818608E-02  0.3354742E+00
         11   -1    0    0    0    0  0.00000000000E+00  0.00000000000E+00  0.39999999674E+01  0.40000000000E+01  0.51100000000E-03 0. -1.
    9000002   -1    0    0    0    0 -0.00000000000E+00 -0.00000000000E+00  0.00000000000E+00  0.93800000000E+00  0.93800000000E+00 0. -1.
         11    1    1    2    0    0 -0.11390251172E+00  0.50321423249E-01  0.89256258368E+00  0.90120710978E+00  0.51100000000E-03 0. -1.
    9000002    1    1    2    0    0  0.44177538469E+00 -0.92204433705E-01  0.13917262528E+00  0.10501810167E+01  0.93800000000E+00 0. -1.
         22    1    1    2    0    0 -0.32787287296E+00  0.41883010456E-01  0.29682647584E+01  0.29866118736E+01  0.00000000000E+00 0. -1.
</event>
<event>
 5    1  0.6440325E+001  0.1530623E+01  0.7818608E-02  0.3432286E+00
         11   -1    0    0    0    0  0.00000000000E+00  0.00000000000E+00  0.39999999674E+01  0.40000000000E+01  0.51100000000E-03 0. -1.
    9000002   -1    0    0    0    0 -0.00000000000E+00 -0.00000000000E+00  0.00000000000E+00  0.93800000000E+00  0.93800000000E+00 0. -1.
         11    1    1    2    0    0 -0.78920918151E-02 -0.12056705007E+00  0.16209914007E+00  0.20217589126E+00  0.51100000000E-03 0. -1.
    9000002    1    1    2    0    0 -0.16328782099E+00 -0.25179878236E+00  0.11625113137E+00  0.99167729874E+00  0.93800000000E+00 0. -1.
         22    1    1    2    0    0  0.17117991281E+00  0.37236583243E+00  0.37216496959E+01  0.37441468100E+01  0.00000000000E+00 0. -1.
</event>
<event>
 5    1  0.6440325E+001  0.1598592E+01  0.7818608E-02  0.3354893E+00
         11   -1    0    0    0    0  0.00000000000E+00  0.00000000000E+00  0.39999999674E+01  0.40000000000E+01  0.51100000000E-03 0.  1.
    9000002   -1    0    0    0    0 -0.00000000000E+00 -0.00000000000E+00  0.00000000000E+00  0.93800000000E+00  0.93800000000E+00 0. -1.
         11    1    1    2    0    0 -0.22175553884E-01  0.10075315401E+00  0.84264869646E+00  0.84894053973E+00  0.51100000000E-03 0.  1.
    9000002    1    1    2    0    0  0.24931732420E+00 -0.45727688582E+00  0.18735743475E+00  0.10891318041E+01  0.93800000000E+00 0. -1.
         22    1    1    2    0    0 -0.22714177031E+00  0.35652373181E+00  0.29699938362E+01  0.29999276561E+01  0.00000000000E+00 0.  1.
</event>
<event>
 5    1  0.6440325E+001  0.1599661E+01  0.7818608E-02  0.3353731E+00
         11   -1    0    0    0    0  0.00000000000E+00  0.00000000000E+00  0.39999999674E+01  0.40000000000E+01  0.51100000000E-03 0.  1.
    9000002   -1    0    0    0    0 -0.00000000000E+00 -0.00000000000E+00  0.00000000000E+00  0.93800000000E+00  0.93800000000E+00 0. -1.
         11    1    1    2    0    0 -0.64487443408E-01  0.54952679357E-02  0.62490501353E+00  0.62824785347E+00  0.51100000000E-03 0.  1.
    9000002    1    1    2    0    0  0.39465145252E+00 -0.54980164115E-01  0.10708751829E+00  0.10247362217E+01  0.93800000000E+00 0. -1.
         22    1    1    2    0    0 -0.33016400911E+00  0.49484896180E-01  0.32680074355E+01  0.32850159249E+01  0.00000000000E+00 0.  1.
</event>
<event>
 5    1  0.6440325E+001  0.1594501E+01  0.7818608E-02  0.3359354E+00
         11   -1    0    0    0    0  0.00000000000E+00  0.00000000000E+00  0.39999999674E+01  0.40000000000E+01  0.51100000000E-03 0.  1.
    9000002   -1    0    0    0    0 -0.00000000000E+00 -0.00000000000E+00  0.00000000000E+00  0.93800000000E+00  0.93800000000E+00 0.  1.
         11    1    1    2    0    0 -0.71352043191E-01  0.88036209802E-01  0.70076505576E+00  0.70986858840E+00  0.51100000000E-03 0.  1.
    9000002    1    1    2    0    0  0.39793334061E+00 -0.11783021200E+00  0.12077065478E+00  0.10327944875E+01  0.93800000000E+00 0.  1.
         22    1    1    2    0    0 -0.32658129742E+00  0.29794002197E-01  0.31784642568E+01  0.31953369241E+01  0.00000000000E+00 0.  1.
</event>
<event>
 5    1  0.6440325E+001  0.1599673E+01  0.7818608E-02  0.3353718E+00
         11   -1    0    0    0    0  0.00000000000E+00  0.00000000000E+00  0.39999999674E+01  0.40000000000E+01  0.51100000000E-03 0.  1.
    9000002   -1    0    0    0    0 -0.00000000000E+00 -0.00000000000E+00  0.00000000000E+00  0.93800000000E+00  0.93800000000E+00 0.  1.
         11    1    1    2    0    0 -0.49834456300E-01 -0.13550122247E+00  0.14416366990E+01  0.14488480553E+01  0.51100000000E-03 0.  1.
    9000002    1    1    2    0    0  0.13727018435E+00  0.36083025241E+00  0.10035859791E+00  0.10192926090E+01  0.93800000000E+00 0.  1.
         22    1    1    2    0    0 -0.87435728046E-01 -0.22532902993E+00  0.24580046705E+01  0.24698593357E+01  0.00000000000E+00 0. -1.
</event>
<event>
 5    1  0.6440325E+001  0.1590700E+01  0.7818608E-02  0.3363520E+00
         11   -1    0    0    0    0  0.00000000000E+00  0.00000000000E+00  0.39999999674E+01  0.40000000000E+01  0.51100000000E-03 0. -1.
    9000002   -1    0    0    0    0 -0.00000000000E+00 -0.00000000000E+00  0.00000000000E+00  0.93800000000E+00  0.93800000000E+00 0.  1.
         11    1    1    2    0    0  0.84059906370E-01  0.28575864488E-01  0.90586309541E+00  0.91020374457E+00  0.51100000000E-03 0. -1.
    9000002    1    1    2    0    0 -0.73529062359E-02 -0.33799614425E+00  0.83749114275E-01  0.10005765203E+01  0.93800000000E+00 0.  1.
         22    1    1    2    0    0 -0.76707000134E-01  0.30942027977E+00  0.30103877577E+01  0.30272197352E+01  0.00000000000E+00 0. -1.
</event>
<event>
 5    1  0.6440325E+001  0.1593516E+01  0.7818608E-02  0.3360431E+00
         11   -1    0    0    0    0  0.00000000000E+00  0.00000000000E+00  0.39999999674E+01  0.40000000000E+01  0.51100000000E-03 0.  1.
    9000002   -1    0    0    0    0 -0.00000000000E+00 -0.00000000000E+00  0.00000000000E+00  0.93800000000E+00  0.93800000000E+00 0.  1.
         11    1    1    2    0    0 -0.25305059018E+00 -0.68850460191E-01  0.14719892691E+01  0.14951681031E+01  0.51100000000E-03 0.  1.
    9000002    1    1    2    0    0  0.42368798647E+00  0.22788902401E+00  0.16342556025E+00  0.10667693429E+01  0.93800000000E+00 0.  1.
         22    1    1    2    0    0 -0.17063739629E+00 -0.15903856382E+00  0.23645851380E+01  0.23760625540E+01  0.00000000000E+00 0.  1.
</event>
<event>
 5    1  0.6440325E+001  0.1475080E+01  0.7818608E-02  0.3501208E+00
         11   -1    0    0    0    0  0.00000000000E+00  0.00000000000E+00  0.39999999674E+01  0.40000000000E+01  0.51100000000E-03 0. -1.
    9000002   -1    0    0    0    0 -0.00000000000E+00 -0.00000000000E+00  0.00000000000E+00  0.93800000000E+00  0.93800000000E+00 0.  1.
         11    1    1    2    0    0 -0.62643757512E-02  0.26177308323E+00  0.48935582499E+00  0.55500790452E+00  0.51100000000E-03 0. -1.
    9000002    1    1    2    0    0 -0.17511711759E-02  0.20079228652E+00  0.12671564490E+00  0.96758537793E+00  0.93800000000E+00 0.  1.
         22    1    1    2    0    0  0.80155469271E-02 -0.46256536975E+00  0.33839284975E+01  0.34154067175E+01  0.00000000000E+00 0. -1.
</event>
<event>
 5    1  0.6440325E+001  0.1599677E+01  0.7818608E-02  0.3353714E+00
         11   -1    0    0    0    0  0.00000000000E+00  0.00000000000E+00  0.39999999674E+01  0.40000000000E+01  0.51100000000E-03 0. -1.
    9000002   -1    0    0    0    0 -0.00000000000E+00 -0.00000000000E+00  0.00000000000E+00  0.93800000000E+00  0.93800000000E+00 0. -1.
         11    1    1    2    0    0  0.25392271915E-01  0.85503018870E-01  0.80552348258E+00  0.81044671374E+00  0.51100000000E-03 0.  1.
    9000002    1    1    2    0    0 -0.12275152239E+00 -0.41189264336E+00  0.12509806984E+00  0.10393348897E+01  0.93800000000E+00 0. -1.
         22    1    1    2    0    0  0.97359250473E-01  0.32638962449E+00  0.30693784149E+01  0.30882183965E+01  0.00000000000E+00 0. -1.
</event>
<event>
 5    1  0.6440325E+001  0.1581045E+01  0.7818608E-02  0.3374197E+00
         11   -1    0    0    0    0  0.00000000000E+00  0.00000000000E+00  0.39999999674E+01  0.40000000000E+01  0.51100000000E-03 0. -1.
    9000002   -1    0    0    0    0 -0.00000000000E+00 -0.00000000000E+00  0.00000000000E+00  0.93800000000E+00  0.93800000000E+00 0. -1.
         11    1    1    2    0    0 -0.11044793517E+00  0.16372230440E+00  0.74255026833E+00  0.76836508344E+00  0.51100000000E-03 0. -1.
    9000002    1    1    2    0    0  0.41025257064E+00 -0.18945497003E+00  0.15502577386E+00  0.10526525295E+01  0.93800000000E+00 0. -1.
         22    1    1    2    0    0 -0.29980463547E+00  0.25732665632E-01  0.31024239252E+01  0.31169823870E+01  0.00000000000E+00 0. -1.
</event>
<event>
 5    1  0.7099234E+001  0.1599676E+01  0.7818608E-02  0.3353715E+00
         11   -1    0    0    0    0  0.00000000000E+00  0.00000000000E+00  0.39999999674E+01  0.40000000000E+01  0.51100000000E-03 0. -1.
    9000002   -1    0    0    0    0 -0.00000000000E+00 -0.00000000000E+00  0.00000000000E+00  0.93800000000E+00  0.93800000000E+00 0. -1.
         11    1    1    2    0    0  0.14439429175E+00  0.20960503059E-01  0.14355799702E+01  0.14429758023E+01  0.51100000000E-03 0. -1.
    9000002    1    1    2    0    0 -0.39399916012E+00 -0.57984447906E-01  0.10695374681E+00  0.10246368324E+01  0.93800000000E+00 0. -1.
         22    1    1    2    0    0  0.24960486837E+00  0.37023944847E-01  0.24574662503E+01  0.24703873652E+01  0.00000000000E+00 0. -1.
</event>
<event>
 5    1  0.6440325E+001  0.1530080E+01  0.7818608E-02  0.3432933E+00
         11   -1    0    0    0    0  0.00000000000E+00  0.00000000000E+00  0.39999999674E+01  0.40000000000E+01  0.51100000000E-03 0. -1.
    9000002   -1    0    0    0    0 -0.00000000000E+00 -0.00000000000E+00  0.00000000000E+00  0.93800000000E+00  0.93800000000E+00 0. -1.
         11    1    1    2    0    0  0.92395779710E-01 -0.15636599344E-01  0.81907529629E-01  0.12446119025E+00  0.51100000000E-03 0. -1.
    9000002    1    1    2    0    0  0.27679047461E+00 -0.20975843425E+00  0.13907917091E+00  0.10098507728E+01  0.93800000000E+00 0. -1.
         22    1    1    2    0    0 -0.36918625432E+00  0.22539503359E+00  0.37790132668E+01  0.38036880369E+01  0.00000000000E+00 0. -1.
</event>
<event>
 5    1  0.6440325E+001  0.1598101E+01  0.7818608E-02  0.3355427E+00
         11   -1    0    0    0    0  0.00000000000E+00  0.00000000000E+00  0.39999999674E+01  0.40000000000E+01  0.51100000000E-03 0.  1.
    9000002   -1    0    0    0    0 -0.00000000000E+00 -0.00000000000E+00  0.00000000000E+00  0.93800000000E+00  0.93800000000E+00 0. -1.
         11    1    1    2    0    0  0.33778266306E-01 -0.10687631894E+00  0.13640491673E+01  0.13686467444E+01  0.51100000000E-03 0.  1.
    9000002    1    1    2    0    0  0.22991608809E-01  0.35847580153E+00  0.87884774010E-01  0.10082664568E+01  0.93800000000E+00 0. -1.
         22    1    1    2    0    0 -0.56769875115E-01 -0.25159948259E+00  0.25480660260E+01  0.25610867989E+01  0.00000000000E+00 0.  1.
</event>
<event>
 5    1  0.6440325E+001  0.1594208E+01  0.7818608E-02  0.3359674E+00
         11   -1    0    0    0    0  0.00000000000E+00  0.00000000000E+00  0.39999999674E+01  0.40000000000E+01  0.51100000000E-03 0. -1.
    9000002   -1    0    0    0    0 -0.00000000000E+00 -0.00000000000E+00  0.00000000000E+00  0.93800000000E+00  0.93800000000E+00 0. -1.
         11    1    1    2    0    0 -0.18176332386E+00 -0.12994751407E+00  0.11153301292E+01  0.11374910199E+01  0.51100000000E-03 0. -1.
    9000002    1    1    2    0    0  0.39631694508E+00  0.28308676658E+00  0.16691982319E+00  0.10700053578E+01  0.93800000000E+00 0. -1.
         22    1    1    2    0    0 -0.21455362122E+00 -0.15313925251E+00  0.27177500150E+01  0.27305036223E+01  0.00000000000E+00 0. -1.
</event>
<event>
 5    1  0.6440325E+001  0.1589802E+01  0.7818608E-02  0.3364506E+00
         11   -1    0    0    0    0  0.00000000000E+00  0.00000000000E+00  0.39999999674E+01  0.40000000000E+01  0.51100000000E-03 0. -1.
    9000002   -1    0    0    0    0 -0.00000000000E+00 -0.00000000000E+00  0.00000000000E+00  0.93800000000E+00  0.93800000000E+00 0. -1.
         11    1    1    2    0    0 -0.12105524507E+00  0.65652944050E-01  0.95307656121E+00  0.96297449295E+00  0.51100000000E-03 0. -1.
    9000002    1    1    2    0    0  0.32381961245E+00  0.11507614342E+00  0.87096657749E-01  0.10027619299E+01  0.93800000000E+00 0. -1.
         22    1    1    2    0    0 -0.20276436737E+00 -0.18072908747E+00  0.29598267484E+01  0.29722635772E+01  0.00000000000E+00 0. -1.
</event>
<event>
 5    1  0.6440325E+001  0.1599677E+01  0.7818608E-02  0.3353714E+00
         11   -1    0    0    0    0  0.00000000000E+00  0.00000000000E+00  0.39999999674E+01  0.40000000000E+01  0.51100000000E-03 0.  1.
    9000002   -1    0    0    0    0 -0.00000000000E+00 -0.00000000000E+00  0.00000000000E+00  0.93800000000E+00  0.93800000000E+00 0. -1.
         11    1    1    2    0    0  0.90238273590E-01 -0.18448540184E+00  0.13018936334E+01  0.13179928313E+01  0.51100000000E-03 0.  1.
    9000002    1    1    2    0    0 -0.26043230897E+00  0.53398380413E+00  0.24595487833E+00  0.11372341416E+01  0.93800000000E+00 0. -1.
         22    1    1    2    0    0  0.17019403538E+00 -0.34949840228E+00  0.24521514556E+01  0.24827730271E+01  0.00000000000E+00 0.  1.
</event>
<event>
 5    1  0.6440325E+001  0.1599675E+01  0.7818608E-02  0.3353717E+00
         11   -1    0    0    0    0  0.00000000000E+00  0.00000000000E+00  0.39999999674E+01  0.40000000000E+01  0.51100000000E-03 0.  1.
    9000002   -1    0    0    0    0 -0.00000000000E+00 -0.00000000000E+00  0.00000000000E+00  0.93800000000E+00  0.93800000000E+00 0.  1.
         11    1    1    2    0    0 -0.86633199801E-02  0.42284127613E-01  0.40963251525E+00  0.41190054531E+00  0.51100000000E-03 0. -1.
    9000002    1    1    2    0    0  0.72511151769E-01 -0.39847411593E+00  0.11072173935E+00  0.10276880810E+01  0.93800000000E+00 0.  1.
         22    1    1    2    0    0 -0.63847831789E-01  0.35618998832E+00  0.34796457128E+01  0.34984113737E+01  0.00000000000E+00 0.  1.
</event>
<event>
 5    1  0.6627822E+001  0.1547893E+01  0.7818608E-02  0.3411935E+00
         11   -1    0    0    0    0  0.00000000000E+00  0.00000000000E+00  0.39999999674E+01  0.40000000000E+01  0.51100000000E-03 0. -1.
    9000002   -1    0    0    0    0 -0.00000000000E+00 -0.00000000000E+00  0.00000000000E+00  0.93800000000E+00  0.93800000000E+00 0.  1.
         11    1    1    2    0    0 -0.12092738193E+00  0.24895002376E+00  0.14465293165E+01  0.14727684375E+01  0.51100000000E-03 0. -1.
    9000002    1    1    2    0    0 -0.99534634011E-01 -0.10063165931E+00  0.52377511246E-01  0.95006382833E+00  0.93800000000E+00 0.  1.
         22    1    1    2    0    0  0.22046201594E+00 -0.14831836445E+00  0.25010931396E+01  0.25151677341E+01  0.00000000000E+00 0. -1.
</event>
<event>
 5    1  0.6440325E+001  0.1465445E+01  0.7818608E-02  0.3513739E+00
         11   -1    0    0    0    0  0.00000000000E+00  0.00000000000E+00  0.39999999674E+01  0.40000000000E+01  0.51100000000E-03 0.  1.
    9000002   -1    0    0    0    0 -0.00000000000E+00 -0.00000000000E+00  0.00000000000E+00  0.93800000000E+00  0.93800000000E+00 0.  1.
         11    1    1    2    0    0 -0.86503141497E-01 -0.29439147409E+00  0.70235920335E+00  0.76645798656E+00  0.51100000000E-03 0.  1.
    9000002    1    1    2    0    0 -0.24762835008E+00 -0.12629535031E+00  0.16374433685E+00  0.99193070480E+00  0.93800000000E+00 0.  1.
         22    1    1    2    0    0  0.33413149157E+00  0.42068682440E+00  0.31338964272E+01  0.31796113086E+01  0.00000000000E+00 0.  1.
</event>
<event>
 5    1  0.6440325E+001  0.1599047E+01  0.7818608E-02  0.3354398E+00
         11   -1    0    0    0    0  0.00000000000E+00  0.00000000000E+00  0.39999999674E+01  0.40000000000E+01  0.51100000000E-03 0. -1.
    9000002   -1    0    0    0    0 -0.00000000000E+00 -0.00000000000E+00  0.00000000000E+00  0.93800000000E+00  0.93800000000E+00 0. -1.
         11    1    1    2    0    0 -0.85213805759E-01  0.87049896236E-01  0.84220242082E+00  0.85096665968E+00  0.51100000000E-03 0. -1.
    9000002    1    1    2    0    0  0.37196812219E+00 -0.49784967571E+00  0.27137332525E+00  0.11574549949E+01  0.93800000000E+00 0. -1.
         22    1    1    2    0    0 -0.28675431643E+00  0.41079977947E+00  0.28864242213E+01  0.29295783454E+01  0.00000000000E+00 0. -1.
</event>
<event>
 5    1  0.6440325E+001  0.1599576E+01  0.7818608E-02  0.3353824E+00
         11   -1    0    0    0    0  0.00000000000E+00  0.00000000000E+00  0.39999999674E+01  0.40000000000E+01  0.51100000000E-03 0. -1.
    9000002   -1    0    0    0    0 -0.00000000000E+00 -0.00000000000E+00  0.00000000000E+00  0.93800000000E+00  0.93800000000E+00 0. -1.
         11    1    1    2    0    0 -0.17077287956E-01  0.96973760109E-01  0.10277093326E+01  0.10324157483E+01  0.51100000000E-03 0. -1.
    9000002    1    1    2    0    0  0.90792097598E-01 -0.39782404956E+00  0.11251483485E+00  0.10290824882E+01  0.93800000000E+00 0. -1.
         22    1    1    2    0    0 -0.73714809642E-01  0.30085028945E+00  0.28597757999E+01  0.28765017635E+01  0.00000000000E+00 0. -1.
</event>
<event>
 5    1  0.6440325E+001  0.1480523E+01  0.7818608E-02  0.3494207E+00
         11   -1    0    0    0    0  0.00000000000E+00  0.00000000000E+00  0.39999999674E+01  0.40000000000E+01  0.51100000000E-03 0.  1.
    9000002   -1    0    0    0    0 -0.00000000000E+00 -0.00000000000E+00  0.00000000000E+00  0.93800000000E+00  0.93800000000E+00 0.  1.
         11    1    1    2    0    0 -0.16845852930E+00 -0.23352778281E+00  0.37768608334E+00  0.47493214263E+00  0.51100000000E-03 0.  1.
    9000002    1    1    2    0    0 -0.34282517709E+00 -0.16506587558E+00  0.26859627494E+00  0.10472649160E+01  0.93800000000E+00 0.  1.
         22    1    1    2    0    0  0.51128370639E+00  0.39859365839E+00  0.33537176091E+01  0.34158029414E+01  0.00000000000E+00 0.  1.
</event>
<event>
 5    1  0.6440325E+001  0.1599518E+01  0.7818608E-02  0.3353887E+00
         11   -1    0    0    0    0  0.00000000000E+00  0.00000000000E+00  0.39999999674E+01  0.40000000000E+01  0.51100000000E-03 0.  1.
    9000002   -1    0    0    0    0 -0.00000000000E+00 -0.00000000000E+00  0.00000000000E+00  0.93800000000E+00  0.93800000000E+00 0. -1.
         11    1    1    2    0    0 -0.72042536588E-02  0.10099910856E-02  0.12991770739E+00  0.13012222396E+00  0.51100000000E-03 0.  1.
    9000002    1    1    2    0    0  0.36180160535E+00 -0.10489207877E+00  0.95570040084E-01  0.10153227971E+01  0.93800000000E+00 0. -1.
         22    1    1    2    0    0 -0.35459735169E+00  0.10388208768E+00  0.37745122199E+01  0.37925549789E+01  0.00000000000E+00 0.  1.
</event>
<event>
 5    1  0.6440325E+001  0.1582394E+01  0.7818608E-02  0.3372696E+00
         11   -1    0    0    0    0  0.00000000000E+00  0.00000000000E+00  0.39999999674E+01  0.40000000000E+01  0.51100000000E-03 0.  1.
    9000002   -1    0    0    0    0 -0.00000000000E+00 -0.00000000000E+00  0.00000000000E+00  0.93800000000E+00  0.93800000000E+00 0.  1.
         11    1    1    2    0    0 -0.42176440587E-02  0.52099645000E-01  0.47939938892E+00  0.48224080784E+00  0.51100000000E-03 0.  1.
    9000002    1    1    2    0    0  0.13958139815E+00  0.41398276633E+00  0.14431230643E+00  0.10447653992E+01  0.93800000000E+00 0.  1.
         22    1    1    2    0    0 -0.13536375409E+00 -0.46608241133E+00  0.33762882720E+01  0.34109937930E+01  0.00000000000E+00 0.  1.
</event>
<event>
 5    1  0.6440325E+001  0.1593415E+01  0.7818608E-02  0.3360541E+00
         11   -1    0    0    0    0  0.00000000000E+00  0.00000000000E+00  0.39999999674E+01  0.40000000000E+01  0.51100000000E-03 0.  1.
    9000002   -1    0    0    0    0 -0.00000000000E+00 -0.00000000000E+00  0.00000000000E+00  0.93800000000E+00  0.93800000000E+00 0.  1.
         11    1    1    2    0    0  0.75049350042E-01  0.27660754153E-01  0.12663171521E+01  0.12688407753E+01  0.51100000000E-03 0.  1.
    9000002    1    1    2    0    0 -0.21680640001E+00  0.19021837664E+00  0.60325226493E-01  0.98319437491E+00  0.93800000000E+00 0.  1.
         22    1    1    2    0    0  0.14175704997E+00 -0.21787913080E+00  0.26733575888E+01  0.26859648498E+01  0.00000000000E+00 0.  1.
</event>
<event>
 5    1  0.6440325E+001  0.1599676E+01  0.7818608E-02  0.3353715E+00
         11   -1    0    0    0    0  0.00000000000E+00  0.00000000000E+00  0.39999999674E+01  0.40000000000E+01  0.51100000000E-03 0. -1.
    9000002   -1    0    0    0    0 -0.00000000000E+00 -0.00000000000E+00  0.00000000000E+00  0.93800000000E+00  0.93800000000E+00 0.  1.
         11    1    1    2    0    0  0.82752310820E-01  0.85512831616E-02  0.88514556142E+00  0.88904667786E+00  0.51100000000E-03 0. -1.
    9000002    1    1    2    0    0 -0.36940674288E+00 -0.40524330101E-01  0.92829735265E-01  0.10131954021E+01  0.93800000000E+00 0.  1.
         22    1    1    2    0    0  0.28665443206E+00  0.31973046939E-01  0.30220246707E+01  0.30357579201E+01  0.00000000000E+00 0. -1.
</event>
<event>
 5    1  0.6440325E+001  0.1596034E+01  0.7818608E-02  0.3357680E+00
         11   -1    0    0    0    0  0.00000000000E+00  0.00000000000E+00  0.39999999674E+01  0.40000000000E+01  0.51100000000E-03 0. -1.
    9000002   -1    0    0    0    0 -0.00000000000E+00 -0.00000000000E+00  0.00000000000E+00  0.93800000000E+00  0.93800000000E+00 0.  1.
         11    1    1    2    0    0 -0.23649062057E-01 -0.33709438856E-01  0.12260385243E+00  0.12933510798E+00  0.51100000000E-03 0. -1.
    9000002    1    1    2    0    0  0.31354689178E+00  0.35720908172E+00  0.15724686980E+00  0.10632405934E+01  0.93800000000E+00 0.  1.
         22    1    1    2    0    0 -0.28989782972E+00 -0.32349964286E+00  0.37201492451E+01  0.37454242986E+01  0.00000000000E+00 0. -1.
</event>
<event>
 5    1  0.6440325E+001  0.1583481E+01  0.7818608E-02  0.3371490E+00
         11   -1    0    0    0    0  0.00000000000E+00  0.00000000000E+00  0.39999999674E+01  0.40000000000E+01  0.51100000000E-03 0.  1.
    9000002   -1    0    0    0    0 -0.00000000000E+00 -0.00000000000E+00  0.00000000000E+00  0.93800000000E+00  0.93800000000E+00 0.  1.
         11    1    1    2    0    0  0.57392017489E-01  0.12330787975E+00  0.96363103187E+00  0.97318225610E+00  0.51100000000E-03 0.  1.
    9000002    1    1    2    0    0  0.24428467152E+00 -0.25668200482E+00  0.97423326946E-01  0.10074204470E+01  0.93800000000E+00 0.  1.
         22    1    1    2    0    0 -0.30167668901E+00  0.13337412507E+00  0.29389456085E+01  0.29573972969E+01  0.00000000000E+00 0.  1.
</event>
<event>
 5    1  0.6440325E+001  0.1582348E+01  0.7818608E-02  0.3372748E+00
         11   -1    0    0    0    0  0.00000000000E+00  0.00000000000E+00  0.39999999674E+01  0.40000000000E+01  0.51100000000E-03 0. -1.
    9000002   -1    0    0    0    0 -0.00000000000E+00 -0.00000000000E+00  0.00000000000E+00  0.93800000000E+00  0.93800000000E+00 0. -1.
         11    1    1    2    0    0 -0.52844499067E+00  0.12468542529E+00  0.99793506631E+00  0.11360788798E+01  0.51100000000E-03 0. -1.
    9000002    1    1    2    0    0  0.10948007743E+01 -0.17646746829E+00  0.11151308688E+01  0.18311445484E+01  0.93800000000E+00 0. -1.
         22    1    1    2    0    0 -0.56635578363E+00  0.51782042997E-01  0.18869340323E+01  0.19707765718E+01  0.00000000000E+00 0. -1.
</event>
<event>
 5    1  0.6440325E+001  0.1599660E+01  0.7818608E-02  0.3353732E+00
         11   -1    0    0    0    0  0.00000000000E+00  0.00000000000E+00  0.39999999674E+01  0.40000000000E+01  0.51100000000E-03 0.  1.
    9000002   -1    0    0    0    0 -0.00000000000E+00 -0.00000000000E+00  0.00000000000E+00  0.93800000000E+00  0.93800000000E+00 0.  1.
         11    1    1    2    0    0 -0.47498552227E-02  0.31258101891E-02  0.45297985633E-01  0.45656329653E-01  0.51100000000E-03 0.  1.
    9000002    1    1    2    0    0  0.46916476781E+00 -0.22548630399E+00  0.18615967035E+00  0.10887878928E+01  0.93800000000E+00 0.  1.
         22    1    1    2    0    0 -0.46441491259E+00  0.22236049380E+00  0.37685423114E+01  0.38035557775E+01  0.00000000000E+00 0.  1.
</event>
<event>
 5    1  0.6440325E+001  0.1599677E+01  0.7818608E-02  0.3353714E+00
         11   -1    0    0    0    0  0.00000000000E+00  0.00000000000E+00  0.39999999674E+01  0.40000000000E+01  0.51100000000E-03 0. -1.
    9000002   -1    0    0    0    0 -0.00000000000E+00 -0.00000000000E+00  0.00000000000E+00  0.93800000000E+00  0.93800000000E+00 0. -1.
         11    1    1    2    0    0  0.26514833609E-01  0.28125292757E-01  0.39544742665E+00  0.39733235063E+00  0.51100000000E-03 0. -1.
    9000002    1    1    2    0    0 -0.26058534442E+00 -0.27546862967E+00  0.96737066400E-01  0.10163610322E+01  0.93800000000E+00 0. -1.
         22    1    1    2    0    0  0.23407051081E+00  0.24734333692E+00  0.35078154743E+01  0.35243066172E+01  0.00000000000E+00 0. -1.
</event>
<event>
 5    1  0.6440325E+001  0.1599185E+01  0.7818608E-02  0.3354249E+00
         11   -1    0    0    0    0  0.00000000000E+00  0.00000000000E+00  0.39999999674E+01  0.40000000000E+01  0.51100000000E-03 0. -1.
    9000002   -1    0    0    0    0 -0.00000000000E+00 -0.00000000000E+00  0.00000000000E+00  0.93800000000E+00  0.93800000000E+00 0.  1.
         11    1    1    2    0    0  0.10627505670E+00 -0.28333198391E-02  0.13257882180E+01  0.13300440126E+01  0.51100000000E-03 0. -1.
    9000002    1    1    2    0    0 -0.36979106731E+00 -0.40371852497E-01  0.93417504225E-01  0.10133835158E+01  0.93800000000E+00 0.  1.
         22    1    1    2    0    0  0.26351601061E+00  0.43205172336E-01  0.25807942452E+01  0.25945724716E+01  0.00000000000E+00 0. -1.
</event>
<event>
 5    1  0.6440325E+001  0.1599668E+01  0.7818608E-02  0.3353724E+00
         11   -1    0    0    0    0  0.00000000000E+00  0.00000000000E+00  0.39999999674E+01  0.40000000000E+01  0.51100000000E-03 0. -1.
    9000002   -1    0    0    0    0 -0.00000000000E+00 -0.00000000000E+00  0.00000000000E+00  0.93800000000E+00  0.93800000000E+00 0. -1.
         11    1    1    2    0    0  0.10892296536E-01 -0.21959031530E-01  0.26564934206E+00  0.26677832604E+00  0.51100000000E-03 0. -1.
    9000002    1    1    2    0    0 -0.16077761423E+00  0.34847648695E+00  0.99152478289E-01  0.10183125832E+01  0.93800000000E+00 0. -1.
         22    1    1    2    0    0  0.14988531769E+00 -0.32651745542E+00  0.36351981470E+01  0.36529090907E+01  0.00000000000E+00 0. -1.
</event>
<event>
 5    1  0.6440325E+001  0.1599540E+01  0.7818608E-02  0.3353862E+00
         11   -1    0    0    0    0  0.00000000000E+00  0.00000000000E+00  0.39999999674E+01  0.40000000000E+01  0.51100000000E-03 0.  1.
    9000002   -1    0    0    0    0 -0.00000000000E+00 -0.00000000000E+00  0.00000000000E+00  0.93800000000E+00  0.93800000000E+00 0. -1.
         11    1    1    2    0    0 -0.32932503343E-01  0.21016357449E+00  0.14681337042E+01  0.14834655751E+01  0.51100000000E-03 0.  1.
    9000002    1    1    2    0    0  0.10270342849E+00 -0.51421081967E+00  0.18914748913E+00  0.10911377245E+01  0.93800000000E+00 0. -1.
         22    1    1    2    0    0 -0.69770925147E-01  0.30404724518E+00  0.23427187740E+01  0.23633967004E+01  0.00000000000E+00 0.  1.
</event>
<event>
 5    1  0.6440325E+001  0.1599659E+01  0.7818608E-02  0.3353734E+00
         11   -1    0    0    0    0  0.00000000000E+00  0.00000000000E+00  0.39999999674E+01  0.40000000000E+01  0.51100000000E-03 0. -1.
    9000002   -1    0    0    0    0 -0.00000000000E+00 -0.00000000000E+00  0.00000000000E+00  0.93800000000E+00  0.93800000000E+00 0. -1.
         11    1    1    2    0    0 -0.31607893932E-01 -0.43351598609E-01  0.48638622664E+00  0.48933653312E+00  0.51100000000E-03 0. -1.
    9000002    1    1    2    0    0  0.26859048769E+00  0.32441780884E+00  0.12000272796E+00  0.10351968023E+01  0.93800000000E+00 0. -1.
         22    1    1    2    0    0 -0.23698259376E+00 -0.28106621023E+00  0.33936110128E+01  0.34134666646E+01  0.00000000000E+00 0. -1.
</event>
<event>
 5    1  0.6440325E+001  0.1599675E+01  0.7818608E-02  0.3353717E+00
         11   -1    0    0    0    0  0.00000000000E+00  0.00000000000E+00  0.39999999674E+01  0.40000000000E+01  0.51100000000E-03 0. -1.
    9000002   -1    0    0    0    0 -0.00000000000E+00 -0.00000000000E+00  0.00000000000E+00  0.93800000000E+00  0.93800000000E+00 0. -1.
         11    1    1    2    0    0 -0.20685076793E-01  0.59492839220E-01  0.47867120172E+00  0.48279773280E+00  0.51100000000E-03 0. -1.
    9000002    1    1    2    0    0  0.17471697462E+00 -0.47509710930E+00  0.17559937150E+00  0.10802418358E+01  0.93800000000E+00 0. -1.
         22    1    1    2    0    0 -0.15403189782E+00  0.41560427008E+00  0.33457293941E+01  0.33749604314E+01  0.00000000000E+00 0. -1.
</event>
<event>
 5    1  0.6440325E+001  0.1595199E+01  0.7818608E-02  0.3358591E+00
         11   -1    0    0    0    0  0.00000000000E+00  0.00000000000E+00  0.39999999674E+01  0.40000000000E+01  0.51100000000E-03 0. -1.
    9000002   -1    0    0    0    0 -0.00000000000E+00 -0.00000000000E+00  0.00000000000E+00  0.93800000000E+00  0.93800000000E+00 0. -1.
         11    1    1    2    0    0 -0.24790644730E-01  0.23406239424E+00  0.97829582054E+00  0.10062120820E+01  0.51100000000E-03 0. -1.
    9000002    1    1    2    0    0  0.20687661697E+00 -0.63454316536E+00  0.32049876706E+00  0.11949922272E+01  0.93800000000E+00 0. -1.
         22    1    1    2    0    0 -0.18208597224E+00  0.40048077112E+00  0.27012053798E+01  0.27367956908E+01  0.00000000000E+00 0. -1.
</event>
<event>
 5    1  0.6440325E+001  0.1599677E+01  0.7818608E-02  0.3353714E+00
         11   -1    0    0    0    0  0.00000000000E+00  0.00000000000E+00  0.39999999674E+01  0.40000000000E+01  0.51100000000E-03 0. -1.
    9000002   -1    0    0    0    0 -0.00000000000E+00 -0.00000000000E+00  0.00000000000E+00  0.93800000000E+00  0.93800000000E+00 0.  1.
         11    1    1    2    0    0 -0.10376809612E+00  0.68529764798E-01  0.85812459747E+00  0.86708836478E+00  0.51100000000E-03 0. -1.
    9000002    1    1    2    0    0  0.45953514725E+00 -0.30202687467E+00  0.20885925299E+00  0.11071851571E+01  0.93800000000E+00 0.  1.
         22    1    1    2    0    0 -0.35576705113E+00  0.23349710987E+00  0.29330161169E+01  0.29637264781E+01  0.00000000000E+00 0. -1.
</event>
<event>
 5    1  0.6440325E+001  0.1590562E+01  0.7818608E-02  0.3363671E+00
         11   -1    0    0    0    0  0.00000000000E+00  0.00000000000E+00  0.39999999674E+01  0.40000000000E+01  0.51100000000E-03 0.  1.
    9000002   -1    0    0    0    0 -0.00000000000E+00 -0.00000000000E+00  0.00000000000E+00  0.93800000000E+00  0.93800000000E+00 0. -1.
         11    1    1    2    0    0 -0.14817235793E+00 -0.27177226604E+00  0.99089244190E+00  0.10381152657E+01  0.51100000000E-03 0.  1.
    9000002    1    1    2    0    0  0.17081493576E+00  0.82599793453E+00  0.54507724246E+00  0.13741919554E+01  0.93800000000E+00 0. -1.
         22    1    1    2    0    0 -0.22642577835E-01 -0.55422566848E+00  0.24640302830E+01  0.25256927789E+01  0.00000000000E+00 0.  1.
</event>
<event>
 5    1  0.6440325E+001  0.1598897E+01  0.7818608E-02  0.3354561E+00
         11   -1    0    0    0    0  0.00000000000E+00  0.00000000000E+00  0.39999999674E+01  0.40000000000E+01  0.51100000000E-03 0.  1.
    9000002   -1    0    0    0    0 -0.00000000000E+00 -0.00000000000E+00  0.00000000000E+00  0.93800000000E+00  0.93800000000E+00 0. -1.
         11    1    1    2    0    0  0.12932936048E-01  0.71204645973E-02  0.29301958401E+00  0.29339171697E+00  0.51100000000E-03 0.  1.
    9000002    1    1    2    0    0 -0.37554248856E+00  0.25619673652E-01  0.95931526243E-01  0.10152513906E+01  0.93800000000E+00 0. -1.
         22    1    1    2    0    0  0.36260955251E+00 -0.32740138249E-01  0.36110488571E+01  0.36293568924E+01  0.00000000000E+00 0.  1.
</event>
<event>
 5    1  0.6440325E+001  0.1545845E+01  0.7818608E-02  0.3414323E+00
         11   -1    0    0    0    0  0.00000000000E+00  0.00000000000E+00  0.39999999674E+01  0.40000000000E+01  0.51100000000E-03 0.  1.
    9000002   -1    0    0    0    0 -0.00000000000E+00 -0.00000000000E+00  0.00000000000E+00  0.93800000000E+00  0.93800000000E+00 0.  1.
         11    1    1    2    0    0 -0.41828967525E-01 -0.28755692889E-01  0.17172021366E-01  0.53588168811E-01  0.51100000000E-03 0.  1.
    9000002    1    1    2    0    0 -0.39750978312E+00  0.13128228866E+00  0.16538848500E+00  0.10404068521E+01  0.93800000000E+00 0.  1.
         22    1    1    2    0    0  0.43933875064E+00 -0.10252659577E+00  0.38174394610E+01  0.38440049791E+01  0.00000000000E+00 0.  1.
</event>
<event>
 5    1  0.6440325E+001  0.1599645E+01  0.7818608E-02  0.3353748E+00
         11   -1    0    0    0    0  0.00000000000E+00  0.00000000000E+00  0.39999999674E+01  0.40000000000E+01  0.51100000000E-03 0.  1.
    9000002   -1    0    0    0    0 -0.00000000000E+00 -0.00000000000E+00  0.00000000000E+00  0.93800000000E+00  0.93800000000E+00 0. -1.
         11    1    1    2    0    0  0.79759917575E-01 -0.23866484258E-01  0.72574152251E+00  0.73050138408E+00  0.51100000000E-03 0.  1.
    9000002    1    1    2    0    0 -0.40241634423E+00  0.11293878977E+00  0.11814045419E+00  0.10336804396E+01  0.93800000000E+00 0. -1.
         22    1    1    2    0    0  0.32265642665E+00 -0.89072305513E-01  0.31561179907E+01  0.31738181763E+01  0.00000000000E+00 0.  1.
</event>
<event>
 5    1  0.6440325E+001  0.1593585E+01  0.7818608E-02  0.3360355E+00
         11   -1    0    0    0    0  0.00000000000E+00  0.00000000000E+00  0.39999999674E+01  0.40000000000E+01  0.51100000000E-03 0.  1.
    9000002   -1    0    0    0    0 -0.00000000000E+00 -0.00000000000E+00  0.00000000000E+00  0.93800000000E+00  0.93800000000E+00 0. -1.
         11    1    1    2    0    0  0.22191085498E+00  0.12160358122E+00  0.13110092056E+01  0.13352068218E+01  0.51100000000E-03 0.  1.
    9000002    1    1    2    0    0 -0.44113743388E+00 -0.51663598389E+00  0.33472522087E+00  0.12055703832E+01  0.93800000000E+00 0. -1.
         22    1    1    2    0    0  0.21922657890E+00  0.39503240267E+00  0.23542655409E+01  0.23972227950E+01  0.00000000000E+00 0.  1.
</event>
<event>
 5    1  0.6440325E+001  0.1599669E+01  0.7818608E-02  0.3353722E+00
         11   -1    0    0    0    0  0.00000000000E+00  0.00000000000E+00  0.39999999674E+01  0.40000000000E+01  0.51100000000E-03 0. -1.
    9000002   -1    0    0    0    0 -0.00000000000E+00 -0.00000000000E+00  0.00000000000E+00  0.93800000000E+00  0.93800000000E+00 0. -1.
         11    1    1    2    0    0 -0.22540001033E-01 -0.24238960706E+00  0.12674828739E+01  0.12906486237E+01  0.51100000000E-03 0. -1.
    9000002    1    1    2    0    0  0.58193616330E-01  0.69273028801E+00  0.34493754993E+00  0.12174102276E+01  0.93800000000E+00 0. -1.
         22    1    1    2    0    0 -0.35653615297E-01 -0.45034068095E+00  0.23875795435E+01  0.24299411487E+01  0.00000000000E+00 0. -1.
</event>
<event>
 5    1  0.6440325E+001  0.1587726E+01  0.7818608E-02  0.3366794E+00
         11   -1    0    0    0    0  0.00000000000E+00  0.00000000000E+00  0.39999999674E+01  0.40000000000E+01  0.51100000000E-03 0. -1.
    9000002   -1    0    0    0    0 -0.00000000000E+00 -0.00000000000E+00  0.00000000000E+00  0.93800000000E+00  0.93800000000E+00 0. -1.
         11    1    1    2    0    0 -0.64719462096E-01 -0.33776747300E-02  0.12976357023E+00  0.14504779467E+00  0.51100000000E-03 0. -1.
    9000002    1    1    2    0    0  0.44919486158E+00  0.25666674663E+00  0.19478802675E+00  0.10887792328E+01  0.93800000000E+00 0. -1.
         22    1    1    2    0    0 -0.38447539949E+00 -0.25328907190E+00  0.36754483704E+01  0.37041729725E+01  0.00000000000E+00 0. -1.
</event>
<event>
 5    1  0.6440325E+001  0.1599647E+01  0.7818608E-02  0.3353747E+00
         11   -1    0    0    0    0  0.00000000000E+00  0.00000000000E+00  0.39999999674E+01  0.40000000000E+01  0.51100000000E-03 0. -1.
    9000002   -1    0    0    0    0 -0.00000000000E+00 -0.00000000000E+00  0.00000000000E+00  0.93800000000E+00  0.93800000000E+00 0. -1.
         11    1    1    2    0    0  0.19361085583E+00  0.49683257646E-01  0.12953647917E+01  0.13106959199E+01  0.51100000000E-03 0. -1.
    9000002    1    1    2    0    0 -0.54756762476E+00 -0.13830258432E+00  0.22096283480E+00  0.11169720153E+01  0.93800000000E+00 0. -1.
         22    1    1    2    0    0  0.35395676892E+00  0.88619326676E-01  0.24836723408E+01  0.25103320649E+01  0.00000000000E+00 0. -1.
</event>
<event>
 5    1  0.6440325E+001  0.1599672E+01  0.7818608E-02  0.3353719E+00
         11   -1    0    0    0    0  0.00000000000E+00  0.00000000000E+00  0.39999999674E+01  0.40000000000E+01  0.51100000000E-03 0. -1.
    9000002   -1    0    0    0    0 -0.00000000000E+00 -0.00000000000E+00  0.00000000000E+00  0.93800000000E+00  0.93800000000E+00 0. -1.
         11    1    1    2    0    0  0.36364579220E-01  0.18047306585E-01  0.39767333419E+00  0.39974045297E+00  0.51100000000E-03 0.  1.
    9000002    1    1    2    0    0 -0.34285939075E+00 -0.17174529985E+00  0.98986035741E-01  0.10181803598E+01  0.93800000000E+00 0. -1.
         22    1    1    2    0    0  0.30649481153E+00  0.15369799326E+00  0.35033405974E+01  0.35200791872E+01  0.00000000000E+00 0. -1.
</event>
<event>
 5    1  0.6440325E+001  0.1599676E+01  0.7818608E-02  0.3353715E+00
         11   -1    0    0    0    0  0.00000000000E+00  0.00000000000E+00  0.39999999674E+01  0.40000000000E+01  0.51100000000E-03 0.  1.
    9000002   -1    0    0    0    0 -0.00000000000E+00 -0.00000000000E+00  0.00000000000E+00  0.93800000000E+00  0.93800000000E+00 0. -1.
         11    1    1    2    0    0  0.26387728379E-01  0.26961603368E-01  0.24174907671E+00  0.24467553510E+00  0.51100000000E-03 0. -1.
    9000002    1    1    2    0    0 -0.40817008578E+00 -0.42194151720E+00  0.23979961751E+00  0.11322479055E+01  0.93800000000E+00 0. -1.
         22    1    1    2    0    0  0.38178235740E+00  0.39497991383E+00  0.35184512731E+01  0.35610765594E+01  0.00000000000E+00 0.  1.
</event>
<event>
 5    1  0.6440325E+001  0.1598361E+01  0.7818608E-02  0.3355144E+00
         11   -1    0    0    0    0  0.00000000000E+00  0.00000000000E+00  0.39999999674E+01  0.40000000000E+01  0.51100000000E-03 0. -1.
    9000002   -1    0    0    0    0 -0.00000000000E+00 -0.00000000000E+00  0.00000000000E+00  0.93800000000E+00  0.93800000000E+00 0. -1.
         11    1    1    2    0    0 -0.26566171645E-01 -0.13373826633E-01  0.33579097241E+00  0.33710600556E+00  0.51100000000E-03 0. -1.
    9000002    1    1    2    0    0  0.32613476911E+00 -0.12855350022E+00  0.83464503069E-01  0.10048384016E+01  0.93800000000E+00 0. -1.
         22    1    1    2    0    0 -0.29956859746E+00  0.14192732685E+00  0.35807444919E+01  0.35960555928E+01  0.00000000000E+00 0. -1.
</event>
<event>
 5    1  0.6440325E+001  0.1599675E+01  0.7818608E-02  0.3353716E+00
         11   -1    0    0    0    0  0.00000000000E+00  0.00000000000E+00  0.39999999674E+01  0.40000000000E+01  0.51100000000E-03 0.  1.
    9000002   -1    0    0    0    0 -0.00000000000E+00 -0.00000000000E+00  0.00000000000E+00  0.93800000000E+00  0.93800000000E+00 0. -1.
         11    1    1    2    0    0  0.68865121987E-01 -0.90001575933E-01  0.59904247841E+00  0.60966781181E+00  0.51100000000E-03 0.  1.
    9000002    1    1    2    0    0 -0.42442824920E+00  0.54433967004E+00  0.33962298092E+00  0.12131087273E+01  0.93800000000E+00 0. -1.
         22    1    1    2    0    0  0.35556312721E+00 -0.45433809410E+00  0.30613345080E+01  0.31152234609E+01  0.00000000000E+00 0.  1.
</event>
<event>
 5    1  0.6440325E+001  0.1599670E+01  0.7818608E-02  0.3353722E+00
         11   -1    0    0    0    0  0.00000000000E+00  0.00000000000E+00  0.39999999674E+01  0.40000000000E+01  0.51100000000E-03 0. -1.
    9000002   -1    0    0    0    0 -0.00000000000E+00 -0.00000000000E+00  0.00000000000E+00  0.93800000000E+00  0.93800000000E+00 0. -1.
         11    1    1    2    0    0  0.14343209750E-01  0.10817309561E+00  0.12124135621E+01  0.12173142786E+01  0.51100000000E-03 0. -1.
    9000002    1    1    2    0    0 -0.47016218261E-01 -0.35852162909E+00  0.87787952621E-01  0.10091080259E+01  0.93800000000E+00 0. -1.
         22    1    1    2    0    0  0.32673008511E-01  0.25034853347E+00  0.26997984527E+01  0.27115776955E+01  0.00000000000E+00 0. -1.
</event>
<event>
 5    1  0.6440325E+001  0.1599675E+01  0.7818608E-02  0.3353716E+00
         11   -1    0    0    0    0  0.00000000000E+00  0.00000000000E+00  0.39999999674E+01  0.40000000000E+01  0.51100000000E-03 0. -1.
    9000002   -1    0    0    0    0 -0.00000000000E+00 -0.00000000000E+00  0.00000000000E+00  0.93800000000E+00  0.93800000000E+00 0.  1.
         11    1    1    2    0    0  0.74074481253E-01  0.79469033990E-01  0.66548072373E+00  0.67429015335E+00  0.51100000000E-03 0. -1.
    9000002    1    1    2    0    0 -0.42153063785E+00 -0.44317111984E+00  0.26166117577E+00  0.11499562127E+01  0.93800000000E+00 0.  1.
         22    1    1    2    0    0  0.34745615660E+00  0.36370208585E+00  0.30728580679E+01  0.31137536340E+01  0.00000000000E+00 0.  1.
</event>
<event>
 5    1  0.6440325E+001  0.1599573E+01  0.7818608E-02  0.3353827E+00
         11   -1    0    0    0    0  0.00000000000E+00  0.00000000000E+00  0.39999999674E+01  0.40000000000E+01  0.51100000000E-03 0.  1.
    9000002   -1    0    0    0    0 -0.00000000000E+00 -0.00000000000E+00  0.00000000000E+00  0.93800000000E+00  0.93800000000E+00 0.  1.
         11    1    1    2    0    0 -0.67873489643E-01  0.73008032817E-01  0.11364506130E+01  0.11408142883E+01  0.51100000000E-03 0.  1.
    9000002    1    1    2    0    0  0.24782827402E+00 -0.28632821757E+00  0.96557255974E-01  0.10161545184E+01  0.93800000000E+00 0.  1.
         22    1    1    2    0    0 -0.17995478438E+00  0.21332018476E+00  0.27669920984E+01  0.27810311933E+01  0.00000000000E+00 0.  1.
</event>
<event>
 5    1  0.6440325E+001  0.1599677E+01  0.7818608E-02  0.3353714E+00
         11   -1    0    0    0    0  0.00000000000E+00  0.00000000000E+00  0.39999999674E+01  0.40000000000E+01  0.51100000000E-03 0.  1.
    9000002   -1    0    0    0    0 -0.00000000000E+00 -0.00000000000E+00  0.00000000000E+00  0.93800000000E+00  0.93800000000E+00 0.  1.
         11    1    1    2    0    0  0.13004321162E+00  0.54729803973E+00  0.13424672284E+01  0.14555634310E+01  0.51100000000E-03 0. -1.
    9000002    1    1    2    0    0 -0.26817580589E+00 -0.11296390347E+01  0.12285441908E+01  0.19331754810E+01  0.93800000000E+00 0.  1.
         22    1    1    2    0    0  0.13813259427E+00  0.58234099500E+00  0.14289885481E+01  0.15492610880E+01  0.00000000000E+00 0.  1.
</event>
<event>
 5    1  0.6440325E+001  0.1595658E+01  0.7818608E-02  0.3358089E+00
         11   -1    0    0    0    0  0.00000000000E+00  0.00000000000E+00  0.39999999674E+01  0.40000000000E+01  0.51100000000E-03 0.  1.
    9000002   -1    0    0    0    0 -0.00000000000E+00 -0.00000000000E+00  0.00000000000E+00  0.93800000000E+00  0.93800000000E+00 0.  1.
         11    1    1    2    0    0 -0.22458175740E-01  0.19530653763E-01  0.94921905912E+00  0.94968568453E+00  0.51100000000E-03 0.  1.
    9000002    1    1    2    0    0  0.27721404844E+00 -0.27596206967E+00  0.10641852827E+00  0.10218471489E+01  0.93800000000E+00 0.  1.
         22    1    1    2    0    0 -0.25475587270E+00  0.25643141591E+00  0.29443623800E+01  0.29664671666E+01  0.00000000000E+00 0.  1.
</event>
<event>
 5    1  0.6440325E+001  0.1597062E+01  0.7818608E-02  0.3356558E+00
         11   -1    0    0    0    0  0.00000000000E+00  0.00000000000E+00  0.39999999674E+01  0.40000000000E+01  0.51100000000E-03 0.  1.
    9000002   -1    0    0    0    0 -0.00000000000E+00 -0.00000000000E+00  0.00000000000E+00  0.93800000000E+00  0.93800000000E+00 0. -1.
         11    1    1    2    0    0  0.33712196716E-01 -0.17340165862E-01  0.75290475227E+00  0.75385875380E+00  0.51100000000E-03 0.  1.
    9000002    1    1    2    0    0 -0.27084234993E+00  0.32127722853E+00  0.12163228920E+00  0.10349942270E+01  0.93800000000E+00 0. -1.
         22    1    1    2    0    0  0.23713015321E+00 -0.30393706267E+00  0.31254629259E+01  0.31491470192E+01  0.00000000000E+00 0.  1.
</event>
<event>
 5    1  0.6440325E+001  0.1599657E+01  0.7818608E-02  0.3353736E+00
         11   -1    0    0    0    0  0.00000000000E+00  0.00000000000E+00  0.39999999674E+01  0.40000000000E+01  0.51100000000E-03 0.  1.
    9000002   -1    0    0    0    0 -0.00000000000E+00 -0.00000000000E+00  0.00000000000E+00  0.93800000000E+00  0.93800000000E+00 0.  1.
         11    1    1    2    0    0  0.45820829735E-01  0.12602091727E-02  0.42204803918E+00  0.42453026401E+00  0.51100000000E-03 0.  1.
    9000002    1    1    2    0    0 -0.42871974008E+00 -0.40922021816E-01  0.12563927141E+00  0.10397617294E+01  0.93800000000E+00 0.  1.
         22    1    1    2    0    0  0.38289891035E+00  0.39661812643E-01  0.34523126568E+01  0.34737080066E+01  0.00000000000E+00 0.  1.
</event>
<event>
 5    1  0.6440325E+001  0.1516555E+01  0.7818608E-02  0.3449229E+00
         11   -1    0    0    0    0  0.00000000000E+00  0.00000000000E+00  0.39999999674E+01  0.40000000000E+01  0.51100000000E-03 0.  1.
    9000002   -1    0    0    0    0 -0.00000000000E+00 -0.00000000000E+00  0.00000000000E+00  0.93800000000E+00  0.93800000000E+00 0.  1.
         11    1    1    2    0    0 -0.11608080298E+00 -0.35312036441E+00  0.13011751903E+01  0.13532279488E+01  0.51100000000E-03 0.  1.
    9000002    1    1    2    0    0  0.89081296709E-01  0.11037460127E+00  0.77205261230E-01  0.95179970708E+00  0.93800000000E+00 0.  1.
         22    1    1    2    0    0  0.26999506269E-01  0.24274576314E+00  0.26216195159E+01  0.26329723441E+01  0.00000000000E+00 0.  1.
</event>
<event>
 5    1  0.6440325E+001  0.1599670E+01  0.7818608E-02  0.3353722E+00
         11   -1    0    0    0    0  0.00000000000E+00  0.00000000000E+00  0.39999999674E+01  0.40000000000E+01  0.51100000000E-03 0.  1.
    9000002   -1    0    0    0    0 -0.00000000000E+00 -0.00000000000E+00  0.00000000000E+00  0.93800000000E+00  0.93800000000E+00 0. -1.
         11    1    1    2    0    0  0.68069038516E-02  0.54323987940E-02  0.86779212413E-01  0.87216613812E-01  0.51100000000E-03 0.  1.
    9000002    1    1    2    0    0 -0.31830321808E+00 -0.21070864659E+00  0.98069179006E-01  0.10174363058E+01  0.93800000000E+00 0. -1.
         22    1    1    2    0    0  0.31149631423E+00  0.20527624780E+00  0.38151515759E+01  0.38333470804E+01  0.00000000000E+00 0.  1.
</event>
<event>
 5    1  0.6440325E+001  0.1599610E+01  0.7818608E-02  0.3353787E+00
         11   -1    0    0    0    0  0.00000000000E+00  0.00000000000E+00  0.39999999674E+01  0.40000000000E+01  0.51100000000E-03 0. -1.
    9000002   -1    0    0    0    0 -0.00000000000E+00 -0.00000000000E+00  0.00000000000E+00  0.93800000000E+00  0.93800000000E+00 0. -1.
         11    1    1    2    0    0  0.38092049886E-01  0.38055864600E-02  0.48905088184E+00  0.49054715665E+00  0.51100000000E-03 0. -1.
    9000002    1    1    2    0    0 -0.35502215861E+00 -0.15528711476E-01  0.84778020813E-01  0.10066345845E+01  0.93800000000E+00 0. -1.
         22    1    1    2    0    0  0.31693010872E+00  0.11723125016E-01  0.34261710647E+01  0.34408182588E+01  0.00000000000E+00 0. -1.
</event>
<event>
 5    1  0.6440325E+001  0.1599559E+01  0.7818608E-02  0.3353842E+00
         11   -1    0    0    0    0  0.00000000000E+00  0.00000000000E+00  0.39999999674E+01  0.40000000000E+01  0.51100000000E-03 0. -1.
    9000002   -1    0    0    0    0 -0.00000000000E+00 -0.00000000000E+00  0.00000000000E+00  0.93800000000E+00  0.93800000000E+00 0. -1.
         11    1    1    2    0    0 -0.51608613807E-01 -0.87309607061E-01  0.10077532031E+01  0.10128441124E+01  0.51100000000E-03 0. -1.
    9000002    1    1    2    0    0  0.23918297756E+00  0.31799169255E+00  0.10686432071E+00  0.10244955814E+01  0.93800000000E+00 0. -1.
         22    1    1    2    0    0 -0.18757436376E+00 -0.23068208549E+00  0.28853824436E+01  0.29006603062E+01  0.00000000000E+00 0. -1.
</event>
<event>
 5    1  0.6440325E+001  0.1558893E+01  0.7818608E-02  0.3399225E+00
         11   -1    0    0    0    0  0.00000000000E+00  0.00000000000E+00  0.39999999674E+01  0.40000000000E+01  0.51100000000E-03 0. -1.
    9000002   -1    0    0    0    0 -0.00000000000E+00 -0.00000000000E+00  0.00000000000E+00  0.93800000000E+00  0.93800000000E+00 0. -1.
         11    1    1    2    0    0 -0.11115396418E+00  0.28434922648E-01  0.34541389366E+00  0.36397083349E+00  0.51100000000E-03 0. -1.
    9000002    1    1    2    0    0 -0.21937585826E+00  0.21083111238E+00  0.94495124781E-01  0.99063053342E+00  0.93800000000E+00 0. -1.
         22    1    1    2    0    0  0.33052982244E+00 -0.23926603503E+00  0.35600909489E+01  0.35833986331E+01  0.00000000000E+00 0. -1.
</event>
<event>
 5    1  0.6440325E+001  0.1542321E+01  0.7818608E-02  0.3418448E+00
         11   -1    0    0    0    0  0.00000000000E+00  0.00000000000E+00  0.39999999674E+01  0.40000000000E+01  0.51100000000E-03 0. -1.
    9000002   -1    0    0    0    0 -0.00000000000E+00 -0.00000000000E+00  0.00000000000E+00  0.93800000000E+00  0.93800000000E+00 0. -1.
         11    1    1    2    0    0  0.36579483034E-01  0.23175346664E+00  0.89333297152E+00  0.92362968066E+00  0.51100000000E-03 0. -1.
    9000002    1    1    2    0    0  0.14186339275E+00  0.16886240057E-02  0.56784696185E-01  0.95036654790E+00  0.93800000000E+00 0. -1.
         22    1    1    2    0    0 -0.17844287578E+00 -0.23344209064E+00  0.30498822997E+01  0.30640037714E+01  0.00000000000E+00 0. -1.
</event>
<event>
 5    1  0.6440325E+001  0.1599612E+01  0.7818608E-02  0.3353784E+00
         11   -1    0    0    0    0  0.00000000000E+00  0.00000000000E+00  0.39999999674E+01  0.40000000000E+01  0.51100000000E-03 0. -1.
    9000002   -1    0    0    0    0 -0.00000000000E+00 -0.00000000000E+00  0.00000000000E+00  0.93800000000E+00  0.93800000000E+00 0. -1.
         11    1    1    2    0    0 -0.50618761249E-01  0.13721326163E-03  0.44767399069E+00  0.45052695911E+00  0.51100000000E-03 0. -1.
    9000002    1    1    2    0    0  0.38776614125E+00 -0.10399109357E-01  0.10139405155E+00  0.10200958168E+01  0.93800000000E+00 0. -1.
         22    1    1    2    0    0 -0.33714738000E+00  0.10261896095E-01  0.34509319251E+01  0.34673772241E+01  0.00000000000E+00 0. -1.
</event>
<event>
 5    1  0.7652027E+001  0.1551678E+01  0.7818608E-02  0.3407541E+00
         11   -1    0    0    0    0  0.00000000000E+00  0.00000000000E+00  0.39999999674E+01  0.40000000000E+01  0.51100000000E-03 0.  1.
    9000002   -1    0    0    0    0 -0.00000000000E+00 -0.00000000000E+00  0.00000000000E+00  0.93800000000E+00  0.93800000000E+00 0. -1.
         11    1    1    2    0    0  0.17219908176E+00  0.15543248695E-01  0.62935884107E+00  0.65267674104E+00  0.51100000000E-03 0.  1.
    9000002    1    1    2    0    0  0.10685179909E+00  0.16740986258E+00  0.62966084666E-01  0.96086008184E+00  0.93800000000E+00 0. -1.
         22    1    1    2    0    0 -0.27905088085E+00 -0.18295311128E+00  0.33076750416E+01  0.33244631771E+01  0.00000000000E+00 0.  1.
</event>
<event>
 5    1  0.6440325E+001  0.1588162E+01  0.7818608E-02  0.3366313E+00
         11   -1    0    0    0    0  0.00000000000E+00  0.00000000000E+00  0.39999999674E+01  0.40000000000E+01  0.51100000000E-03 0.  1.
    9000002   -1    0    0    0    0 -0.00000000000E+00 -0.00000000000E+00  0.00000000000E+00  0.93800000000E+00  0.93800000000E+00 0. -1.
         11    1    1    2    0    0  0.14100088712E-01 -0.61440849999E-01  0.70651242256E+00  0.70931928981E+00  0.51100000000E-03 0.  1.
    9000002    1    1    2    0    0 -0.21549549022E+00 -0.19255903125E+00  0.64675947782E-01  0.98363827957E+00  0.93800000000E+00 0. -1.
         22    1    1    2    0    0  0.20139540151E+00  0.25399988125E+00  0.32288115970E+01  0.32450424306E+01  0.00000000000E+00 0.  1.
</event>
<event>
 5    1  0.6440325E+001  0.1599672E+01  0.7818608E-02  0.3353719E+00
         11   -1    0    0    0    0  0.00000000000E+00  0.00000000000E+00  0.39999999674E+01  0.40000000000E+01  0.51100000000E-03 0.  1.
    9000002   -1    0    0    0    0 -0.00000000000E+00 -0.00000000000E+00  0.00000000000E+00  0.93800000000E+00  0.93800000000E+00 0. -1.
         11    1    1    2    0    0 -0.23305801178E-01 -0.12303153586E+00  0.13193997639E+01  0.13253286073E+01  0.51100000000E-03 0.  1.
    9000002    1    1    2    0    0  0.69085876293E-01  0.37160060208E+00  0.96102415970E-01  0.10158442499E+01  0.93800000000E+00 0. -1.
         22    1    1    2    0    0 -0.45780075115E-01 -0.24856906622E+00  0.25844977875E+01  0.25968271427E+01  0.00000000000E+00 0.  1.
</event>
<event>
 5    1  0.6440325E+001  0.1595063E+01  0.7818608E-02  0.3358740E+00
         11   -1    0    0    0    0  0.00000000000E+00  0.00000000000E+00  0.39999999674E+01  0.40000000000E+01  0.51100000000E-03 0. -1.
    9000002   -1    0    0    0    0 -0.00000000000E+00 -0.00000000000E+00  0.00000000000E+00  0.93800000000E+00  0.93800000000E+00 0. -1.
         11    1    1    2    0    0 -0.14818624813E+00  0.42730475925E-01  0.10572494241E+01  0.10684388909E+01  0.51100000000E-03 0. -1.
    9000002    1    1    2    0    0  0.49056317050E+00  0.10599792657E+00  0.17666066499E+00  0.10783973179E+01  0.93800000000E+00 0. -1.
         22    1    1    2    0    0 -0.34237692237E+00 -0.14872840249E+00  0.27660898783E+01  0.27911637912E+01  0.00000000000E+00 0. -1.
</event>
<event>
 5    1  0.6440325E+001  0.1593737E+01  0.7818608E-02  0.3360190E+00
         11   -1    0    0    0    0  0.00000000000E+00  0.00000000000E+00  0.39999999674E+01  0.40000000000E+01  0.51100000000E-03 0. -1.
    9000002   -1    0    0    0    0 -0.00000000000E+00 -0.00000000000E+00  0.00000000000E+00  0.93800000000E+00  0.93800000000E+00 0.  1.
         11    1    1    2    0    0  0.44447812208E-01 -0.72769370703E-01  0.25662963360E+00  0.27042562617E+00  0.51100000000E-03 0. -1.
    9000002    1    1    2    0    0 -0.42011352280E+00  0.40290910256E+00  0.24133343546E+00  0.11300074973E+01  0.93800000000E+00 0.  1.
         22    1    1    2    0    0  0.37566571059E+00 -0.33013973185E+00  0.35020368983E+01  0.35375668765E+01  0.00000000000E+00 0. -1.
</event>
<event>
 5    1  0.6440325E+001  0.1599644E+01  0.7818608E-02  0.3353750E+00
         11   -1    0    0    0    0  0.00000000000E+00  0.00000000000E+00  0.39999999674E+01  0.40000000000E+01  0.51100000000E-03 0.  1.
    9000002   -1    0    0    0    0 -0.00000000000E+00 -0.00000000000E+00  0.00000000000E+00  0.93800000000E+00  0.93800000000E+00 0. -1.
         11    1    1    2    0    0  0.35039883786E-02 -0.11042444125E+00  0.83808272056E+00  0.84533350980E+00  0.51100000000E-03 0.  1.
    9000002    1    1    2    0    0 -0.14160614880E-01  0.52792979389E+00  0.19189633070E+00  0.10934251653E+01  0.93800000000E+00 0. -1.
         22    1    1    2    0    0  0.10656626501E-01 -0.41750535263E+00  0.29700209161E+01  0.29992413249E+01  0.00000000000E+00 0.  1.
</event>
<event>
 5    1  0.6440325E+001  0.1599677E+01  0.7818608E-02  0.3353714E+00
         11   -1    0    0    0    0  0.00000000000E+00  0.00000000000E+00  0.39999999674E+01  0.40000000000E+01  0.51100000000E-03 0. -1.
    9000002   -1    0    0    0    0 -0.00000000000E+00 -0.00000000000E+00  0.00000000000E+00  0.93800000000E+00  0.93800000000E+00 0.  1.
         11    1    1    2    0    0 -0.71655290428E-01  0.13043726271E+00  0.11866851121E+01  0.11959808429E+01  0.51100000000E-03 0. -1.
    9000002    1    1    2    0    0  0.23200640448E+00 -0.42113394284E+00  0.15775952123E+00  0.10657921167E+01  0.93800000000E+00 0.  1.
         22    1    1    2    0    0 -0.16035111405E+00  0.29069668012E+00  0.26555553340E+01  0.26762270403E+01  0.00000000000E+00 0. -1.
</event>
<event>
 5    1  0.6440325E+001  0.1599663E+01  0.7818608E-02  0.3353729E+00
         11   -1    0    0    0    0  0.00000000000E+00  0.00000000000E+00  0.39999999674E+01  0.40000000000E+01  0.51100000000E-03 0. -1.
    9000002   -1    0    0    0    0 -0.00000000000E+00 -0.00000000000E+00  0.00000000000E+00  0.93800000000E+00  0.93800000000E+00 0. -1.
         11    1    1    2    0    0 -0.54420912427E-02  0.27364108673E-02  0.76726670390E-01  0.76969782199E-01  0.51100000000E-03 0. -1.
    9000002    1    1    2    0    0  0.31046249336E+00 -0.18655722970E+00  0.88096375544E-01  0.10093540167E+01  0.93800000000E+00 0. -1.
         22    1    1    2    0    0 -0.30502040212E+00  0.18382081884E+00  0.38351769214E+01  0.38516762011E+01  0.00000000000E+00 0. -1.
</event>
<event>
 5    1  0.6440325E+001  0.1599674E+01  0.7818608E-02  0.3353717E+00
         11   -1    0    0    0    0  0.00000000000E+00  0.00000000000E+00  0.39999999674E+01  0.40000000000E+01  0.51100000000E-03 0. -1.
    9000002   -1    0    0    0    0 -0.00000000000E+00 -0.00000000000E+00  0.00000000000E+00  0.93800000000E+00  0.93800000000E+00 0.  1.
         11    1    1    2    0    0 -0.30017627272E-01  0.92605355739E-01  0.38348094910E+00  0.39564467556E+00  0.51100000000E-03 0. -1.
    9000002    1    1    2    0    0  0.26292542261E+00 -0.82180878615E+00  0.56117078845E+00  0.13925717621E+01  0.93800000000E+00 0.  1.
         22    1    1    2    0    0 -0.23290779534E+00  0.72920343041E+00  0.30553482298E+01  0.31497835623E+01  0.00000000000E+00 0. -1.
</event>
<event>
 5    1  0.6440325E+001  0.1599518E+01  0.7818608E-02  0.3353887E+00
         11   -1    0    0    0    0  0.00000000000E+00  0.00000000000E+00  0.39999999674E+01  0.40000000000E+01  0.51100000000E-03 0. -1.
    9000002   -1    0    0    0    0 -0.00000000000E+00 -0.00000000000E+00  0.00000000000E+00  0.93800000000E+00  0.93800000000E+00 0.  1.
         11    1    1    2    0    0  0.41835661590E-01 -0.23517221075E-01  0.40892697680E+00  0.41173391376E+00  0.51100000000E-03 0. -1.
    9000002    1    1    2    0    0 -0.32962275258E+00  0.16951295387E+00  0.92465737573E-01  0.10128078363E+01  0.93800000000E+00 0.  1.
         22    1    1    2    0    0  0.28778709099E+00 -0.14599573280E+00  0.34986072530E+01  0.35134582500E+01  0.00000000000E+00 0. -1.
</event>
<event>
 5    1  0.6440325E+001  0.1598661E+01  0.7818608E-02  0.3354818E+00
         11   -1    0    0    0    0  0.00000000000E+00  0.00000000000E+00  0.39999999674E+01  0.40000000000E+01  0.51100000000E-03 0. -1.
    9000002   -1    0    0    0    0 -0.00000000000E+00 -0.00000000000E+00  0.00000000000E+00  0.93800000000E+00  0.93800000000E+00 0.  1.
         11    1    1    2    0    0 -0.43335861791E-01  0.11611254943E+00  0.96166763586E+00  0.96962107240E+00  0.51100000000E-03 0. -1.
    9000002    1    1    2    0    0  0.22768582427E+00 -0.34564143144E+00  0.11661597909E+00  0.10318682669E+01  0.93800000000E+00 0.  1.
         22    1    1    2    0    0 -0.18434996248E+00  0.22952888201E+00  0.29217163524E+01  0.29365106607E+01  0.00000000000E+00 0. -1.
</event>
<event>
 5    1  0.6440325E+001  0.1518776E+01  0.7818608E-02  0.3446532E+00
         11   -1    0    0    0    0  0.00000000000E+00  0.00000000000E+00  0.39999999674E+01  0.40000000000E+01  0.51100000000E-03 0. -1.
    9000002   -1    0    0    0    0 -0.00000000000E+00 -0.00000000000E+00  0.00000000000E+00  0.93800000000E+00  0.93800000000E+00 0.  1.
         11    1    1    2    0    0 -0.20836018674E+00 -0.12740198174E+00  0.71155421736E+00  0.75229973929E+00  0.51100000000E-03 0. -1.
    9000002    1    1    2    0    0 -0.80147302848E-01 -0.90844507931E-01  0.71512672322E-01  0.94849057828E+00  0.93800000000E+00 0.  1.
         22    1    1    2    0    0  0.28850748959E+00  0.21824648967E+00  0.32169330777E+01  0.32372096824E+01  0.00000000000E+00 0. -1.
</event>
<event>
 5    1  0.6440325E+001  0.1599676E+01  0.7818608E-02  0.3353715E+00
         11   -1    0    0    0    0  0.00000000000E+00  0.00000000000E+00  0.39999999674E+01  0.40000000000E+01  0.51100000000E-03 0.  1.
    9000002   -1    0    0    0    0 -0.00000000000E+00 -0.00000000000E+00  0.00000000000E+00  0.93800000000E+00  0.93800000000E+00 0. -1.
         11    1    1    2    0    0 -0.26550572217E-02 -0.11910987380E+00  0.12832070797E+01  0.12887260694E+01  0.51100000000E-03 0.  1.
    9000002    1    1    2    0    0  0.50418527773E-02  0.36395129462E+00  0.88974130709E-01  0.10100724534E+01  0.93800000000E+00 0. -1.
         22    1    1    2    0    0 -0.23867955556E-02 -0.24484142082E+00  0.26278187569E+01  0.26392014772E+01  0.00000000000E+00 0.  1.
</event>
<event>
 5    1  0.6440325E+001  0.1599677E+01  0.7818608E-02  0.3353714E+00
         11   -1    0    0    0    0  0.00000000000E+00  0.00000000000E+00  0.39999999674E+01  0.40000000000E+01  0.51100000000E-03 0. -1.
    9000002   -1    0    0    0    0 -0.00000000000E+00 -0.00000000000E+00  0.00000000000E+00  0.93800000000E+00  0.93800000000E+00 0.  1.
         11    1    1    2    0    0  0.13000104210E-01  0.11858794969E+00  0.12428315155E+01  0.12485441689E+01  0.51100000000E-03 0. -1.
    9000002    1    1    2    0    0 -0.41297571781E-01 -0.37214663972E+00  0.94268290242E-01  0.10143614353E+01  0.93800000000E+00 0.  1.
         22    1    1    2    0    0  0.28297467571E-01  0.25355869003E+00  0.26629001616E+01  0.26750943958E+01  0.00000000000E+00 0. -1.
</event>
<event>
 5    1  0.6440325E+001  0.1570881E+01  0.7818608E-02  0.3385587E+00
         11   -1    0    0    0    0  0.00000000000E+00  0.00000000000E+00  0.39999999674E+01  0.40000000000E+01  0.51100000000E-03 0. -1.
    9000002   -1    0    0    0    0 -0.00000000000E+00 -0.00000000000E+00  0.00000000000E+00  0.93800000000E+00  0.93800000000E+00 0. -1.
         11    1    1    2    0    0 -0.32381348254E-01 -0.20895155940E+00  0.13810354674E+01  0.13971286732E+01  0.51100000000E-03 0. -1.
    9000002    1    1    2    0    0  0.21659644499E+00  0.54164813003E-01  0.55139631361E-01  0.96578063032E+00  0.93800000000E+00 0. -1.
         22    1    1    2    0    0 -0.18421509674E+00  0.15478674640E+00  0.25638248686E+01  0.25750906965E+01  0.00000000000E+00 0. -1.
</event>
<event>
 5    1  0.6440325E+001  0.1598865E+01  0.7818608E-02  0.3354597E+00
         11   -1    0    0    0    0  0.00000000000E+00  0.00000000000E+00  0.39999999674E+01  0.40000000000E+01  0.51100000000E-03 0.  1.
    9000002   -1    0    0    0    0 -0.00000000000E+00 -0.00000000000E+00  0.00000000000E+00  0.93800000000E+00  0.93800000000E+00 0. -1.
         11    1    1    2    0    0  0.21313270020E-01 -0.78456215018E-01  0.49479796385E+00  0.50143286620E+00  0.51100000000E-03 0.  1.
    9000002    1    1    2    0    0  0.94626378752E-02  0.55959554896E+00  0.21752985468E+00  0.11137324444E+01  0.93800000000E+00 0. -1.
         22    1    1    2    0    0 -0.30775907896E-01 -0.48113933394E+00  0.32876721488E+01  0.33228346894E+01  0.00000000000E+00 0.  1.
</event>
<event>
 5    1  0.6440325E+001  0.1519177E+01  0.7818608E-02  0.3446045E+00
         11   -1    0    0    0    0  0.00000000000E+00  0.00000000000E+00  0.39999999674E+01  0.40000000000E+01  0.51100000000E-03 0.  1.
    9000002   -1    0    0    0    0 -0.00000000000E+00 -0.00000000000E+00  0.00000000000E+00  0.93800000000E+00  0.93800000000E+00 0. -1.
         11    1    1    2    0    0  0.75460066982E-01 -0.29556571369E+00  0.13661832285E+01  0.13998250561E+01  0.51100000000E-03 0.  1.
    9000002    1    1    2    0    0  0.26702529872E+00  0.47914662534E-01  0.11390394394E+00  0.98306481652E+00  0.93800000000E+00 0. -1.
         22    1    1    2    0    0 -0.34248536570E+00  0.24765105115E+00  0.25199127950E+01  0.25551101274E+01  0.00000000000E+00 0.  1.
</event>
<event>
 5    1  0.6440325E+001  0.1598616E+01  0.7818608E-02  0.3354867E+00
         11   -1    0    0    0    0  0.00000000000E+00  0.00000000000E+00  0.39999999674E+01  0.40000000000E+01  0.51100000000E-03 0.  1.
    9000002   -1    0    0    0    0 -0.00000000000E+00 -0.00000000000E+00  0.00000000000E+00  0.93800000000E+00  0.93800000000E+00 0. -1.
         11    1    1    2    0    0  0.60628344544E-01 -0.24037319815E-01  0.51602769913E+00  0.52013309480E+00  0.51100000000E-03 0.  1.
    9000002    1    1    2    0    0 -0.38941034553E+00  0.36661023396E+00  0.19800026687E+00  0.10977666357E+01  0.93800000000E+00 0. -1.
         22    1    1    2    0    0  0.32878200099E+00 -0.34257291414E+00  0.32859720014E+01  0.33201002695E+01  0.00000000000E+00 0.  1.
</event>
<event>
 5    1  0.6440325E+001  0.1569476E+01  0.7818608E-02  0.3387174E+00
         11   -1    0    0    0    0  0.00000000000E+00  0.00000000000E+00  0.39999999674E+01  0.40000000000E+01  0.51100000000E-03 0. -1.
    9000002   -1    0    0    0    0 -0.00000000000E+00 -0.00000000000E+00  0.00000000000E+00  0.93800000000E+00  0.93800000000E+00 0. -1.
         11    1    1    2    0    0 -0.11713691704E+00  0.91323647098E-01  0.48259107377E+00  0.50493115517E+00  0.51100000000E-03 0. -1.
    9000002    1    1    2    0    0 -0.11402656678E+00 -0.36458723874E+00  0.12346135866E+00  0.10203002596E+01  0.93800000000E+00 0. -1.
         22    1    1    2    0    0  0.23116348382E+00  0.27326359164E+00  0.33939475349E+01  0.34127685853E+01  0.00000000000E+00 0. -1.
</event>
<event>
 5    1  0.6440325E+001  0.1599658E+01  0.7818608E-02  0.3353735E+00
         11   -1    0    0    0    0  0.00000000000E+00  0.00000000000E+00  0.39999999674E+01  0.40000000000E+01  0.51100000000E-03 0.  1.
    9000002   -1    0    0    0    0 -0.00000000000E+00 -0.00000000000E+00  0.00000000000E+00  0.93800000000E+00  0.93800000000E+00 0.  1.
         11    1    1    2    0    0 -0.38808903207E-01  0.53330738777E-01  0.55519014517E+00  0.55909449745E+00  0.51100000000E-03 0.  1.
    9000002    1    1    2    0    0  0.26450111470E+00 -0.34661835819E+00  0.12887185997E+00  0.10423804882E+01  0.93800000000E+00 0.  1.
         22    1    1    2    0    0 -0.22569221149E+00  0.29328761941E+00  0.33159379622E+01  0.33365250143E+01  0.00000000000E+00 0.  1.
</event>
<event>
 5    1  0.6440325E+001  0.1542034E+01  0.7818608E-02  0.3418785E+00
         11   -1    0    0    0    0  0.00000000000E+00  0.00000000000E+00  0.39999999674E+01  0.40000000000E+01  0.51100000000E-03 0. -1.
    9000002   -1    0    0    0    0 -0.00000000000E+00 -0.00000000000E+00  0.00000000000E+00  0.93800000000E+00  0.93800000000E+00 0.  1.
         11    1    1    2    0    0  0.13106864005E+00 -0.21909766569E+00  0.14233421522E+01  0.14460587536E+01  0.51100000000E-03 0. -1.
    9000002    1    1    2    0    0 -0.13240390142E+00 -0.12672891944E+00  0.66473975205E-01  0.95804686812E+00  0.93800000000E+00 0.  1.
         22    1    1    2    0    0  0.13352613774E-02  0.34582658513E+00  0.25101838400E+01  0.25338943783E+01  0.00000000000E+00 0. -1.
</event>
<event>
 5    1  0.6440325E+001  0.1599672E+01  0.7818608E-02  0.3353719E+00
         11   -1    0    0    0    0  0.00000000000E+00  0.00000000000E+00  0.39999999674E+01  0.40000000000E+01  0.51100000000E-03 0. -1.
    9000002   -1    0    0    0    0 -0.00000000000E+00 -0.00000000000E+00  0.00000000000E+00  0.93800000000E+00  0.93800000000E+00 0. -1.
         11    1    1    2    0    0  0.13154148335E+00 -0.18112647210E-01  0.11009922021E+01  0.11089703874E+01  0.51100000000E-03 0. -1.
    9000002    1    1    2    0    0 -0.45329619789E+00  0.60618180379E-01  0.14221186681E+00  0.10531952439E+01  0.93800000000E+00 0. -1.
         22    1    1    2    0    0  0.32175471454E+00 -0.42505533169E-01  0.27567958984E+01  0.27758343687E+01  0.00000000000E+00 0. -1.
</event>
<event>
 5    1  0.6440325E+001  0.1595268E+01  0.7818608E-02  0.3358515E+00
         11   -1    0    0    0    0  0.00000000000E+00  0.00000000000E+00  0.39999999674E+01  0.40000000000E+01  0.51100000000E-03 0. -1.
    9000002   -1    0    0    0    0 -0.00000000000E+00 -0.00000000000E+00  0.00000000000E+00  0.93800000000E+00  0.93800000000E+00 0. -1.
         11    1    1    2    0    0  0.10984739912E+00 -0.88887588574E-01  0.91138601657E+00  0.92227554821E+00  0.51100000000E-03 0. -1.
    9000002    1    1    2    0    0 -0.22465558026E+00  0.53283417871E+00  0.23653795875E+00  0.11270211168E+01  0.93800000000E+00 0. -1.
         22    1    1    2    0    0  0.11480818114E+00 -0.44394659014E+00  0.28520759920E+01  0.28887033350E+01  0.00000000000E+00 0. -1.
</event>
<event>
 5    1  0.6440325E+001  0.1594759E+01  0.7818608E-02  0.3359072E+00
         11   -1    0    0    0    0  0.00000000000E+00  0.00000000000E+00  0.39999999674E+01  0.40000000000E+01  0.51100000000E-03 0. -1.
    9000002   -1    0    0    0    0 -0.00000000000E+00 -0.00000000000E+00  0.00000000000E+00  0.93800000000E+00  0.93800000000E+00 0.  1.
         11    1    1    2    0    0 -0.13802064861E+00 -0.94308168079E-01  0.95837409365E+00  0.97284371536E+00  0.51100000000E-03 0. -1.
    9000002    1    1    2    0    0  0.26303372334E+00  0.43073865967E+00  0.17897236950E+00  0.10800914969E+01  0.93800000000E+00 0.  1.
         22    1    1    2    0    0 -0.12501307473E+00 -0.33643049159E+00  0.28626535042E+01  0.28850647878E+01  0.00000000000E+00 0. -1.
</event>
<event>
 5    1  0.6440325E+001  0.1599653E+01  0.7818608E-02  0.3353740E+00
         11   -1    0    0    0    0  0.00000000000E+00  0.00000000000E+00  0.39999999674E+01  0.40000000000E+01  0.51100000000E-03 0.  1.
    9000002   -1    0    0    0    0 -0.00000000000E+00 -0.00000000000E+00  0.00000000000E+00  0.93800000000E+00  0.93800000000E+00 0.  1.
         11    1    1    2    0    0  0.69671057421E-02 -0.49696446959E+00  0.10587824202E+01  0.11696335747E+01  0.51100000000E-03 0.  1.
    9000002    1    1    2    0    0 -0.29461945314E-01  0.12125275440E+01  0.14321549456E+01  0.20980950502E+01  0.93800000000E+00 0.  1.
         22    1    1    2    0    0  0.22494839572E-01 -0.71556307443E+00  0.15090626015E+01  0.16702713751E+01  0.00000000000E+00 0.  1.
</event>
<event>
 5    1  0.6440325E+001  0.1599658E+01  0.7818608E-02  0.3353735E+00
         11   -1    0    0    0    0  0.00000000000E+00  0.00000000000E+00  0.39999999674E+01  0.40000000000E+01  0.51100000000E-03 0.  1.
    9000002   -1    0    0    0    0 -0.00000000000E+00 -0.00000000000E+00  0.00000000000E+00  0.93800000000E+00  0.93800000000E+00 0.  1.
         11    1    1    2    0    0 -0.58646382708E-01  0.66904308828E-02  0.55296581711E+00  0.55610755801E+00  0.51100000000E-03 0.  1.
    9000002    1    1    2    0    0  0.40238020301E+00 -0.70789094065E-01  0.11273283891E+00  0.10293073480E+01  0.93800000000E+00 0.  1.
         22    1    1    2    0    0 -0.34373382030E+00  0.64098663182E-01  0.33343013113E+01  0.33525850940E+01  0.00000000000E+00 0.  1.
</event>
<event>
 5    1  0.6440325E+001  0.1593863E+01  0.7818608E-02  0.3360051E+00
         11   -1    0    0    0    0  0.00000000000E+00  0.00000000000E+00  0.39999999674E+01  0.40000000000E+01  0.51100000000E-03 0.  1.
    9000002   -1    0    0    0    0 -0.00000000000E+00 -0.00000000000E+00  0.00000000000E+00  0.93800000000E+00  0.93800000000E+00 0. -1.
         11    1    1    2    0    0 -0.88221963362E-02 -0.14687118915E-01  0.13802558163E+01  0.13803622431E+01  0.51100000000E-03 0.  1.
    9000002    1    1    2    0    0  0.11000028159E-01  0.29175675280E+00  0.61370242529E-01  0.98430346443E+00  0.93800000000E+00 0. -1.
         22    1    1    2    0    0 -0.21778318228E-02 -0.27706963388E+00  0.25583739085E+01  0.25733342925E+01  0.00000000000E+00 0.  1.
</event>
<event>
 5    1  0.6440325E+001  0.1599677E+01  0.7818608E-02  0.3353715E+00
         11   -1    0    0    0    0  0.00000000000E+00  0.00000000000E+00  0.39999999674E+01  0.40000000000E+01  0.51100000000E-03 0. -1.
    9000002   -1    0    0    0    0 -0.00000000000E+00 -0.00000000000E+00  0.00000000000E+00  0.93800000000E+00  0.93800000000E+00 0. -1.
         11    1    1    2    0    0  0.32204246194E+00 -0.10143794313E+00  0.14310059954E+01  0.14702990932E+01  0.51100000000E-03 0. -1.
    9000002    1    1    2    0    0 -0.78776275302E+00  0.24877269842E+00  0.50732473881E+00  0.13489552999E+01  0.93800000000E+00 0. -1.
         22    1    1    2    0    0  0.46572029108E+00 -0.14733475529E+00  0.20616692332E+01  0.21187456069E+01  0.00000000000E+00 0. -1.
</event>
<event>
 5    1  0.6440325E+001  0.1599285E+01  0.7818608E-02  0.3354140E+00
         11   -1    0    0    0    0  0.00000000000E+00  0.00000000000E+00  0.39999999674E+01  0.40000000000E+01  0.51100000000E-03 0.  1.
    9000002   -1    0    0    0    0 -0.00000000000E+00 -0.00000000000E+00  0.00000000000E+00  0.93800000000E+00  0.93800000000E+00 0. -1.
         11    1    1    2    0    0  0.33239923402E-01  0.44483006583E-01  0.60971952085E+00  0.61224324056E+00  0.51100000000E-03 0.  1.
    9000002    1    1    2    0    0 -0.29977903622E+00 -0.21615786555E+00  0.92109994380E-01  0.10123832992E+01  0.93800000000E+00 0. -1.
         22    1    1    2    0    0  0.26653911282E+00  0.17167485897E+00  0.32981704521E+01  0.33133734603E+01  0.00000000000E+00 0.  1.
</event>
<event>
 5    1  0.6440325E+001  0.1599491E+01  0.7818608E-02  0.3353916E+00
         11   -1    0    0    0    0  0.00000000000E+00  0.00000000000E+00  0.39999999674E+01  0.40000000000E+01  0.51100000000E-03 0.  1.
    9000002   -1    0    0    0    0 -0.00000000000E+00 -0.00000000000E+00  0.00000000000E+00  0.93800000000E+00  0.93800000000E+00 0.  1.
         11    1    1    2    0    0  0.97209431098E-01 -0.14141817933E-01  0.75120764946E+00  0.75760336472E+00  0.51100000000E-03 0.  1.
    9000002    1    1    2    0    0 -0.43380331460E+00  0.81733957461E-01  0.13234424019E+00  0.10450955715E+01  0.93800000000E+00 0.  1.
         22    1    1    2    0    0  0.33659388350E+00 -0.67592139527E-01  0.31164480777E+01  0.31353010638E+01  0.00000000000E+00 0.  1.
</event>
<event>
 5    1  0.6440325E+001  0.1599376E+01  0.7818608E-02  0.3354041E+00
         11   -1    0    0    0    0  0.00000000000E+00  0.00000000000E+00  0.39999999674E+01  0.40000000000E+01  0.51100000000E-03 0. -1.
    9000002   -1    0    0    0    0 -0.00000000000E+00 -0.00000000000E+00  0.00000000000E+00  0.93800000000E+00  0.93800000000E+00 0.  1.
         11    1    1    2    0    0 -0.10716507035E+00  0.52028477440E-01  0.12398041451E+01  0.12455143091E+01  0.51100000000E-03 0. -1.
    9000002    1    1    2    0    0  0.32769982826E+00 -0.22392097887E+00  0.10646379459E+00  0.10240636317E+01  0.93800000000E+00 0.  1.
         22    1    1    2    0    0 -0.22053475791E+00  0.17189250143E+00  0.26537320277E+01  0.26684220592E+01  0.00000000000E+00 0. -1.
</event>
<event>
 5    1  0.6440325E+001  0.1512215E+01  0.7818608E-02  0.3454525E+00
         11   -1    0    0    0    0  0.00000000000E+00  0.00000000000E+00  0.39999999674E+01  0.40000000000E+01  0.51100000000E-03 0.  1.
    9000002   -1    0    0    0    0 -0.00000000000E+00 -0.00000000000E+00  0.00000000000E+00  0.93800000000E+00  0.93800000000E+00 0.  1.
         11    1    1    2    0    0  0.12154933101E+00  0.15949194543E+00  0.13175121124E+01  0.13326853897E+01  0.51100000000E-03 0.  1.
    9000002    1    1    2    0    0  0.58246701772E+00 -0.53908579376E+00  0.58571846456E+00  0.13611728176E+01  0.93800000000E+00 0.  1.
         22    1    1    2    0    0 -0.70401634872E+00  0.37959384833E+00  0.20967693904E+01  0.22441417927E+01  0.00000000000E+00 0.  1.
</event>
<event>
 5    1  0.6440325E+001  0.1599675E+01  0.7818608E-02  0.3353716E+00
         11   -1    0    0    0    0  0.00000000000E+00  0.00000000000E+00  0.39999999674E+01  0.40000000000E+01  0.51100000000E-03 0.  1.
    9000002   -1    0    0    0    0 -0.00000000000E+00 -0.00000000000E+00  0.00000000000E+00  0.93800000000E+00  0.93800000000E+00 0.  1.
         11    1    1    2    0    0  0.93898139120E-01  0.13189476767E+00  0.13801172105E+01  0.13895815435E+01  0.51100000000E-03 0.  1.
    9000002    1    1    2    0    0 -0.26503929110E+00 -0.36507785932E+00  0.13825782152E+00  0.10499937592E+01  0.93800000000E+00 0.  1.
         22    1    1    2    0    0  0.17114115198E+00  0.23318309165E+00  0.24816249354E+01  0.24984246973E+01  0.00000000000E+00 0. -1.
</event>
<event>
 5    1  0.6440325E+001  0.1598941E+01  0.7818608E-02  0.3354513E+00
         11   -1    0    0    0    0  0.00000000000E+00  0.00000000000E+00  0.39999999674E+01  0.40000000000E+01  0.51100000000E-03 0.  1.
    9000002   -1    0    0    0    0 -0.00000000000E+00 -0.00000000000E+00  0.00000000000E+00  0.93800000000E+00  0.93800000000E+00 0.  1.
         11    1    1    2    0    0  0.10476960891E+00  0.62937681720E-01  0.12394782687E+01  0.12454896476E+01  0.51100000000E-03 0.  1.
    9000002    1    1    2    0    0 -0.41414775587E+00 -0.22933181741E+00  0.15340366704E+00  0.10618324403E+01  0.93800000000E+00 0.  1.
         22    1    1    2    0    0  0.30937814695E+00  0.16639413569E+00  0.26071180316E+01  0.26306779121E+01  0.00000000000E+00 0.  1.
</event>
<event>
 5    1  0.6440325E+001  0.1599424E+01  0.7818608E-02  0.3353989E+00
         11   -1    0    0    0    0  0.00000000000E+00  0.00000000000E+00  0.39999999674E+01  0.40000000000E+01  0.51100000000E-03 0.  1.
    9000002   -1    0    0    0    0 -0.00000000000E+00 -0.00000000000E+00  0.00000000000E+00  0.93800000000E+00  0.93800000000E+00 0. -1.
         11    1    1    2    0    0  0.12403674176E+00  0.91328250758E-01  0.13719436019E+01  0.13805634613E+01  0.51100000000E-03 0.  1.
    9000002    1    1    2    0    0 -0.37080534586E+00 -0.21050231183E+00  0.12327973041E+00  0.10377136983E+01  0.93800000000E+00 0. -1.
         22    1    1    2    0    0  0.24676860411E+00  0.11917406108E+00  0.25047766350E+01  0.25197228403E+01  0.00000000000E+00 0.  1.
</event>
<event>
 5    1  0.6440325E+001  0.1599643E+01  0.7818608E-02  0.3353751E+00
         11   -1    0    0    0    0  0.00000000000E+00  0.00000000000E+00  0.39999999674E+01  0.40000000000E+01  0.51100000000E-03 0.  1.
    9000002   -1    0    0    0    0 -0.00000000000E+00 -0.00000000000E+00  0.00000000000E+00  0.93800000000E+00  0.93800000000E+00 0. -1.
         11    1    1    2    0    0 -0.30279659299E-01 -0.31765272837E-01  0.46676490660E+00  0.46882366566E+00  0.51100000000E-03 0.  1.
    9000002    1    1    2    0    0  0.24156373830E+00  0.30160282451E+00  0.10057353368E+00  0.10194490370E+01  0.93800000000E+00 0. -1.
         22    1    1    2    0    0 -0.21128407900E+00 -0.26983755167E+00  0.34326615271E+01  0.34497272973E+01  0.00000000000E+00 0.  1.
</event>
<event>
 5    1  0.6440325E+001  0.1599676E+01  0.7818608E-02  0.3353715E+00
         11   -1    0    0    0    0  0.00000000000E+00  0.00000000000E+00  0.39999999674E+01  0.40000000000E+01  0.51100000000E-03 0. -1.
    9000002   -1    0    0    0    0 -0.00000000000E+00 -0.00000000000E+00  0.00000000000E+00  0.93800000000E+00  0.93800000000E+00 0. -1.
         11    1    1    2    0    0  0.94328524697E-01  0.85492944270E-01  0.11486131453E+01  0.11556467162E+01  0.51100000000E-03 0. -1.
    9000002    1    1    2    0    0 -0.31607052862E+00 -0.28719852847E+00  0.12346688227E+00  0.10380133163E+01  0.93800000000E+00 0. -1.
         22    1    1    2    0    0  0.22174200393E+00  0.20170558420E+00  0.27279199398E+01  0.27443399675E+01  0.00000000000E+00 0. -1.
</event>
<event>
 5    1  0.6440325E+001  0.1599674E+01  0.7818608E-02  0.3353717E+00
         11   -1    0    0    0    0  0.00000000000E+00  0.00000000000E+00  0.39999999674E+01  0.40000000000E+01  0.51100000000E-03 0. -1.
    9000002   -1    0    0    0    0 -0.00000000000E+00 -0.00000000000E+00  0.00000000000E+00  0.93800000000E+00  0.93800000000E+00 0. -1.
         11    1    1    2    0    0 -0.11798023036E+00  0.56442782089E-01  0.13287702545E+01  0.13351912869E+01  0.51100000000E-03 0. -1.
    9000002    1    1    2    0    0  0.34140573107E+00 -0.16286731316E+00  0.96254853506E-01  0.10159688143E+01  0.93800000000E+00 0. -1.
         22    1    1    2    0    0 -0.22342550071E+00  0.10642453107E+00  0.25749748594E+01  0.25868398987E+01  0.00000000000E+00 0. -1.
</event>
<event>
 5    1  0.6440325E+001  0.1599673E+01  0.7818608E-02  0.3353719E+00
         11   -1    0    0    0    0  0.00000000000E+00  0.00000000000E+00  0.39999999674E+01  0.40000000000E+01  0.51100000000E-03 0.  1.
    9000002   -1    0    0    0    0 -0.00000000000E+00 -0.00000000000E+00  0.00000000000E+00  0.93800000000E+00  0.93800000000E+00 0.  1.
         11    1    1    2    0    0  0.30788872112E-01  0.30769224648E-01  0.46456264648E+00  0.46659769980E+00  0.51100000000E-03 0.  1.
    9000002    1    1    2    0    0 -0.27175823817E+00 -0.25457328746E+00  0.93214651119E-01  0.10135053379E+01  0.93800000000E+00 0.  1.
         22    1    1    2    0    0  0.24096936606E+00  0.22380406281E+00  0.34422226698E+01  0.34578969623E+01  0.00000000000E+00 0.  1.
</event>
<event>
 5    1  0.6440325E+001  0.1599619E+01  0.7818608E-02  0.3353777E+00
         11   -1    0    0    0    0  0.00000000000E+00  0.00000000000E+00  0.39999999674E+01  0.40000000000E+01  0.51100000000E-03 0. -1.
    9000002   -1    0    0    0    0 -0.00000000000E+00 -0.00000000000E+00  0.00000000000E+00  0.93800000000E+00  0.93800000000E+00 0.  1.
         11    1    1    2    0    0 -0.72347546486E-01 -0.37590254991E-01  0.77021623512E+00  0.77451953153E+00  0.51100000000E-03 0. -1.
    9000002    1    1    2    0    0  0.37132667233E+00  0.15345224920E+00  0.10896194169E+00  0.10262298939E+01  0.93800000000E+00 0.  1.
         22    1    1    2    0    0 -0.29897912584E+00 -0.11586199421E+00  0.31208217905E+01  0.31372505746E+01  0.00000000000E+00 0. -1.
</event>
<event>
 5    1  0.7306317E+001  0.1568079E+01  0.7818608E-02  0.3388756E+00
         11   -1    0    0    0    0  0.00000000000E+00  0.00000000000E+00  0.39999999674E+01  0.40000000000E+01  0.51100000000E-03 0. -1.
    9000002   -1    0    0    0    0 -0.00000000000E+00 -0.00000000000E+00  0.00000000000E+00  0.93800000000E+00  0.93800000000E+00 0.  1.
         11    1    1    2    0    0 -0.12177607424E+00 -0.11887134169E+00  0.13484185463E+01  0.13591146550E+01  0.51100000000E-03 0. -1.
    9000002    1    1    2    0    0  0.76482199989E-02 -0.13245546476E+00  0.35206824605E-01  0.94799075202E+00  0.93800000000E+00 0.  1.
         22    1    1    2    0    0  0.11412785425E+00  0.25132680644E+00  0.26163745964E+01  0.26308945930E+01  0.00000000000E+00 0. -1.
</event>
<event>
 5    1  0.6440325E+001  0.1599675E+01  0.7818608E-02  0.3353717E+00
         11   -1    0    0    0    0  0.00000000000E+00  0.00000000000E+00  0.39999999674E+01  0.40000000000E+01  0.51100000000E-03 0.  1.
    9000002   -1    0    0    0    0 -0.00000000000E+00 -0.00000000000E+00  0.00000000000E+00  0.93800000000E+00  0.93800000000E+00 0.  1.
         11    1    1    2    0    0  0.85754450431E-01  0.19111508267E-02  0.85092712078E+00  0.85523955957E+00  0.51100000000E-03 0.  1.
    9000002    1    1    2    0    0 -0.38902625881E+00 -0.30359669260E-02  0.10194970620E+00  0.10205823777E+01  0.93800000000E+00 0.  1.
         22    1    1    2    0    0  0.30327180838E+00  0.11248160993E-02  0.30471231404E+01  0.30621780627E+01  0.00000000000E+00 0.  1.
</event>
<event>
 5    1  0.6440325E+001  0.1599677E+01  0.7818608E-02  0.3353714E+00
         11   -1    0    0    0    0  0.00000000000E+00  0.00000000000E+00  0.39999999674E+01  0.40000000000E+01  0.51100000000E-03 0. -1.
    9000002   -1    0    0    0    0 -0.00000000000E+00 -0.00000000000E+00  0.00000000000E+00  0.93800000000E+00  0.93800000000E+00 0. -1.
         11    1    1    2    0    0 -0.65815318730E+00 -0.87390919266E-01  0.13046668585E+01  0.14638847849E+01  0.51100000000E-03 0. -1.
    9000002    1    1    2    0    0  0.12287438993E+01  0.16303095126E+00  0.15655876799E+01  0.22061956950E+01  0.93800000000E+00 0. -1.
         22    1    1    2    0    0 -0.57059071205E+00 -0.75640031997E-01  0.11297454289E+01  0.12679195201E+01  0.00000000000E+00 0. -1.
</event>
<event>
 5    1  0.6440325E+001  0.1493956E+01  0.7818608E-02  0.3477165E+00
         11   -1    0    0    0    0  0.00000000000E+00  0.00000000000E+00  0.39999999674E+01  0.40000000000E+01  0.51100000000E-03 0.  1.
    9000002   -1    0    0    0    0 -0.00000000000E+00 -0.00000000000E+00  0.00000000000E+00  0.93800000000E+00  0.93800000000E+00 0. -1.
         11    1    1    2    0    0 -0.37174748417E-01  0.21607229133E+00  0.34786215860E+00  0.41119039326E+00  0.51100000000E-03 0.  1.
    9000002    1    1    2    0    0  0.62154443385E-01  0.13050860531E+00  0.96201723072E-01  0.95393628845E+00  0.93800000000E+00 0. -1.
         22    1    1    2    0    0 -0.24979694967E-01 -0.34658089664E+00  0.35559360857E+01  0.35728733183E+01  0.00000000000E+00 0.  1.
</event>
<event>
 5    1  0.6440325E+001  0.1597069E+01  0.7818608E-02  0.3356551E+00
         11   -1    0    0    0    0  0.00000000000E+00  0.00000000000E+00  0.39999999674E+01  0.40000000000E+01  0.51100000000E-03 0.  1.
    9000002   -1    0    0    0    0 -0.00000000000E+00 -0.00000000000E+00  0.00000000000E+00  0.93800000000E+00  0.93800000000E+00 0. -1.
         11    1    1    2    0    0 -0.21162134706E+00  0.10884749948E+00  0.13531137964E+01  0.13738808463E+01  0.51100000000E-03 0.  1.
    9000002    1    1    2    0    0  0.51079680309E+00 -0.16181748405E+00  0.20020638377E+00  0.10986468351E+01  0.93800000000E+00 0. -1.
         22    1    1    2    0    0 -0.29917545603E+00  0.52969984570E-01  0.24466797871E+01  0.24654723186E+01  0.00000000000E+00 0.  1.
</event>
<event>
 5    1  0.6440325E+001  0.1598302E+01  0.7818608E-02  0.3355208E+00
         11   -1    0    0    0    0  0.00000000000E+00  0.00000000000E+00  0.39999999674E+01  0.40000000000E+01  0.51100000000E-03 0.  1.
    9000002   -1    0    0    0    0 -0.00000000000E+00 -0.00000000000E+00  0.00000000000E+00  0.93800000000E+00  0.93800000000E+00 0. -1.
         11    1    1    2    0    0 -0.98458584071E-01  0.20391703684E+00  0.12335651958E+01  0.12541768632E+01  0.51100000000E-03 0.  1.
    9000002    1    1    2    0    0  0.40371138896E+00 -0.63524324718E+00  0.41267738128E+00  0.12714808255E+01  0.93800000000E+00 0. -1.
         22    1    1    2    0    0 -0.30525280489E+00  0.43132621034E+00  0.23537573902E+01  0.24123423113E+01  0.00000000000E+00 0.  1.
</event>
<event>
 5    1  0.6440325E+001  0.1599440E+01  0.7818608E-02  0.3353971E+00
         11   -1    0    0    0    0  0.00000000000E+00  0.00000000000E+00  0.39999999674E+01  0.40000000000E+01  0.51100000000E-03 0. -1.
    9000002   -1    0    0    0    0 -0.00000000000E+00 -0.00000000000E+00  0.00000000000E+00  0.93800000000E+00  0.93800000000E+00 0.  1.
         11    1    1    2    0    0  0.40771717371E-01 -0.46518753480E-01  0.54702902480E+00  0.55051552427E+00  0.51100000000E-03 0. -1.
    9000002    1    1    2    0    0 -0.37000107317E+00  0.29006190437E+00  0.15079155641E+00  0.10600088660E+01  0.93800000000E+00 0.  1.
         22    1    1    2    0    0  0.32922935580E+00 -0.24354315089E+00  0.33021793861E+01  0.33274756097E+01  0.00000000000E+00 0. -1.
</event>
<event>
 5    1  0.6440325E+001  0.1599108E+01  0.7818608E-02  0.3354332E+00
         11   -1    0    0    0    0  0.00000000000E+00  0.00000000000E+00  0.39999999674E+01  0.40000000000E+01  0.51100000000E-03 0.  1.
    9000002   -1    0    0    0    0 -0.00000000000E+00 -0.00000000000E+00  0.00000000000E+00  0.93800000000E+00  0.93800000000E+00 0.  1.
         11    1    1    2    0    0  0.62349980211E-02 -0.66822971753E-01  0.76802351497E+00  0.77095042994E+00  0.51100000000E-03 0.  1.
    9000002    1    1    2    0    0 -0.14670350699E+00  0.35409264415E+00  0.99349955450E-01  0.10181443578E+01  0.93800000000E+00 0.  1.
         22    1    1    2    0    0  0.14046850896E+00 -0.28726967240E+00  0.31326264969E+01  0.31489052123E+01  0.00000000000E+00 0.  1.
</event>
<event>
 5    1  0.6440325E+001  0.1599263E+01  0.7818608E-02  0.3354164E+00
         11   -1    0    0    0    0  0.00000000000E+00  0.00000000000E+00  0.39999999674E+01  0.40000000000E+01  0.51100000000E-03 0. -1.
    9000002   -1    0    0    0    0 -0.00000000000E+00 -0.00000000000E+00  0.00000000000E+00  0.93800000000E+00  0.93800000000E+00 0. -1.
         11    1    1    2    0    0  0.24502705302E-01  0.15466200149E-01  0.19007869439E+00  0.19227521186E+00  0.51100000000E-03 0. -1.
    9000002    1    1    2    0    0 -0.28624572015E+00 -0.28615943294E+00  0.11091642636E+00  0.10276041490E+01  0.93800000000E+00 0. -1.
         22    1    1    2    0    0  0.26174301485E+00  0.27069323279E+00  0.36990048466E+01  0.37181206392E+01  0.00000000000E+00 0. -1.
</event>
<event>
 5    1  0.6440325E+001  0.1582429E+01  0.7818608E-02  0.3372658E+00
         11   -1    0    0    0    0  0.00000000000E+00  0.00000000000E+00  0.39999999674E+01  0.40000000000E+01  0.51100000000E-03 0. -1.
    9000002   -1    0    0    0    0 -0.00000000000E+00 -0.00000000000E+00  0.00000000000E+00  0.93800000000E+00  0.93800000000E+00 0. -1.
         11    1    1    2    0    0 -0.28723724745E+00  0.19365940686E+00  0.87010146902E+00  0.93652871269E+00  0.51100000000E-03 0. -1.
    9000002    1    1    2    0    0  0.74408559093E+00 -0.36873855305E+00  0.53735452243E+00  0.13631674035E+01  0.93800000000E+00 0. -1.
         22    1    1    2    0    0 -0.45684834348E+00  0.17507914620E+00  0.25925439759E+01  0.26383038838E+01  0.00000000000E+00 0. -1.
</event>
<event>
 5    1  0.6440325E+001  0.1577634E+01  0.7818608E-02  0.3378002E+00
         11   -1    0    0    0    0  0.00000000000E+00  0.00000000000E+00  0.39999999674E+01  0.40000000000E+01  0.51100000000E-03 0.  1.
    9000002   -1    0    0    0    0 -0.00000000000E+00 -0.00000000000E+00  0.00000000000E+00  0.93800000000E+00  0.93800000000E+00 0. -1.
         11    1    1    2    0    0  0.82256568991E-02  0.92398056451E-01  0.46186340026E+00  0.47108717228E+00  0.51100000000E-03 0.  1.
    9000002    1    1    2    0    0  0.27341052153E+00  0.13250361200E+00  0.79096370614E-01  0.98914647870E+00  0.93800000000E+00 0. -1.
         22    1    1    2    0    0 -0.28163617843E+00 -0.22490166845E+00  0.34590401965E+01  0.34777663490E+01  0.00000000000E+00 0.  1.
</event>
<event>
 5    1  0.6440325E+001  0.1598110E+01  0.7818608E-02  0.3355417E+00
         11   -1    0    0    0    0  0.00000000000E+00  0.00000000000E+00  0.39999999674E+01  0.40000000000E+01  0.51100000000E-03 0. -1.
    9000002   -1    0    0    0    0 -0.00000000000E+00 -0.00000000000E+00  0.00000000000E+00  0.93800000000E+00  0.93800000000E+00 0. -1.
         11    1    1    2    0    0 -0.80170522171E-02  0.39499369105E-01  0.59423794252E+00  0.59560344756E+00  0.51100000000E-03 0. -1.
    9000002    1    1    2    0    0  0.27705008741E+00 -0.27247942749E+00  0.10300188700E+00  0.10205171131E+01  0.93800000000E+00 0. -1.
         22    1    1    2    0    0 -0.26903303519E+00  0.23298005839E+00  0.33027601378E+01  0.33218794394E+01  0.00000000000E+00 0. -1.
</event>
<event>
 5    1  0.6440325E+001  0.1597829E+01  0.7818608E-02  0.3355723E+00
         11   -1    0    0    0    0  0.00000000000E+00  0.00000000000E+00  0.39999999674E+01  0.40000000000E+01  0.51100000000E-03 0. -1.
    9000002   -1    0    0    0    0 -0.00000000000E+00 -0.00000000000E+00  0.00000000000E+00  0.93800000000E+00  0.93800000000E+00 0.  1.
         11    1    1    2    0    0 -0.54407988531E-01 -0.87482362055E-01  0.80234993433E+00  0.80893700071E+00  0.51100000000E-03 0. -1.
    9000002    1    1    2    0    0  0.68154703444E-01  0.37157935180E+00  0.97515792025E-01  0.10159082675E+01  0.93800000000E+00 0.  1.
         22    1    1    2    0    0 -0.13746714914E-01 -0.28409698975E+00  0.31001342410E+01  0.31131547318E+01  0.00000000000E+00 0. -1.
</event>
<event>
 5    1  0.6440325E+001  0.1599090E+01  0.7818608E-02  0.3354351E+00
         11   -1    0    0    0    0  0.00000000000E+00  0.00000000000E+00  0.39999999674E+01  0.40000000000E+01  0.51100000000E-03 0. -1.
    9000002   -1    0    0    0    0 -0.00000000000E+00 -0.00000000000E+00  0.00000000000E+00  0.93800000000E+00  0.93800000000E+00 0. -1.
         11    1    1    2    0    0 -0.31925960310E-01  0.24408886357E-01  0.55556705742E+00  0.55701891986E+00  0.51100000000E-03 0. -1.
    9000002    1    1    2    0    0  0.36652163103E+00 -0.16138290285E+00  0.10867640344E+00  0.10256886019E+01  0.93800000000E+00 0. -1.
         22    1    1    2    0    0 -0.33459567072E+00  0.13697401649E+00  0.33357565065E+01  0.33552924783E+01  0.00000000000E+00 0. -1.
</event>
<event>
 5    1  0.6440325E+001  0.1599677E+01  0.7818608E-02  0.3353714E+00
         11   -1    0    0    0    0  0.00000000000E+00  0.00000000000E+00  0.39999999674E+01  0.40000000000E+01  0.51100000000E-03 0.  1.
    9000002   -1    0    0    0    0 -0.00000000000E+00 -0.00000000000E+00  0.00000000000E+00  0.93800000000E+00  0.93800000000E+00 0.  1.
         11    1    1    2    0    0  0.51475079874E-01 -0.12209183061E+00  0.12619692756E+01  0.12689061480E+01  0.51100000000E-03 0. -1.
    9000002    1    1    2    0    0 -0.15819727876E+00  0.37622548643E+00  0.11247489676E+00  0.10291096142E+01  0.93800000000E+00 0.  1.
         22    1    1    2    0    0  0.10672219889E+00 -0.25413365581E+00  0.26255557950E+01  0.26399842377E+01  0.00000000000E+00 0.  1.
</event>
<event>
 5    1  0.6440325E+001  0.1599675E+01  0.7818608E-02  0.3353716E+00
         11   -1    0    0    0    0  0.00000000000E+00  0.00000000000E+00  0.39999999674E+01  0.40000000000E+01  0.51100000000E-03 0. -1.
    9000002   -1    0    0    0    0 -0.00000000000E+00 -0.00000000000E+00  0.00000000000E+00  0.93800000000E+00  0.93800000000E+00 0. -1.
         11    1    1    2    0    0 -0.11480154391E+00  0.48597729240E-01  0.83217038791E+00  0.84145644534E+00  0.51100000000E-03 0. -1.
    9000002    1    1    2    0    0  0.52009337836E+00 -0.21528827475E+00  0.21939213766E+00  0.11157163948E+01  0.93800000000E+00 0. -1.
         22    1    1    2    0    0 -0.40529183446E+00  0.16669054551E+00  0.29484374418E+01  0.29808271599E+01  0.00000000000E+00 0. -1.
</event>
<event>
 5    1  0.6440325E+001  0.1598564E+01  0.7818608E-02  0.3354923E+00
         11   -1    0    0    0    0  0.00000000000E+00  0.00000000000E+00  0.39999999674E+01  0.40000000000E+01  0.51100000000E-03 0. -1.
    9000002   -1    0    0    0    0 -0.00000000000E+00 -0.00000000000E+00  0.00000000000E+00  0.93800000000E+00  0.93800000000E+00 0. -1.
         11    1    1    2    0    0  0.82538639540E-03  0.44323752875E-02  0.35675740805E-01  0.35963131348E-01  0.51100000000E-03 0. -1.
    9000002    1    1    2    0    0  0.32998257534E+00  0.23562268401E+00  0.11190385903E+00  0.10279946609E+01  0.93800000000E+00 0. -1.
         22    1    1    2    0    0 -0.33080796174E+00 -0.24005505930E+00  0.38524203675E+01  0.38740422077E+01  0.00000000000E+00 0. -1.
</event>
<event>
 5    1  0.6440325E+001  0.1569480E+01  0.7818608E-02  0.3387170E+00
         11   -1    0    0    0    0  0.00000000000E+00  0.00000000000E+00  0.39999999674E+01  0.40000000000E+01  0.51100000000E-03 0.  1.
    9000002   -1    0    0    0    0 -0.00000000000E+00 -0.00000000000E+00  0.00000000000E+00  0.93800000000E+00  0.93800000000E+00 0. -1.
         11    1    1    2    0    0  0.13640923115E+00 -0.14006988876E-01  0.89159844250E+00  0.90208187980E+00  0.51100000000E-03 0.  1.
    9000002    1    1    2    0    0  0.98356034128E-01 -0.26511805706E+00  0.77069700529E-01  0.98272337530E+00  0.93800000000E+00 0. -1.
         22    1    1    2    0    0 -0.23476526527E+00  0.27912504593E+00  0.30313318243E+01  0.30531947449E+01  0.00000000000E+00 0.  1.
</event>
<event>
 5    1  0.6440325E+001  0.1599677E+01  0.7818608E-02  0.3353714E+00
         11   -1    0    0    0    0  0.00000000000E+00  0.00000000000E+00  0.39999999674E+01  0.40000000000E+01  0.51100000000E-03 0.  1.
    9000002   -1    0    0    0    0 -0.00000000000E+00 -0.00000000000E+00  0.00000000000E+00  0.93800000000E+00  0.93800000000E+00 0. -1.
         11    1    1    2    0    0 -0.37577417531E-01 -0.11661763385E-01  0.39213319231E+00  0.39410247483E+00  0.51100000000E-03 0. -1.
    9000002    1    1    2    0    0  0.37120403215E+00  0.11622960672E+00  0.10191439045E+00  0.10205548971E+01  0.93800000000E+00 0. -1.
         22    1    1    2    0    0 -0.33362661462E+00 -0.10456784334E+00  0.35059523846E+01  0.35233426281E+01  0.00000000000E+00 0.  1.
</event>
<event>
 5    1  0.6440325E+001  0.1599676E+01  0.7818608E-02  0.3353715E+00
         11   -1    0    0    0    0  0.00000000000E+00  0.00000000000E+00  0.39999999674E+01  0.40000000000E+01  0.51100000000E-03 0. -1.
    9000002   -1    0    0    0    0 -0.00000000000E+00 -0.00000000000E+00  0.00000000000E+00  0.93800000000E+00  0.93800000000E+00 0.  1.
         11    1    1    2    0    0 -0.89722697822E-01  0.16466987351E+00  0.11454251734E+01  0.11606745533E+01  0.51100000000E-03 0. -1.
    9000002    1    1    2    0    0  0.29183500422E+00 -0.53525076509E+00  0.25984887046E+00  0.11484887839E+01  0.93800000000E+00 0.  1.
         22    1    1    2    0    0 -0.20211230640E+00  0.37058089158E+00  0.25947259235E+01  0.26288366628E+01  0.00000000000E+00 0. -1.
</event>
<event>
 5    1  0.6440325E+001  0.1576405E+01  0.7818608E-02  0.3379377E+00
         11   -1    0    0    0    0  0.00000000000E+00  0.00000000000E+00  0.39999999674E+01  0.40000000000E+01  0.51100000000E-03 0.  1.
    9000002   -1    0    0    0    0 -0.00000000000E+00 -0.00000000000E+00  0.00000000000E+00  0.93800000000E+00  0.93800000000E+00 0.  1.
         11    1    1    2    0    0 -0.24378895446E-01  0.14120198080E+00  0.30783327282E+00  0.33954957650E+00  0.51100000000E-03 0.  1.
    9000002    1    1    2    0    0 -0.24797301614E+00 -0.56417641239E+00  0.28986883833E+00  0.11591607242E+01  0.93800000000E+00 0.  1.
         22    1    1    2    0    0  0.27235191159E+00  0.42297443159E+00  0.34022978562E+01  0.34392896993E+01  0.00000000000E+00 0.  1.
</event>
<event>
 5    1  0.6440325E+001  0.1569492E+01  0.7818608E-02  0.3387156E+00
         11   -1    0    0    0    0  0.00000000000E+00  0.00000000000E+00  0.39999999674E+01  0.40000000000E+01  0.51100000000E-03 0. -1.
    9000002   -1    0    0    0    0 -0.00000000000E+00 -0.00000000000E+00  0.00000000000E+00  0.93800000000E+00  0.93800000000E+00 0.  1.
         11    1    1    2    0    0  0.96111686805E-01  0.83879820415E-01  0.23941693772E+00  0.27128216271E+00  0.51100000000E-03 0. -1.
    9000002    1    1    2    0    0 -0.10831229965E+00 -0.45142879409E+00  0.17355624632E+00  0.10608889108E+01  0.93800000000E+00 0.  1.
         22    1    1    2    0    0  0.12200612848E-01  0.36754897368E+00  0.35870267833E+01  0.36058289265E+01  0.00000000000E+00 0. -1.
</event>
<event>
 5    1  0.6440325E+001  0.1599676E+01  0.7818608E-02  0.3353715E+00
         11   -1    0    0    0    0  0.00000000000E+00  0.00000000000E+00  0.39999999674E+01  0.40000000000E+01  0.51100000000E-03 0. -1.
    9000002   -1    0    0    0    0 -0.00000000000E+00 -0.00000000000E+00  0.00000000000E+00  0.93800000000E+00  0.93800000000E+00 0.  1.
         11    1    1    2    0    0 -0.11735416968E+00  0.16665166738E-02  0.10782676049E+01  0.10846363756E+01  0.51100000000E-03 0. -1.
    9000002    1    1    2    0    0  0.42016803007E+00 -0.22649184962E-02  0.11940294873E+00  0.10347209129E+01  0.93800000000E+00 0.  1.
         22    1    1    2    0    0 -0.30281386039E+00  0.59840182237E-03  0.28023294137E+01  0.28186427115E+01  0.00000000000E+00 0. -1.
</event>
<event>
 5    1  0.6440325E+001  0.1599213E+01  0.7818608E-02  0.3354218E+00
         11   -1    0    0    0    0  0.00000000000E+00  0.00000000000E+00  0.39999999674E+01  0.40000000000E+01  0.51100000000E-03 0.  1.
    9000002   -1    0    0    0    0 -0.00000000000E+00 -0.00000000000E+00  0.00000000000E+00  0.93800000000E+00  0.93800000000E+00 0.  1.
         11    1    1    2    0    0 -0.91541405321E-02 -0.62200623976E-01  0.58123658178E+00  0.58462718123E+00  0.51100000000E-03 0.  1.
    9000002    1    1    2    0    0  0.17058362632E+00  0.35851261353E+00  0.10666976469E+00  0.10241350040E+01  0.93800000000E+00 0.  1.
         22    1    1    2    0    0 -0.16142948578E+00 -0.29631198955E+00  0.33120936209E+01  0.33292378148E+01  0.00000000000E+00 0.  1.
</event>
<event>
 5    1  0.6440325E+001  0.1599493E+01  0.7818608E-02  0.3353913E+00
         11   -1    0    0    0    0  0.00000000000E+00  0.00000000000E+00  0.39999999674E+01  0.40000000000E+01  0.51100000000E-03 0.  1.
    9000002   -1    0    0    0    0 -0.00000000000E+00 -0.00000000000E+00  0.00000000000E+00  0.93800000000E+00  0.93800000000E+00 0.  1.
         11    1    1    2    0    0 -0.14441299403E+00  0.13118114099E-01  0.12067088939E+01  0.12153903955E+01  0.51100000000E-03 0.  1.
    9000002    1    1    2    0    0  0.46611758199E+00  0.61159599123E-02  0.14810912911E+00  0.10578673449E+01  0.93800000000E+00 0.  1.
         22    1    1    2    0    0 -0.32170458796E+00 -0.19234074011E-01  0.26451819443E+01  0.26647422596E+01  0.00000000000E+00 0.  1.
</event>
<event>
 5    1  0.6440325E+001  0.1599669E+01  0.7818608E-02  0.3353723E+00
         11   -1    0    0    0    0  0.00000000000E+00  0.00000000000E+00  0.39999999674E+01  0.40000000000E+01  0.51100000000E-03 0.  1.
    9000002   -1    0    0    0    0 -0.00000000000E+00 -0.00000000000E+00  0.00000000000E+00  0.93800000000E+00  0.93800000000E+00 0.  1.
         11    1    1    2    0    0  0.73198437183E-01 -0.13720056668E+00  0.72527728767E+00  0.74176102070E+00  0.51100000000E-03 0.  1.
    9000002    1    1    2    0    0 -0.35263745900E+00  0.68578506964E+00  0.43392063469E+00  0.12894903863E+01  0.93800000000E+00 0.  1.
         22    1    1    2    0    0  0.27943902181E+00 -0.54858450297E+00  0.28408020450E+01  0.29067485930E+01  0.00000000000E+00 0.  1.
</event>
<event>
 5    1  0.6440325E+001  0.1574565E+01  0.7818608E-02  0.3381441E+00
         11   -1    0    0    0    0  0.00000000000E+00  0.00000000000E+00  0.39999999674E+01  0.40000000000E+01  0.51100000000E-03 0.  1.
    9000002   -1    0    0    0    0 -0.00000000000E+00 -0.00000000000E+00  0.00000000000E+00  0.93800000000E+00  0.93800000000E+00 0. -1.
         11    1    1    2    0    0 -0.19884187947E+00  0.66222228379E-03  0.10610019502E+01  0.10794739140E+01  0.51100000000E-03 0.  1.
    9000002    1    1    2    0    0  0.22670272065E+00  0.36899623376E+00  0.14879953946E+00  0.10438092005E+01  0.93800000000E+00 0. -1.
         22    1    1    2    0    0 -0.27860841179E-01 -0.36965845604E+00  0.27901984777E+01  0.28147168855E+01  0.00000000000E+00 0.  1.
</event>
<event>
 5    1  0.6440325E+001  0.1599676E+01  0.7818608E-02  0.3353715E+00
         11   -1    0    0    0    0  0.00000000000E+00  0.00000000000E+00  0.39999999674E+01  0.40000000000E+01  0.51100000000E-03 0.  1.
    9000002   -1    0    0    0    0 -0.00000000000E+00 -0.00000000000E+00  0.00000000000E+00  0.93800000000E+00  0.93800000000E+00 0.  1.
         11    1    1    2    0    0 -0.27141143980E-01 -0.71565121948E-02  0.30646965830E+00  0.30775277407E+00  0.51100000000E-03 0.  1.
    9000002    1    1    2    0    0  0.34767828786E+00  0.85105050467E-01  0.85984935458E-01  0.10076509666E+01  0.93800000000E+00 0.  1.
         22    1    1    2    0    0 -0.32053714388E+00 -0.77948538272E-01  0.36075453736E+01  0.36225962593E+01  0.00000000000E+00 0.  1.
</event>
<event>
 5    1  0.6440325E+001  0.1590975E+01  0.7818608E-02  0.3363218E+00
         11   -1    0    0    0    0  0.00000000000E+00  0.00000000000E+00  0.39999999674E+01  0.40000000000E+01  0.51100000000E-03 0.  1.
    9000002   -1    0    0    0    0 -0.00000000000E+00 -0.00000000000E+00  0.00000000000E+00  0.93800000000E+00  0.93800000000E+00 0. -1.
         11    1    1    2    0    0  0.13769332233E-01  0.12260919641E-01  0.32460853409E-01  0.37334873585E-01  0.51100000000E-03 0.  1.
    9000002    1    1    2    0    0  0.38118581996E+00  0.24760112090E-02  0.10496662241E+00  0.10179247280E+01  0.93800000000E+00 0. -1.
         22    1    1    2    0    0 -0.39495515219E+00 -0.14736930850E-01  0.38625724915E+01  0.38827403985E+01  0.00000000000E+00 0.  1.
</event>
<event>
 5    1  0.6440325E+001  0.1599503E+01  0.7818608E-02  0.3353903E+00
         11   -1    0    0    0    0  0.00000000000E+00  0.00000000000E+00  0.39999999674E+01  0.40000000000E+01  0.51100000000E-03 0.  1.
    9000002   -1    0    0    0    0 -0.00000000000E+00 -0.00000000000E+00  0.00000000000E+00  0.93800000000E+00  0.93800000000E+00 0. -1.
         11    1    1    2    0    0  0.12966049260E-01  0.48906419595E-01  0.49883984431E+00  0.50139944925E+00  0.51100000000E-03 0.  1.
    9000002    1    1    2    0    0 -0.20847374360E-01 -0.36394239227E+00  0.89391267994E-01  0.10103086047E+01  0.93800000000E+00 0. -1.
         22    1    1    2    0    0  0.78813250997E-02  0.31503597268E+00  0.34117688551E+01  0.34262919461E+01  0.00000000000E+00 0.  1.
</event>
<event>
 5    1  0.6440325E+001  0.1578463E+01  0.7818608E-02  0.3377076E+00
         11   -1    0    0    0    0  0.00000000000E+00  0.00000000000E+00  0.39999999674E+01  0.40000000000E+01  0.51100000000E-03 0.  1.
    9000002   -1    0    0    0    0 -0.00000000000E+00 -0.00000000000E+00  0.00000000000E+00  0.93800000000E+00  0.93800000000E+00 0. -1.
         11    1    1    2    0    0  0.33127613239E-01  0.89270354814E-01  0.46694724705E+00  0.47655705603E+00  0.51100000000E-03 0.  1.
    9000002    1    1    2    0    0 -0.20703378868E+00  0.20219420314E+00  0.72514723184E-01  0.98430070127E+00  0.93800000000E+00 0. -1.
         22    1    1    2    0    0  0.17390617544E+00 -0.29146455795E+00  0.34605379971E+01  0.34771422427E+01  0.00000000000E+00 0.  1.
</event>
<event>
 5    1  0.6440325E+001  0.1599462E+01  0.7818608E-02  0.3353948E+00
         11   -1    0    0    0    0  0.00000000000E+00  0.00000000000E+00  0.39999999674E+01  0.40000000000E+01  0.51100000000E-03 0. -1.
    9000002   -1    0    0    0    0 -0.00000000000E+00 -0.00000000000E+00  0.00000000000E+00  0.93800000000E+00  0.93800000000E+00 0. -1.
         11    1    1    2    0    0  0.86160192454E-04 -0.14709708483E-03  0.73784457681E-02  0.73980838116E-02  0.51100000000E-03 0.  1.
    9000002    1    1    2    0    0  0.33399972492E+00 -0.57221415422E+00  0.31094740630E+00  0.11897550773E+01  0.93800000000E+00 0. -1.
         22    1    1    2    0    0 -0.33408588511E+00  0.57236125131E+00  0.36816741153E+01  0.37408468389E+01  0.00000000000E+00 0. -1.
</event>
<event>
 5    1  0.6440325E+001  0.1599602E+01  0.7818608E-02  0.3353796E+00
         11   -1    0    0    0    0  0.00000000000E+00  0.00000000000E+00  0.39999999674E+01  0.40000000000E+01  0.51100000000E-03 0.  1.
    9000002   -1    0    0    0    0 -0.00000000000E+00 -0.00000000000E+00  0.00000000000E+00  0.93800000000E+00  0.93800000000E+00 0. -1.
         11    1    1    2    0    0 -0.21203953085E-01 -0.47209613577E-01  0.50165600436E+00  0.50431871180E+00  0.51100000000E-03 0.  1.
    9000002    1    1    2    0    0  0.20368683857E+00  0.32899246092E+00  0.10088832228E+00  0.10196797640E+01  0.93800000000E+00 0. -1.
         22    1    1    2    0    0 -0.18248288548E+00 -0.28178284735E+00  0.33974556407E+01  0.34140015242E+01  0.00000000000E+00 0.  1.
</event>
<event>
 5    1  0.6440325E+001  0.1505825E+01  0.7818608E-02  0.3462380E+00
         11   -1    0    0    0    0  0.00000000000E+00  0.00000000000E+00  0.39999999674E+01  0.40000000000E+01  0.51100000000E-03 0. -1.
    9000002   -1    0    0    0    0 -0.00000000000E+00 -0.00000000000E+00  0.00000000000E+00  0.93800000000E+00  0.93800000000E+00 0. -1.
         11    1    1    2    0    0 -0.35790966995E+00 -0.13224464388E+00  0.12362301730E+01  0.12937748179E+01  0.51100000000E-03 0. -1.
    9000002    1    1    2    0    0  0.10725355569E+00  0.49652117165E-01  0.81411778258E-01  0.94891545229E+00  0.93800000000E+00 0. -1.
         22    1    1    2    0    0  0.25065611425E+00  0.82592526713E-01  0.26823580161E+01  0.26953097298E+01  0.00000000000E+00 0. -1.
</event>
<event>
 5    1  0.6440325E+001  0.1599630E+01  0.7818608E-02  0.3353765E+00
         11   -1    0    0    0    0  0.00000000000E+00  0.00000000000E+00  0.39999999674E+01  0.40000000000E+01  0.51100000000E-03 0. -1.
    9000002   -1    0    0    0    0 -0.00000000000E+00 -0.00000000000E+00  0.00000000000E+00  0.93800000000E+00  0.93800000000E+00 0. -1.
         11    1    1    2    0    0  0.25438287348E-01  0.10610613454E+00  0.11921689647E+01  0.11971519201E+01  0.51100000000E-03 0. -1.
    9000002    1    1    2    0    0 -0.86279047104E-01 -0.37203476122E+00  0.98197654394E-01  0.10175169369E+01  0.93800000000E+00 0. -1.
         22    1    1    2    0    0  0.60840759756E-01  0.26592862669E+00  0.27096333483E+01  0.27233311430E+01  0.00000000000E+00 0. -1.
</event>
<event>
 5    1  0.6440325E+001  0.1599677E+01  0.7818608E-02  0.3353714E+00
         11   -1    0    0    0    0  0.00000000000E+00  0.00000000000E+00  0.39999999674E+01  0.40000000000E+01  0.51100000000E-03 0.  1.
    9000002   -1    0    0    0    0 -0.00000000000E+00 -0.00000000000E+00  0.00000000000E+00  0.93800000000E+00  0.93800000000E+00 0. -1.
         11    1    1    2    0    0 -0.14993154481E-01  0.89073868926E-01  0.41693102211E+00  0.42660366516E+00  0.51100000000E-03 0. -1.
    9000002    1    1    2    0    0  0.12713370663E+00 -0.76172804697E+00  0.43533515405E+00  0.12906406523E+01  0.93800000000E+00 0. -1.
         22    1    1    2    0    0 -0.11214055215E+00  0.67265417804E+00  0.31477337912E+01  0.32207556826E+01  0.00000000000E+00 0.  1.
</event>
<event>
 5    1  0.6440325E+001  0.1599676E+01  0.7818608E-02  0.3353715E+00
         11   -1    0    0    0    0  0.00000000000E+00  0.00000000000E+00  0.39999999674E+01  0.40000000000E+01  0.51100000000E-03 0.  1.
    9000002   -1    0    0    0    0 -0.00000000000E+00 -0.00000000000E+00  0.00000000000E+00  0.93800000000E+00  0.93800000000E+00 0. -1.
         11    1    1    2    0    0  0.94860737002E-01 -0.28857997262E-01  0.62349069933E+00  0.63132579284E+00  0.51100000000E-03 0.  1.
    9000002    1    1    2    0    0 -0.57335599927E+00  0.17751696263E+00  0.25135769250E+00  0.11416102941E+01  0.93800000000E+00 0. -1.
         22    1    1    2    0    0  0.47849526227E+00 -0.14865896537E+00  0.31251515755E+01  0.31650639131E+01  0.00000000000E+00 0.  1.
</event>
<event>
 5    1  0.6440325E+001  0.1599677E+01  0.7818608E-02  0.3353714E+00
         11   -1    0    0    0    0  0.00000000000E+00  0.00000000000E+00  0.39999999674E+01  0.40000000000E+01  0.51100000000E-03 0. -1.
    9000002   -1    0    0    0    0 -0.00000000000E+00 -0.00000000000E+00  0.00000000000E+00  0.93800000000E+00  0.93800000000E+00 0.  1.
         11    1    1    2    0    0 -0.14815106352E+00  0.95723050678E-02  0.12749790109E+01  0.12835934349E+01  0.51100000000E-03 0. -1.
    9000002    1    1    2    0    0  0.44943239396E+00 -0.30539780137E-01  0.13783127924E+00  0.10496492826E+01  0.93800000000E+00 0.  1.
         22    1    1    2    0    0 -0.30128133044E+00  0.20967475070E-01  0.25871896772E+01  0.26047572825E+01  0.00000000000E+00 0. -1.
</event>
<event>
 5    1  0.6440325E+001  0.1598017E+01  0.7818608E-02  0.3355518E+00
         11   -1    0    0    0    0  0.00000000000E+00  0.00000000000E+00  0.39999999674E+01  0.40000000000E+01  0.51100000000E-03 0.  1.
    9000002   -1    0    0    0    0 -0.00000000000E+00 -0.00000000000E+00  0.00000000000E+00  0.93800000000E+00  0.93800000000E+00 0.  1.
         11    1    1    2    0    0  0.17242016730E-01  0.15990732869E-01  0.37470623686E+00  0.37544375842E+00  0.51100000000E-03 0.  1.
    9000002    1    1    2    0    0 -0.46965470568E+00 -0.21362430303E+00  0.18425308389E+00  0.10862799291E+01  0.93800000000E+00 0.  1.
         22    1    1    2    0    0  0.45241268895E+00  0.19763357016E+00  0.34410406466E+01  0.34762763125E+01  0.00000000000E+00 0.  1.
</event>
<event>
 5    1  0.6440325E+001  0.1597242E+01  0.7818608E-02  0.3356362E+00
         11   -1    0    0    0    0  0.00000000000E+00  0.00000000000E+00  0.39999999674E+01  0.40000000000E+01  0.51100000000E-03 0.  1.
    9000002   -1    0    0    0    0 -0.00000000000E+00 -0.00000000000E+00  0.00000000000E+00  0.93800000000E+00  0.93800000000E+00 0.  1.
         11    1    1    2    0    0  0.11195672491E-01  0.90736268127E-01  0.53639465958E+00  0.54413041211E+00  0.51100000000E-03 0.  1.
    9000002    1    1    2    0    0  0.10649450695E+00 -0.42337571517E+00  0.13127632965E+00  0.10429120533E+01  0.93800000000E+00 0.  1.
         22    1    1    2    0    0 -0.11769017944E+00  0.33263944705E+00  0.33323289781E+01  0.33509575346E+01  0.00000000000E+00 0.  1.
</event>
<event>
 5    1  0.6440325E+001  0.1522553E+01  0.7818608E-02  0.3441964E+00
         11   -1    0    0    0    0  0.00000000000E+00  0.00000000000E+00  0.39999999674E+01  0.40000000000E+01  0.51100000000E-03 0. -1.
    9000002   -1    0    0    0    0 -0.00000000000E+00 -0.00000000000E+00  0.00000000000E+00  0.93800000000E+00  0.93800000000E+00 0. -1.
         11    1    1    2    0    0  0.17683957200E+00  0.20187755550E+00  0.54138331488E+00  0.60425403299E+00  0.51100000000E-03 0. -1.
    9000002    1    1    2    0    0  0.95552920195E-01 -0.40643299284E+00  0.18598491214E+00  0.10434330481E+01  0.93800000000E+00 0. -1.
         22    1    1    2    0    0 -0.27239249220E+00  0.20455543734E+00  0.32726317403E+01  0.32903129190E+01  0.00000000000E+00 0. -1.
</event>
<event>
 5    1  0.6440325E+001  0.1595526E+01  0.7818608E-02  0.3358233E+00
         11   -1    0    0    0    0  0.00000000000E+00  0.00000000000E+00  0.39999999674E+01  0.40000000000E+01  0.51100000000E-03 0. -1.
    9000002   -1    0    0    0    0 -0.00000000000E+00 -0.00000000000E+00  0.00000000000E+00  0.93800000000E+00  0.93800000000E+00 0. -1.
         11    1    1    2    0    0 -0.20878712014E+00  0.71563312867E-01  0.12017111014E+01  0.12218114428E+01  0.51100000000E-03 0. -1.
    9000002    1    1    2    0    0  0.43491049468E+00 -0.25276330961E+00  0.17706394327E+00  0.10789958615E+01  0.93800000000E+00 0. -1.
         22    1    1    2    0    0 -0.22612337454E+00  0.18119999674E+00  0.26212249227E+01  0.26371926958E+01  0.00000000000E+00 0. -1.
</event>
<event>
 5    1  0.6440325E+001  0.1599639E+01  0.7818608E-02  0.3353755E+00
         11   -1    0    0    0    0  0.00000000000E+00  0.00000000000E+00  0.39999999674E+01  0.40000000000E+01  0.51100000000E-03 0. -1.
    9000002   -1    0    0    0    0 -0.00000000000E+00 -0.00000000000E+00  0.00000000000E+00  0.93800000000E+00  0.93800000000E+00 0. -1.
         11    1    1    2    0    0 -0.14871091159E-02  0.48543517203E-03  0.24874547526E-01  0.24928926500E-01  0.51100000000E-03 0. -1.
    9000002    1    1    2    0    0  0.34044054165E+00 -0.20438359819E+00  0.10634502789E+00  0.10241219081E+01  0.93800000000E+00 0. -1.
         22    1    1    2    0    0 -0.33895343254E+00  0.20389816302E+00  0.38687803919E+01  0.38889491654E+01  0.00000000000E+00 0. -1.
</event>
<event>
 5    1  0.6440325E+001  0.1599475E+01  0.7818608E-02  0.3353934E+00
         11   -1    0    0    0    0  0.00000000000E+00  0.00000000000E+00  0.39999999674E+01  0.40000000000E+01  0.51100000000E-03 0.  1.
    9000002   -1    0    0    0    0 -0.00000000000E+00 -0.00000000000E+00  0.00000000000E+00  0.93800000000E+00  0.93800000000E+00 0.  1.
         11    1    1    2    0    0  0.93693084239E-02  0.10990978993E-01  0.10045189023E+00  0.10148610215E+00  0.51100000000E-03 0.  1.
    9000002    1    1    2    0    0 -0.17202278097E+00 -0.33983498520E+00  0.97792101832E-01  0.10170973157E+01  0.93800000000E+00 0.  1.
         22    1    1    2    0    0  0.16265347255E+00  0.32884400620E+00  0.38017559753E+01  0.38194165822E+01  0.00000000000E+00 0.  1.
</event>
<event>
 5    1  0.6440325E+001  0.1597097E+01  0.7818608E-02  0.3356520E+00
         11   -1    0    0    0    0  0.00000000000E+00  0.00000000000E+00  0.39999999674E+01  0.40000000000E+01  0.51100000000E-03 0.  1.
    9000002   -1    0    0    0    0 -0.00000000000E+00 -0.00000000000E+00  0.00000000000E+00  0.93800000000E+00  0.93800000000E+00 0.  1.
         11    1    1    2    0    0  0.28023757305E-01 -0.36170968203E-01  0.45611622317E+00  0.45840586828E+00  0.51100000000E-03 0.  1.
    9000002    1    1    2    0    0 -0.36626821862E+00 -0.17644974182E-02  0.92219967601E-01  0.10111894204E+01  0.93800000000E+00 0.  1.
         22    1    1    2    0    0  0.33824446132E+00  0.37935465621E-01  0.34516637766E+01  0.34684047114E+01  0.00000000000E+00 0.  1.
</event>
<event>
 5    1  0.6440325E+001  0.1599677E+01  0.7818608E-02  0.3353714E+00
         11   -1    0    0    0    0  0.00000000000E+00  0.00000000000E+00  0.39999999674E+01  0.40000000000E+01  0.51100000000E-03 0.  1.
    9000002   -1    0    0    0    0 -0.00000000000E+00 -0.00000000000E+00  0.00000000000E+00  0.93800000000E+00  0.93800000000E+00 0. -1.
         11    1    1    2    0    0 -0.11758075670E+00 -0.85232797719E-01  0.14643232861E+01  0.14715069866E+01  0.51100000000E-03 0.  1.
    9000002    1    1    2    0    0  0.31352655839E+00  0.22729826784E+00  0.10099098209E+00  0.10198071307E+01  0.93800000000E+00 0. -1.
         22    1    1    2    0    0 -0.19594580169E+00 -0.14206547012E+00  0.24346856991E+01  0.24466858827E+01  0.00000000000E+00 0.  1.
</event>
<event>
 5    1  0.6440325E+001  0.1599574E+01  0.7818608E-02  0.3353826E+00
         11   -1    0    0    0    0  0.00000000000E+00  0.00000000000E+00  0.39999999674E+01  0.40000000000E+01  0.51100000000E-03 0. -1.
    9000002   -1    0    0    0    0 -0.00000000000E+00 -0.00000000000E+00  0.00000000000E+00  0.93800000000E+00  0.93800000000E+00 0. -1.
         11    1    1    2    0    0  0.39523745567E-02  0.10821997887E-02  0.21672985503E-01  0.22062906486E-01  0.51100000000E-03 0. -1.
    9000002    1    1    2    0    0 -0.39194039991E+00 -0.24152352340E+00  0.14426709971E+00  0.10548022969E+01  0.93800000000E+00 0. -1.
         22    1    1    2    0    0  0.38798802535E+00  0.24044132361E+00  0.38340598821E+01  0.38611347966E+01  0.00000000000E+00 0. -1.
</event>
<event>
 5    1  0.6440325E+001  0.1596805E+01  0.7818608E-02  0.3356839E+00
         11   -1    0    0    0    0  0.00000000000E+00  0.00000000000E+00  0.39999999674E+01  0.40000000000E+01  0.51100000000E-03 0. -1.
    9000002   -1    0    0    0    0 -0.00000000000E+00 -0.00000000000E+00  0.00000000000E+00  0.93800000000E+00  0.93800000000E+00 0. -1.
         11    1    1    2    0    0 -0.41038061070E-01  0.15780233017E-01  0.12969646635E+01  0.12977098049E+01  0.51100000000E-03 0. -1.
    9000002    1    1    2    0    0  0.29245754034E+00 -0.12316158176E+00  0.69562612190E-01  0.99266466903E+00  0.93800000000E+00 0. -1.
         22    1    1    2    0    0 -0.25141947927E+00  0.10738134874E+00  0.26334726917E+01  0.26476255261E+01  0.00000000000E+00 0. -1.
</event>
<event>
 5    1  0.6440325E+001  0.1573115E+01  0.7818608E-02  0.3383071E+00
         11   -1    0    0    0    0  0.00000000000E+00  0.00000000000E+00  0.39999999674E+01  0.40000000000E+01  0.51100000000E-03 0. -1.
    9000002   -1    0    0    0    0 -0.00000000000E+00 -0.00000000000E+00  0.00000000000E+00  0.93800000000E+00  0.93800000000E+00 0. -1.
         11    1    1    2    0    0 -0.64531829355E-01  0.11837983669E+00  0.80354550748E+00  0.81477836645E+00  0.51100000000E-03 0. -1.
    9000002    1    1    2    0    0 -0.24906917778E+00 -0.49808583321E-01  0.63489403817E-01  0.97385381587E+00  0.93800000000E+00 0. -1.
         22    1    1    2    0    0  0.31360100713E+00 -0.68571253373E-01  0.31329650561E+01  0.31493678177E+01  0.00000000000E+00 0. -1.
</event>
<event>
 5    1  0.6440325E+001  0.1598723E+01  0.7818608E-02  0.3354751E+00
         11   -1    0    0    0    0  0.00000000000E+00  0.00000000000E+00  0.39999999674E+01  0.40000000000E+01  0.51100000000E-03 0.  1.
    9000002   -1    0    0    0    0 -0.00000000000E+00 -0.00000000000E+00  0.00000000000E+00  0.93800000000E+00  0.93800000000E+00 0. -1.
         11    1    1    2    0    0 -0.14430047870E-01 -0.19240618040E-01  0.10583505590E+00  0.10853454677E+00  0.51100000000E-03 0.  1.
    9000002    1    1    2    0    0  0.20839903151E+00  0.38747535098E+00  0.13209393087E+00  0.10444424879E+01  0.93800000000E+00 0. -1.
         22    1    1    2    0    0 -0.19396898364E+00 -0.36823473294E+00  0.37620709806E+01  0.37850229653E+01  0.00000000000E+00 0.  1.
</event>
<event>
 5    1  0.6440325E+001  0.1599547E+01  0.7818608E-02  0.3353855E+00
         11   -1    0    0    0    0  0.00000000000E+00  0.00000000000E+00  0.39999999674E+01  0.40000000000E+01  0.51100000000E-03 0. -1.
    9000002   -1    0    0    0    0 -0.00000000000E+00 -0.00000000000E+00  0.00000000000E+00  0.93800000000E+00  0.93800000000E+00 0. -1.
         11    1    1    2    0    0  0.12633481494E+00 -0.23605104886E-01  0.74746617185E+00  0.75843498444E+00  0.51100000000E-03 0. -1.
    9000002    1    1    2    0    0 -0.61105693253E+00  0.66807898078E-01  0.26460338809E+00  0.11522642158E+01  0.93800000000E+00 0. -1.
         22    1    1    2    0    0  0.48472211758E+00 -0.43202793193E-01  0.29879304074E+01  0.30273007998E+01  0.00000000000E+00 0. -1.
</event>
<event>
 5    1  0.6440325E+001  0.1596048E+01  0.7818608E-02  0.3357664E+00
         11   -1    0    0    0    0  0.00000000000E+00  0.00000000000E+00  0.39999999674E+01  0.40000000000E+01  0.51100000000E-03 0.  1.
    9000002   -1    0    0    0    0 -0.00000000000E+00 -0.00000000000E+00  0.00000000000E+00  0.93800000000E+00  0.93800000000E+00 0. -1.
         11    1    1    2    0    0 -0.59853791373E-02 -0.32085544395E-01  0.64005983970E+00  0.64089169634E+00  0.51100000000E-03 0.  1.
    9000002    1    1    2    0    0  0.30560936116E+00  0.75097593207E-02  0.65231724337E-01  0.98871262558E+00  0.93800000000E+00 0. -1.
         22    1    1    2    0    0 -0.29962398203E+00  0.24575785075E-01  0.32947084033E+01  0.33083956781E+01  0.00000000000E+00 0.  1.
</event>
<event>
 5    1  0.6440325E+001  0.1598638E+01  0.7818608E-02  0.3354843E+00
         11   -1    0    0    0    0  0.00000000000E+00  0.00000000000E+00  0.39999999674E+01  0.40000000000E+01  0.51100000000E-03 0.  1.
    9000002   -1    0    0    0    0 -0.00000000000E+00 -0.00000000000E+00  0.00000000000E+00  0.93800000000E+00  0.93800000000E+00 0. -1.
         11    1    1    2    0    0  0.13673633560E+00 -0.11365482865E+00  0.13912421526E+01  0.14025581035E+01  0.51100000000E-03 0.  1.
    9000002    1    1    2    0    0 -0.38317736043E+00  0.41052653238E+00  0.21929586353E+00  0.11150298647E+01  0.93800000000E+00 0. -1.
         22    1    1    2    0    0  0.24644102483E+00 -0.29687170374E+00  0.23894619512E+01  0.24204120318E+01  0.00000000000E+00 0.  1.
</event>
<event>
 5    1  0.6440325E+001  0.1598398E+01  0.7818608E-02  0.3355104E+00
         11   -1    0    0    0    0  0.00000000000E+00  0.00000000000E+00  0.39999999674E+01  0.40000000000E+01  0.51100000000E-03 0. -1.
    9000002   -1    0    0    0    0 -0.00000000000E+00 -0.00000000000E+00  0.00000000000E+00  0.93800000000E+00  0.93800000000E+00 0. -1.
         11    1    1    2    0    0  0.22452484173E-01 -0.38340986960E+00  0.12187357645E+01  0.12778201622E+01  0.51100000000E-03 0. -1.
    9000002    1    1    2    0    0 -0.55391697448E-01  0.10668923921E+01  0.96223281527E+00  0.17167013739E+01  0.93800000000E+00 0. -1.
         22    1    1    2    0    0  0.32939213275E-01 -0.68348252253E+00  0.18190313876E+01  0.19434784638E+01  0.00000000000E+00 0. -1.
</event>
<event>
 5    1  0.6440325E+001  0.1599662E+01  0.7818608E-02  0.3353730E+00
         11   -1    0    0    0    0  0.00000000000E+00  0.00000000000E+00  0.39999999674E+01  0.40000000000E+01  0.51100000000E-03 0. -1.
    9000002   -1    0    0    0    0 -0.00000000000E+00 -0.00000000000E+00  0.00000000000E+00  0.93800000000E+00  0.93800000000E+00 0.  1.
         11    1    1    2    0    0 -0.10641133105E+00  0.27427669244E-01  0.93532542931E+00  0.94175876330E+00  0.51100000000E-03 0. -1.
    9000002    1    1    2    0    0  0.43853155585E+00 -0.12963198353E+00  0.14219459218E+00  0.10531750466E+01  0.93800000000E+00 0.  1.
         22    1    1    2    0    0 -0.33212022480E+00  0.10220431428E+00  0.29224799459E+01  0.29430661901E+01  0.00000000000E+00 0. -1.
</event>
<event>
 5    1  0.6440325E+001  0.1592983E+01  0.7818608E-02  0.3361015E+00
         11   -1    0    0    0    0  0.00000000000E+00  0.00000000000E+00  0.39999999674E+01  0.40000000000E+01  0.51100000000E-03 0. -1.
    9000002   -1    0    0    0    0 -0.00000000000E+00 -0.00000000000E+00  0.00000000000E+00  0.93800000000E+00  0.93800000000E+00 0.  1.
         11    1    1    2    0    0 -0.29931775844E-01 -0.63959572316E-01  0.78748264264E+00  0.79064272062E+00  0.51100000000E-03 0. -1.
    9000002    1    1    2    0    0 -0.22527992870E+00  0.19947064647E+00  0.65665537725E-01  0.98726670557E+00  0.93800000000E+00 0.  1.
         22    1    1    2    0    0  0.25521170454E+00 -0.13551107416E+00  0.31468517870E+01  0.31600905738E+01  0.00000000000E+00 0. -1.
</event>
<event>
 5    1  0.6440325E+001  0.1580925E+01  0.7818608E-02  0.3374331E+00
         11   -1    0    0    0    0  0.00000000000E+00  0.00000000000E+00  0.39999999674E+01  0.40000000000E+01  0.51100000000E-03 0.  1.
    9000002   -1    0    0    0    0 -0.00000000000E+00 -0.00000000000E+00  0.00000000000E+00  0.93800000000E+00  0.93800000000E+00 0. -1.
         11    1    1    2    0    0 -0.65627249789E-01 -0.53519467325E-01  0.25873418139E+00  0.27224053159E+00  0.51100000000E-03 0.  1.
    9000002    1    1    2    0    0 -0.15723672381E+00  0.31343241615E+00  0.97716249001E-01  0.10061589000E+01  0.93800000000E+00 0. -1.
         22    1    1    2    0    0  0.22286397360E+00 -0.25991294883E+00  0.36435495370E+01  0.36596005684E+01  0.00000000000E+00 0.  1.
</event>
<event>
 5    1  0.6440325E+001  0.1589282E+01  0.7818608E-02  0.3365079E+00
         11   -1    0    0    0    0  0.00000000000E+00  0.00000000000E+00  0.39999999674E+01  0.40000000000E+01  0.51100000000E-03 0.  1.
    9000002   -1    0    0    0    0 -0.00000000000E+00 -0.00000000000E+00  0.00000000000E+00  0.93800000000E+00  0.93800000000E+00 0.  1.
         11    1    1    2    0    0  0.86779103124E-01  0.12268323051E+00  0.60659867945E+00  0.62493520210E+00  0.51100000000E-03 0.  1.
    9000002    1    1    2    0    0 -0.35706752716E+00 -0.24114000304E+00  0.13464102320E+00  0.10409697042E+01  0.93800000000E+00 0.  1.
         22    1    1    2    0    0  0.27028842404E+00  0.11845677253E+00  0.32587602647E+01  0.32720950937E+01  0.00000000000E+00 0.  1.
</event>
<event>
 5    1  0.6440325E+001  0.1598692E+01  0.7818608E-02  0.3354784E+00
         11   -1    0    0    0    0  0.00000000000E+00  0.00000000000E+00  0.39999999674E+01  0.40000000000E+01  0.51100000000E-03 0. -1.
    9000002   -1    0    0    0    0 -0.00000000000E+00 -0.00000000000E+00  0.00000000000E+00  0.93800000000E+00  0.93800000000E+00 0. -1.
         11    1    1    2    0    0  0.30970715178E+00  0.81433857450E-02  0.13031539826E+01  0.13394757922E+01  0.51100000000E-03 0. -1.
    9000002    1    1    2    0    0 -0.89911111688E+00  0.10339564958E-02  0.62004936672E+00  0.14396899273E+01  0.93800000000E+00 0. -1.
         22    1    1    2    0    0  0.58940396510E+00 -0.91773422408E-02  0.20767966181E+01  0.21588342805E+01  0.00000000000E+00 0.  1.
</event>
<event>
 5    1  0.6440325E+001  0.1599675E+01  0.7818608E-02  0.3353716E+00
         11   -1    0    0    0    0  0.00000000000E+00  0.00000000000E+00  0.39999999674E+01  0.40000000000E+01  0.51100000000E-03 0. -1.
    9000002   -1    0    0    0    0 -0.00000000000E+00 -0.00000000000E+00  0.00000000000E+00  0.93800000000E+00  0.93800000000E+00 0. -1.
         11    1    1    2    0    0  0.17913212848E+00  0.53146892709E-01  0.11329697590E+01  0.11482742040E+01  0.51100000000E-03 0. -1.
    9000002    1    1    2    0    0 -0.59141457321E+00 -0.18027004565E+00  0.26777696111E+00  0.11549099479E+01  0.93800000000E+00 0. -1.
         22    1    1    2    0    0  0.41228244473E+00  0.12712315294E+00  0.25992532473E+01  0.26348158482E+01  0.00000000000E+00 0. -1.
</event>
<event>
 5    1  0.6440325E+001  0.1599664E+01  0.7818608E-02  0.3353729E+00
         11   -1    0    0    0    0  0.00000000000E+00  0.00000000000E+00  0.39999999674E+01  0.40000000000E+01  0.51100000000E-03 0.  1.
    9000002   -1    0    0    0    0 -0.00000000000E+00 -0.00000000000E+00  0.00000000000E+00  0.93800000000E+00  0.93800000000E+00 0. -1.
         11    1    1    2    0    0 -0.14657962280E-01 -0.37227828251E-01  0.41884848254E+00  0.42075536776E+00  0.51100000000E-03 0.  1.
    9000002    1    1    2    0    0  0.15991132134E+00  0.35542175344E+00  0.10233527298E+00  0.10208882219E+01  0.93800000000E+00 0. -1.
         22    1    1    2    0    0 -0.14525335906E+00 -0.31819392519E+00  0.34788162118E+01  0.34963564103E+01  0.00000000000E+00 0.  1.
</event>
<event>
 5    1  0.6440325E+001  0.1567919E+01  0.7818608E-02  0.3388936E+00
         11   -1    0    0    0    0  0.00000000000E+00  0.00000000000E+00  0.39999999674E+01  0.40000000000E+01  0.51100000000E-03 0.  1.
    9000002   -1    0    0    0    0 -0.00000000000E+00 -0.00000000000E+00  0.00000000000E+00  0.93800000000E+00  0.93800000000E+00 0.  1.
         11    1    1    2    0    0  0.26260231163E+00  0.12526106561E+00  0.11255921187E+01  0.11625868515E+01  0.51100000000E-03 0.  1.
    9000002    1    1    2    0    0 -0.24606509651E+00 -0.62362060318E+00  0.35388102221E+00  0.12060375062E+01  0.93800000000E+00 0.  1.
         22    1    1    2    0    0 -0.16537215117E-01  0.49835953757E+00  0.25205268265E+01  0.25693756423E+01  0.00000000000E+00 0.  1.
</event>
<event>
 5    1  0.6440325E+001  0.1547281E+01  0.7818608E-02  0.3412648E+00
         11   -1    0    0    0    0  0.00000000000E+00  0.00000000000E+00  0.39999999674E+01  0.40000000000E+01  0.51100000000E-03 0. -1.
    9000002   -1    0    0    0    0 -0.00000000000E+00 -0.00000000000E+00  0.00000000000E+00  0.93800000000E+00  0.93800000000E+00 0. -1.
         11    1    1    2    0    0 -0.28700049629E-01 -0.40257217313E-01  0.34370892806E-02  0.49562194244E-01  0.51100000000E-03 0. -1.
    9000002    1    1    2    0    0  0.12267401908E+00  0.53125302119E+00  0.25616859261E+00  0.11147847484E+01  0.93800000000E+00 0. -1.
         22    1    1    2    0    0 -0.93973969450E-01 -0.49099580387E+00  0.37403942855E+01  0.37736530573E+01  0.00000000000E+00 0. -1.
</event>
<event>
 5    1  0.6440325E+001  0.1585768E+01  0.7818608E-02  0.3368957E+00
         11   -1    0    0    0    0  0.00000000000E+00  0.00000000000E+00  0.39999999674E+01  0.40000000000E+01  0.51100000000E-03 0.  1.
    9000002   -1    0    0    0    0 -0.00000000000E+00 -0.00000000000E+00  0.00000000000E+00  0.93800000000E+00  0.93800000000E+00 0.  1.
         11    1    1    2    0    0  0.99474428849E-01  0.63894383371E-01  0.12262559699E+01  0.12319422142E+01  0.51100000000E-03 0.  1.
    9000002    1    1    2    0    0 -0.31343464877E+00  0.21576204066E+00  0.10893876743E+00  0.10180894815E+01  0.93800000000E+00 0.  1.
         22    1    1    2    0    0  0.21396021992E+00 -0.27965642403E+00  0.26648052300E+01  0.26879683044E+01  0.00000000000E+00 0.  1.
</event>
<event>
 5    1  0.6440325E+001  0.1599677E+01  0.7818608E-02  0.3353714E+00
         11   -1    0    0    0    0  0.00000000000E+00  0.00000000000E+00  0.39999999674E+01  0.40000000000E+01  0.51100000000E-03 0. -1.
    9000002   -1    0    0    0    0 -0.00000000000E+00 -0.00000000000E+00  0.00000000000E+00  0.93800000000E+00  0.93800000000E+00 0. -1.
         11    1    1    2    0    0  0.17596685384E+00 -0.48415278491E-01  0.68780069251E+00  0.71160271682E+00  0.51100000000E-03 0. -1.
    9000002    1    1    2    0    0 -0.86371444913E+00  0.23785357641E+00  0.61321506861E+00  0.14347312270E+01  0.93800000000E+00 0. -1.
         22    1    1    2    0    0  0.68774759529E+00 -0.18943829792E+00  0.26989842062E+01  0.27916660561E+01  0.00000000000E+00 0. -1.
</event>
<event>
 5    1  0.6673845E+001  0.1597094E+01  0.7818608E-02  0.3356523E+00
         11   -1    0    0    0    0  0.00000000000E+00  0.00000000000E+00  0.39999999674E+01  0.40000000000E+01  0.51100000000E-03 0. -1.
    9000002   -1    0    0    0    0 -0.00000000000E+00 -0.00000000000E+00  0.00000000000E+00  0.93800000000E+00  0.93800000000E+00 0.  1.
         11    1    1    2    0    0  0.66201896644E-01  0.42062219632E-01  0.13692442470E+01  0.13714889684E+01  0.51100000000E-03 0. -1.
    9000002    1    1    2    0    0 -0.32081130696E+00 -0.16239295569E-01  0.71023886906E-01  0.99401810944E+00  0.93800000000E+00 0.  1.
         22    1    1    2    0    0  0.25460941031E+00 -0.25822924064E-01  0.25597318334E+01  0.25724929221E+01  0.00000000000E+00 0. -1.
</event>
<event>
 5    1  0.6440325E+001  0.1594476E+01  0.7818608E-02  0.3359381E+00
         11   -1    0    0    0    0  0.00000000000E+00  0.00000000000E+00  0.39999999674E+01  0.40000000000E+01  0.51100000000E-03 0. -1.
    9000002   -1    0    0    0    0 -0.00000000000E+00 -0.00000000000E+00  0.00000000000E+00  0.93800000000E+00  0.93800000000E+00 0.  1.
         11    1    1    2    0    0 -0.43500179878E-01 -0.98453911439E-02  0.13116341653E+01  0.13123923355E+01  0.51100000000E-03 0. -1.
    9000002    1    1    2    0    0  0.23024080859E+00  0.25310703067E+00  0.82611969394E-01  0.10018696205E+01  0.93800000000E+00 0.  1.
         22    1    1    2    0    0 -0.18674062871E+00 -0.24326163953E+00  0.26057538326E+01  0.26237380441E+01  0.00000000000E+00 0. -1.
</event>
<event>
 5    1  0.6440325E+001  0.1599677E+01  0.7818608E-02  0.3353714E+00
         11   -1    0    0    0    0  0.00000000000E+00  0.00000000000E+00  0.39999999674E+01  0.40000000000E+01  0.51100000000E-03 0. -1.
    9000002   -1    0    0    0    0 -0.00000000000E+00 -0.00000000000E+00  0.00000000000E+00  0.93800000000E+00  0.93800000000E+00 0.  1.
         11    1    1    2    0    0  0.16685707413E-01  0.10731497936E+00  0.88476161842E+00  0.89140243447E+00  0.51100000000E-03 0.  1.
    9000002    1    1    2    0    0 -0.75129918616E-01 -0.46726150039E+00  0.15266183566E+00  0.10616625879E+01  0.93800000000E+00 0.  1.
         22    1    1    2    0    0  0.58444211203E-01  0.35994652103E+00  0.29625765133E+01  0.29849349777E+01  0.00000000000E+00 0. -1.
</event>
<event>
 5    1  0.6440325E+001  0.1599672E+01  0.7818608E-02  0.3353719E+00
         11   -1    0    0    0    0  0.00000000000E+00  0.00000000000E+00  0.39999999674E+01  0.40000000000E+01  0.51100000000E-03 0.  1.
    9000002   -1    0    0    0    0 -0.00000000000E+00 -0.00000000000E+00  0.00000000000E+00  0.93800000000E+00  0.93800000000E+00 0. -1.
         11    1    1    2    0    0 -0.53474799082E-01 -0.13569254889E+00  0.13754278601E+01  0.13831392126E+01  0.51100000000E-03 0.  1.
    9000002    1    1    2    0    0  0.15394514670E+00  0.38934389595E+00  0.11853056757E+00  0.10340122209E+01  0.93800000000E+00 0. -1.
         22    1    1    2    0    0 -0.10047034762E+00 -0.25365134706E+00  0.25060415397E+01  0.25208485665E+01  0.00000000000E+00 0.  1.
</event>
<event>
 5    1  0.6440325E+001  0.1599677E+01  0.7818608E-02  0.3353714E+00
         11   -1    0    0    0    0  0.00000000000E+00  0.00000000000E+00  0.39999999674E+01  0.40000000000E+01  0.51100000000E-03 0. -1.
    9000002   -1    0    0    0    0 -0.00000000000E+00 -0.00000000000E+00  0.00000000000E+00  0.93800000000E+00  0.93800000000E+00 0. -1.
         11    1    1    2    0    0 -0.21659820246E+00 -0.22028469698E-01  0.13743478425E+01  0.13914856407E+01  0.51100000000E-03 0. -1.
    9000002    1    1    2    0    0  0.59271119424E+00  0.60804751596E-01  0.24746589921E+00  0.11384582333E+01  0.93800000000E+00 0. -1.
         22    1    1    2    0    0 -0.37611299178E+00 -0.38776281898E-01  0.23781862256E+01  0.24080561261E+01  0.00000000000E+00 0. -1.
</event>
<event>
 5    1  0.6440325E+001  0.1505269E+01  0.7818608E-02  0.3463068E+00
         11   -1    0    0    0    0  0.00000000000E+00  0.00000000000E+00  0.39999999674E+01  0.40000000000E+01  0.51100000000E-03 0.  1.
    9000002   -1    0    0    0    0 -0.00000000000E+00 -0.00000000000E+00  0.00000000000E+00  0.93800000000E+00  0.93800000000E+00 0. -1.
         11    1    1    2    0    0 -0.21369409009E+00  0.18058892808E-01  0.58895635376E+00  0.62678635555E+00  0.51100000000E-03 0.  1.
    9000002    1    1    2    0    0 -0.35223673843E+00 -0.18265693524E+00  0.18918534269E+00  0.10358906167E+01  0.93800000000E+00 0. -1.
         22    1    1    2    0    0  0.56593082852E+00  0.16459804243E+00  0.32218582709E+01  0.32753230277E+01  0.00000000000E+00 0.  1.
</event>
<event>
 5    1  0.6440325E+001  0.1599675E+01  0.7818608E-02  0.3353717E+00
         11   -1    0    0    0    0  0.00000000000E+00  0.00000000000E+00  0.39999999674E+01  0.40000000000E+01  0.51100000000E-03 0. -1.
    9000002   -1    0    0    0    0 -0.00000000000E+00 -0.00000000000E+00  0.00000000000E+00  0.93800000000E+00  0.93800000000E+00 0. -1.
         11    1    1    2    0    0  0.89292663301E-01 -0.53661739948E-01  0.89991328467E+00  0.90592325454E+00  0.51100000000E-03 0. -1.
    9000002    1    1    2    0    0 -0.38099207629E+00  0.22457497459E+00  0.13269280215E+00  0.10454856580E+01  0.93800000000E+00 0. -1.
         22    1    1    2    0    0  0.29169941299E+00 -0.17091323464E+00  0.29673938805E+01  0.29865910874E+01  0.00000000000E+00 0. -1.
</event>
<event>
 5    1  0.6440325E+001  0.1599668E+01  0.7818608E-02  0.3353724E+00
         11   -1    0    0    0    0  0.00000000000E+00  0.00000000000E+00  0.39999999674E+01  0.40000000000E+01  0.51100000000E-03 0. -1.
    9000002   -1    0    0    0    0 -0.00000000000E+00 -0.00000000000E+00  0.00000000000E+00  0.93800000000E+00  0.93800000000E+00 0.  1.
         11    1    1    2    0    0 -0.10052841936E+00  0.64637487348E-01  0.12663164812E+01  0.12719440473E+01  0.51100000000E-03 0. -1.
    9000002    1    1    2    0    0  0.30228923081E+00 -0.20610741078E+00  0.89922392239E-01  0.10108358326E+01  0.93800000000E+00 0.  1.
         22    1    1    2    0    0 -0.20176081145E+00  0.14146992343E+00  0.26437610939E+01  0.26552201201E+01  0.00000000000E+00 0. -1.
</event>
<event>
 5    1  0.6440325E+001  0.1597162E+01  0.7818608E-02  0.3356450E+00
         11   -1    0    0    0    0  0.00000000000E+00  0.00000000000E+00  0.39999999674E+01  0.40000000000E+01  0.51100000000E-03 0.  1.
    9000002   -1    0    0    0    0 -0.00000000000E+00 -0.00000000000E+00  0.00000000000E+00  0.93800000000E+00  0.93800000000E+00 0.  1.
         11    1    1    2    0    0 -0.13558144402E-01 -0.51801326281E-01  0.78220804096E+00  0.78403882630E+00  0.51100000000E-03 0.  1.
    9000002    1    1    2    0    0  0.30813053104E+00  0.26349606124E+00  0.11305546039E+00  0.10281051189E+01  0.93800000000E+00 0.  1.
         22    1    1    2    0    0 -0.29457238664E+00 -0.21169473496E+00  0.31047364660E+01  0.31258560548E+01  0.00000000000E+00 0.  1.
</event>
<event>
 5    1  0.6440325E+001  0.1593154E+01  0.7818608E-02  0.3360828E+00
         11   -1    0    0    0    0  0.00000000000E+00  0.00000000000E+00  0.39999999674E+01  0.40000000000E+01  0.51100000000E-03 0.  1.
    9000002   -1    0    0    0    0 -0.00000000000E+00 -0.00000000000E+00  0.00000000000E+00  0.93800000000E+00  0.93800000000E+00 0. -1.
         11    1    1    2    0    0 -0.13644271371E-01  0.13071402146E-01  0.23312797358E-01  0.30012919501E-01  0.51100000000E-03 0.  1.
    9000002    1    1    2    0    0  0.35437585807E+00 -0.23440927357E+00  0.12772168604E+00  0.10376351890E+01  0.93800000000E+00 0. -1.
         22    1    1    2    0    0 -0.34073158670E+00  0.22133787142E+00  0.38489654840E+01  0.38703518915E+01  0.00000000000E+00 0.  1.
</event>
<event>
 5    1  0.6440325E+001  0.1599663E+01  0.7818608E-02  0.3353729E+00
         11   -1    0    0    0    0  0.00000000000E+00  0.00000000000E+00  0.39999999674E+01  0.40000000000E+01  0.51100000000E-03 0. -1.
    9000002   -1    0    0    0    0 -0.00000000000E+00 -0.00000000000E+00  0.00000000000E+00  0.93800000000E+00  0.93800000000E+00 0.  1.
         11    1    1    2    0    0  0.10376082017E-01  0.26048076075E-01  0.30748887413E+00  0.30876501450E+00  0.51100000000E-03 0. -1.
    9000002    1    1    2    0    0 -0.10569102183E+00 -0.34646727765E+00  0.88110203949E-01  0.10093649363E+01  0.93800000000E+00 0.  1.
         22    1    1    2    0    0  0.95314939814E-01  0.32041920157E+00  0.36044008893E+01  0.36198700492E+01  0.00000000000E+00 0. -1.
</event>
<event>
 5    1  0.6440325E+001  0.1587732E+01  0.7818608E-02  0.3366787E+00
         11   -1    0    0    0    0  0.00000000000E+00  0.00000000000E+00  0.39999999674E+01  0.40000000000E+01  0.51100000000E-03 0. -1.
    9000002   -1    0    0    0    0 -0.00000000000E+00 -0.00000000000E+00  0.00000000000E+00  0.93800000000E+00  0.93800000000E+00 0. -1.
         11    1    1    2    0    0  0.45970221386E-01 -0.11644282180E+00  0.88338880030E+00  0.89221534711E+00  0.51100000000E-03 0. -1.
    9000002    1    1    2    0    0 -0.39497767429E+00  0.67107364210E-01  0.11828756178E+00  0.10268138628E+01  0.93800000000E+00 0. -1.
         22    1    1    2    0    0  0.34900745290E+00  0.49335457588E-01  0.29983236053E+01  0.30189707901E+01  0.00000000000E+00 0. -1.
</event>
<event>
 5    1  0.6440325E+001  0.1599676E+01  0.7818608E-02  0.3353715E+00
         11   -1    0    0    0    0  0.00000000000E+00  0.00000000000E+00  0.39999999674E+01  0.40000000000E+01  0.51100000000E-03 0.  1.
    9000002   -1    0    0    0    0 -0.00000000000E+00 -0.00000000000E+00  0.00000000000E+00  0.93800000000E+00  0.93800000000E+00 0. -1.
         11    1    1    2    0    0 -0.24447799886E-01 -0.19819904656E-01  0.25189932954E+00  0.25385834018E+00  0.51100000000E-03 0.  1.
    9000002    1    1    2    0    0  0.37716489626E+00  0.30618080330E+00  0.16117827500E+00  0.10685609386E+01  0.93800000000E+00 0. -1.
         22    1    1    2    0    0 -0.35271709637E+00 -0.28636089864E+00  0.35869223628E+01  0.36155807212E+01  0.00000000000E+00 0.  1.
</event>
<event>
 5    1  0.6440325E+001  0.1599674E+01  0.7818608E-02  0.3353718E+00
         11   -1    0    0    0    0  0.00000000000E+00  0.00000000000E+00  0.39999999674E+01  0.40000000000E+01  0.51100000000E-03 0.  1.
    9000002   -1    0    0    0    0 -0.00000000000E+00 -0.00000000000E+00  0.00000000000E+00  0.93800000000E+00  0.93800000000E+00 0. -1.
         11    1    1    2    0    0  0.39437854848E-01 -0.62192625172E-01  0.49742283612E+00  0.50284491251E+00  0.51100000000E-03 0.  1.
    9000002    1    1    2    0    0 -0.28915477969E+00  0.47243670468E+00  0.21207288097E+00  0.11097863909E+01  0.93800000000E+00 0. -1.
         22    1    1    2    0    0  0.24971692484E+00 -0.41024407951E+00  0.32905042503E+01  0.33253686966E+01  0.00000000000E+00 0.  1.
</event>
<event>
 5    1  0.6440325E+001  0.1599677E+01  0.7818608E-02  0.3353714E+00
         11   -1    0    0    0    0  0.00000000000E+00  0.00000000000E+00  0.39999999674E+01  0.40000000000E+01  0.51100000000E-03 0.  1.
    9000002   -1    0    0    0    0 -0.00000000000E+00 -0.00000000000E+00  0.00000000000E+00  0.93800000000E+00  0.93800000000E+00 0.  1.
         11    1    1    2    0    0 -0.69579700779E-01 -0.77111934782E-01  0.98543371398E+00  0.99089224996E+00  0.51100000000E-03 0.  1.
    9000002    1    1    2    0    0  0.27270391652E+00  0.30523913635E+00  0.11314524630E+00  0.10296524672E+01  0.93800000000E+00 0.  1.
         22    1    1    2    0    0 -0.20312421574E+00 -0.22812720157E+00  0.29014210071E+01  0.29174552828E+01  0.00000000000E+00 0.  1.
</event>
<event>
 5    1  0.6440325E+001  0.1597289E+01  0.7818608E-02  0.3356311E+00
         11   -1    0    0    0    0  0.00000000000E+00  0.00000000000E+00  0.39999999674E+01  0.40000000000E+01  0.51100000000E-03 0. -1.
    9000002   -1    0    0    0    0 -0.00000000000E+00 -0.00000000000E+00  0.00000000000E+00  0.93800000000E+00  0.93800000000E+00 0.  1.
         11    1    1    2    0    0  0.20224394764E-01  0.50928018475E-01  0.38233598131E+00  0.38624312672E+00  0.51100000000E-03 0. -1.
    9000002    1    1    2    0    0 -0.52371272454E-01 -0.78601315341E+00  0.45829008333E+00  0.13078353214E+01  0.93800000000E+00 0.  1.
         22    1    1    2    0    0  0.32146877689E-01  0.73508513494E+00  0.31593739027E+01  0.32439215518E+01  0.00000000000E+00 0. -1.
</event>
<event>
 5    1  0.6440325E+001  0.1599666E+01  0.7818608E-02  0.3353725E+00
         11   -1    0    0    0    0  0.00000000000E+00  0.00000000000E+00  0.39999999674E+01  0.40000000000E+01  0.51100000000E-03 0. -1.
    9000002   -1    0    0    0    0 -0.00000000000E+00 -0.00000000000E+00  0.00000000000E+00  0.93800000000E+00  0.93800000000E+00 0.  1.
         11    1    1    2    0    0  0.33660896719E-01  0.96943842779E-01  0.70252734119E+00  0.70998316238E+00  0.51100000000E-03 0. -1.
    9000002    1    1    2    0    0 -0.17814309334E+00 -0.53742908101E+00  0.22211938485E+00  0.11179203907E+01  0.93800000000E+00 0.  1.
         22    1    1    2    0    0  0.14448219662E+00  0.44048523823E+00  0.30753532413E+01  0.31100964469E+01  0.00000000000E+00 0. -1.
</event>
<event>
 5    1  0.6440325E+001  0.1599676E+01  0.7818608E-02  0.3353716E+00
         11   -1    0    0    0    0  0.00000000000E+00  0.00000000000E+00  0.39999999674E+01  0.40000000000E+01  0.51100000000E-03 0.  1.
    9000002   -1    0    0    0    0 -0.00000000000E+00 -0.00000000000E+00  0.00000000000E+00  0.93800000000E+00  0.93800000000E+00 0.  1.
         11    1    1    2    0    0  0.12677245580E+00  0.95382194198E-01  0.62333699865E+00  0.64320936990E+00  0.51100000000E-03 0.  1.
    9000002    1    1    2    0    0 -0.69573226556E+00 -0.51933434169E+00  0.56934998593E+00  0.13991979668E+01  0.93800000000E+00 0.  1.
         22    1    1    2    0    0  0.56895980976E+00  0.42395214749E+00  0.28073129828E+01  0.28955926633E+01  0.00000000000E+00 0.  1.
</event>
<event>
 5    1  0.6440325E+001  0.1599624E+01  0.7818608E-02  0.3353772E+00
         11   -1    0    0    0    0  0.00000000000E+00  0.00000000000E+00  0.39999999674E+01  0.40000000000E+01  0.51100000000E-03 0.  1.
    9000002   -1    0    0    0    0 -0.00000000000E+00 -0.00000000000E+00  0.00000000000E+00  0.93800000000E+00  0.93800000000E+00 0. -1.
         11    1    1    2    0    0 -0.12520352649E+00 -0.13909966142E+00  0.14202440469E+01  0.14325215715E+01  0.51100000000E-03 0.  1.
    9000002    1    1    2    0    0  0.35801673694E+00  0.36561879796E+00  0.17965988503E+00  0.10835011600E+01  0.93800000000E+00 0. -1.
         22    1    1    2    0    0 -0.23281321046E+00 -0.22651913653E+00  0.24000960354E+01  0.24219772685E+01  0.00000000000E+00 0.  1.
</event>
<event>
 5    1  0.6440325E+001  0.1599677E+01  0.7818608E-02  0.3353714E+00
         11   -1    0    0    0    0  0.00000000000E+00  0.00000000000E+00  0.39999999674E+01  0.40000000000E+01  0.51100000000E-03 0.  1.
    9000002   -1    0    0    0    0 -0.00000000000E+00 -0.00000000000E+00  0.00000000000E+00  0.93800000000E+00  0.93800000000E+00 0.  1.
         11    1    1    2    0    0  0.99638388373E-01  0.63125157183E-01  0.11728444924E+01  0.11787608148E+01  0.51100000000E-03 0.  1.
    9000002    1    1    2    0    0 -0.33033979802E+00 -0.20817107682E+00  0.10271313695E+00  0.10212020211E+01  0.93800000000E+00 0.  1.
         22    1    1    2    0    0  0.23070140964E+00  0.14504591964E+00  0.27244423380E+01  0.27380371642E+01  0.00000000000E+00 0.  1.
</event>
<event>
 5    1  0.6440325E+001  0.1599677E+01  0.7818608E-02  0.3353714E+00
         11   -1    0    0    0    0  0.00000000000E+00  0.00000000000E+00  0.39999999674E+01  0.40000000000E+01  0.51100000000E-03 0.  1.
    9000002   -1    0    0    0    0 -0.00000000000E+00 -0.00000000000E+00  0.00000000000E+00  0.93800000000E+00  0.93800000000E+00 0. -1.
         11    1    1    2    0    0  0.73738041410E-01  0.14194792849E+00  0.13788060866E+01  0.13880536729E+01  0.51100000000E-03 0.  1.
    9000002    1    1    2    0    0 -0.20613076096E+00 -0.39685375904E+00  0.13576928377E+00  0.10479790528E+01  0.93800000000E+00 0. -1.
         22    1    1    2    0    0  0.13239271955E+00  0.25490583055E+00  0.24854245969E+01  0.25019672743E+01  0.00000000000E+00 0.  1.
</event>
<event>
 5    1  0.6440325E+001  0.1595671E+01  0.7818608E-02  0.3358075E+00
         11   -1    0    0    0    0  0.00000000000E+00  0.00000000000E+00  0.39999999674E+01  0.40000000000E+01  0.51100000000E-03 0. -1.
    9000002   -1    0    0    0    0 -0.00000000000E+00 -0.00000000000E+00  0.00000000000E+00  0.93800000000E+00  0.93800000000E+00 0. -1.
         11    1    1    2    0    0 -0.60961105306E-01  0.62474529777E-01  0.55069491234E+00  0.55757014879E+00  0.51100000000E-03 0. -1.
    9000002    1    1    2    0    0  0.46114707083E+00 -0.65183454522E-01  0.15118023699E+00  0.10581138728E+01  0.93800000000E+00 0. -1.
         22    1    1    2    0    0 -0.40018596552E+00  0.27089247450E-02  0.32981248180E+01  0.33223159784E+01  0.00000000000E+00 0. -1.
</event>
<event>
 5    1  0.6440325E+001  0.1599224E+01  0.7818608E-02  0.3354207E+00
         11   -1    0    0    0    0  0.00000000000E+00  0.00000000000E+00  0.39999999674E+01  0.40000000000E+01  0.51100000000E-03 0.  1.
    9000002   -1    0    0    0    0 -0.00000000000E+00 -0.00000000000E+00  0.00000000000E+00  0.93800000000E+00  0.93800000000E+00 0. -1.
         11    1    1    2    0    0 -0.55391973114E-01 -0.98277054811E-01  0.91177688263E+00  0.91872955488E+00  0.51100000000E-03 0.  1.
    9000002    1    1    2    0    0  0.15737231967E+00  0.37020800243E+00  0.10956069125E+00  0.10264831012E+01  0.93800000000E+00 0. -1.
         22    1    1    2    0    0 -0.10198034656E+00 -0.27193094762E+00  0.29786623935E+01  0.29927873439E+01  0.00000000000E+00 0.  1.
</event>
<event>
 5    1  0.6440325E+001  0.1599676E+01  0.7818608E-02  0.3353715E+00
         11   -1    0    0    0    0  0.00000000000E+00  0.00000000000E+00  0.39999999674E+01  0.40000000000E+01  0.51100000000E-03 0.  1.
    9000002   -1    0    0    0    0 -0.00000000000E+00 -0.00000000000E+00  0.00000000000E+00  0.93800000000E+00  0.93800000000E+00 0. -1.
         11    1    1    2    0    0  0.36181352420E-01 -0.47272018452E-01  0.64552952704E+00  0.64826874473E+00  0.51100000000E-03 0.  1.
    9000002    1    1    2    0    0 -0.21435700073E+00  0.28668297585E+00  0.85993795728E-01  0.10076581689E+01  0.93800000000E+00 0. -1.
         22    1    1    2    0    0  0.17817564831E+00 -0.23941095740E+00  0.32684766446E+01  0.32820730864E+01  0.00000000000E+00 0.  1.
</event>
<event>
 5    1  0.6440325E+001  0.1599666E+01  0.7818608E-02  0.3353726E+00
         11   -1    0    0    0    0  0.00000000000E+00  0.00000000000E+00  0.39999999674E+01  0.40000000000E+01  0.51100000000E-03 0.  1.
    9000002   -1    0    0    0    0 -0.00000000000E+00 -0.00000000000E+00  0.00000000000E+00  0.93800000000E+00  0.93800000000E+00 0.  1.
         11    1    1    2    0    0 -0.10966270512E-01  0.72948942986E-02  0.10741589165E+00  0.10822157581E+00  0.51100000000E-03 0.  1.
    9000002    1    1    2    0    0  0.37115005977E+00 -0.22561887256E+00  0.12785251163E+00  0.10415596513E+01  0.93800000000E+00 0.  1.
         22    1    1    2    0    0 -0.36018378926E+00  0.21832397827E+00  0.37647315641E+01  0.37882187729E+01  0.00000000000E+00 0.  1.
</event>
<event>
 5    1  0.6440325E+001  0.1599677E+01  0.7818608E-02  0.3353714E+00
         11   -1    0    0    0    0  0.00000000000E+00  0.00000000000E+00  0.39999999674E+01  0.40000000000E+01  0.51100000000E-03 0.  1.
    9000002   -1    0    0    0    0 -0.00000000000E+00 -0.00000000000E+00  0.00000000000E+00  0.93800000000E+00  0.93800000000E+00 0. -1.
         11    1    1    2    0    0 -0.28140448764E+00  0.66602283077E-01  0.14070746017E+01  0.14364830475E+01  0.51100000000E-03 0.  1.
    9000002    1    1    2    0    0  0.71987038469E+00 -0.17066887503E+00  0.39558343505E+00  0.12584401018E+01  0.93800000000E+00 0. -1.
         22    1    1    2    0    0 -0.43846589704E+00  0.10406659195E+00  0.21973419306E+01  0.22430768507E+01  0.00000000000E+00 0.  1.
</event>
<event>
 5    1  0.6440325E+001  0.1599676E+01  0.7818608E-02  0.3353715E+00
         11   -1    0    0    0    0  0.00000000000E+00  0.00000000000E+00  0.39999999674E+01  0.40000000000E+01  0.51100000000E-03 0.  1.
    9000002   -1    0    0    0    0 -0.00000000000E+00 -0.00000000000E+00  0.00000000000E+00  0.93800000000E+00  0.93800000000E+00 0.  1.
         11    1    1    2    0    0  0.17626168821E-02 -0.35005274770E-01  0.36635196117E+00  0.36802513046E+00  0.51100000000E-03 0.  1.
    9000002    1    1    2    0    0 -0.21015472888E-01  0.37900858592E+00  0.96945085650E-01  0.10165291476E+01  0.93800000000E+00 0.  1.
         22    1    1    2    0    0  0.19252856006E-01 -0.34400331115E+00  0.35367029205E+01  0.35534457219E+01  0.00000000000E+00 0.  1.
</event>
<event>
 5    1  0.7473044E+001  0.1599666E+01  0.7818608E-02  0.3353726E+00
         11   -1    0    0    0    0  0.00000000000E+00  0.00000000000E+00  0.39999999674E+01  0.40000000000E+01  0.51100000000E-03 0.  1.
    9000002   -1    0    0    0    0 -0.00000000000E+00 -0.00000000000E+00  0.00000000000E+00  0.93800000000E+00  0.93800000000E+00 0.  1.
         11    1    1    2    0    0  0.13855298848E+00  0.26799182257E-01  0.14837385166E+01  0.14904346257E+01  0.51100000000E-03 0.  1.
    9000002    1    1    2    0    0 -0.35529599199E+00 -0.67959921832E-01  0.87863751877E-01  0.10091668999E+01  0.93800000000E+00 0.  1.
         22    1    1    2    0    0  0.21674300351E+00  0.41160739574E-01  0.24283976989E+01  0.24383984744E+01  0.00000000000E+00 0.  1.
</event>
<event>
 5    1  0.6440325E+001  0.1476948E+01  0.7818608E-02  0.3498799E+00
         11   -1    0    0    0    0  0.00000000000E+00  0.00000000000E+00  0.39999999674E+01  0.40000000000E+01  0.51100000000E-03 0.  1.
    9000002   -1    0    0    0    0 -0.00000000000E+00 -0.00000000000E+00  0.00000000000E+00  0.93800000000E+00  0.93800000000E+00 0.  1.
         11    1    1    2    0    0 -0.24024735961E+00  0.92112682314E-01  0.39919121201E+00  0.47492886300E+00  0.51100000000E-03 0.  1.
    9000002    1    1    2    0    0 -0.12373425430E+00 -0.14394518654E+00  0.12184953856E+00  0.96473918365E+00  0.93800000000E+00 0.  1.
         22    1    1    2    0    0  0.36398161391E+00  0.51832504231E-01  0.34789592168E+01  0.34983319534E+01  0.00000000000E+00 0.  1.
</event>
<event>
 5    1  0.6440325E+001  0.1599677E+01  0.7818608E-02  0.3353714E+00
         11   -1    0    0    0    0  0.00000000000E+00  0.00000000000E+00  0.39999999674E+01  0.40000000000E+01  0.51100000000E-03 0.  1.
    9000002   -1    0    0    0    0 -0.00000000000E+00 -0.00000000000E+00  0.00000000000E+00  0.93800000000E+00  0.93800000000E+00 0.  1.
         11    1    1    2    0    0  0.85424500878E-01 -0.12944241175E-02  0.81147957439E+00  0.81596469388E+00  0.51100000000E-03 0.  1.
    9000002    1    1    2    0    0 -0.41130124974E+00  0.54197197659E-02  0.11429672691E+00  0.10305851897E+01  0.93800000000E+00 0.  1.
         22    1    1    2    0    0  0.32587674886E+00 -0.41252956484E-02  0.30742236661E+01  0.30914501164E+01  0.00000000000E+00 0.  1.
</event>
<event>
 5    1  0.6440325E+001  0.1599673E+01  0.7818608E-02  0.3353718E+00
         11   -1    0    0    0    0  0.00000000000E+00  0.00000000000E+00  0.39999999674E+01  0.40000000000E+01  0.51100000000E-03 0.  1.
    9000002   -1    0    0    0    0 -0.00000000000E+00 -0.00000000000E+00  0.00000000000E+00  0.93800000000E+00  0.93800000000E+00 0.  1.
         11    1    1    2    0    0 -0.76253476691E-01  0.14746006387E+00  0.11603228306E+01  0.11721383858E+01  0.51100000000E-03 0.  1.
    9000002    1    1    2    0    0  0.25562116645E+00 -0.47892707966E+00  0.20328953720E+00  0.11026712857E+01  0.93800000000E+00 0.  1.
         22    1    1    2    0    0 -0.17936768976E+00  0.33146701578E+00  0.26363875996E+01  0.26631903285E+01  0.00000000000E+00 0.  1.
</event>
<event>
 5    1  0.6440325E+001  0.1449107E+01  0.7818608E-02  0.3535403E+00
         11   -1    0    0    0    0  0.00000000000E+00  0.00000000000E+00  0.39999999674E+01  0.40000000000E+01  0.51100000000E-03 0. -1.
    9000002   -1    0    0    0    0 -0.00000000000E+00 -0.00000000000E+00  0.00000000000E+00  0.93800000000E+00  0.93800000000E+00 0. -1.
         11    1    1    2    0    0 -0.73359217674E-01 -0.24324565954E+00  0.28370872899E+00  0.38084239486E+00  0.51100000000E-03 0. -1.
    9000002    1    1    2    0    0 -0.76056798541E-01 -0.46526515052E-01  0.12428906690E+00  0.95038998593E+00  0.93800000000E+00 0. -1.
         22    1    1    2    0    0  0.14941601621E+00  0.28977217459E+00  0.35920021715E+01  0.36067676192E+01  0.00000000000E+00 0. -1.
</event>
<event>
 5    1  0.6440325E+001  0.1599676E+01  0.7818608E-02  0.3353715E+00
         11   -1    0    0    0    0  0.00000000000E+00  0.00000000000E+00  0.39999999674E+01  0.40000000000E+01  0.51100000000E-03 0. -1.
    9000002   -1    0    0    0    0 -0.00000000000E+00 -0.00000000000E+00  0.00000000000E+00  0.93800000000E+00  0.93800000000E+00 0. -1.
         11    1    1    2    0    0 -0.60874215397E-01 -0.12002407731E+00  0.13556710690E+01  0.13623346717E+01  0.51100000000E-03 0. -1.
    9000002    1    1    2    0    0  0.17448974990E+00  0.34754373995E+00  0.10186729831E+00  0.10205166684E+01  0.93800000000E+00 0. -1.
         22    1    1    2    0    0 -0.11361553450E+00 -0.22751966264E+00  0.25424616000E+01  0.25551486599E+01  0.00000000000E+00 0. -1.
</event>
<event>
 5    1  0.6440325E+001  0.1581483E+01  0.7818608E-02  0.3373710E+00
         11   -1    0    0    0    0  0.00000000000E+00  0.00000000000E+00  0.39999999674E+01  0.40000000000E+01  0.51100000000E-03 0.  1.
    9000002   -1    0    0    0    0 -0.00000000000E+00 -0.00000000000E+00  0.00000000000E+00  0.93800000000E+00  0.93800000000E+00 0. -1.
         11    1    1    2    0    0  0.89951095514E-01 -0.23428707671E+00  0.85785945823E+00  0.89381471519E+00  0.51100000000E-03 0.  1.
    9000002    1    1    2    0    0 -0.33665495540E+00  0.42674554958E+00  0.22108897787E+00  0.11064233635E+01  0.93800000000E+00 0. -1.
         22    1    1    2    0    0  0.24670385988E+00 -0.19245847287E+00  0.29210515313E+01  0.29377619213E+01  0.00000000000E+00 0.  1.
</event>
<event>
 5    1  0.6440325E+001  0.1599675E+01  0.7818608E-02  0.3353716E+00
         11   -1    0    0    0    0  0.00000000000E+00  0.00000000000E+00  0.39999999674E+01  0.40000000000E+01  0.51100000000E-03 0. -1.
    9000002   -1    0    0    0    0 -0.00000000000E+00 -0.00000000000E+00  0.00000000000E+00  0.93800000000E+00  0.93800000000E+00 0.  1.
         11    1    1    2    0    0  0.13809004478E+00 -0.87708714389E-02  0.12772032078E+01  0.12846766456E+01  0.51100000000E-03 0. -1.
    9000002    1    1    2    0    0 -0.42342409717E+00  0.24968676872E-01  0.12174547161E+00  0.10366182329E+01  0.93800000000E+00 0.  1.
         22    1    1    2    0    0  0.28533405239E+00 -0.16197805433E-01  0.26010512879E+01  0.26167051215E+01  0.00000000000E+00 0. -1.
</event>
<event>
 5    1  0.6440325E+001  0.1599550E+01  0.7818608E-02  0.3353852E+00
         11   -1    0    0    0    0  0.00000000000E+00  0.00000000000E+00  0.39999999674E+01  0.40000000000E+01  0.51100000000E-03 0. -1.
    9000002   -1    0    0    0    0 -0.00000000000E+00 -0.00000000000E+00  0.00000000000E+00  0.93800000000E+00  0.93800000000E+00 0.  1.
         11    1    1    2    0    0  0.23042102810E+00 -0.32105048209E-01  0.14065898443E+01  0.14256997705E+01  0.51100000000E-03 0. -1.
    9000002    1    1    2    0    0 -0.62981137987E+00  0.11220948172E+00  0.28821922188E+00  0.11713956043E+01  0.93800000000E+00 0.  1.
         22    1    1    2    0    0  0.39939035177E+00 -0.80104433512E-01  0.23051909012E+01  0.23409046252E+01  0.00000000000E+00 0. -1.
</event>
<event>
 5    1  0.6440325E+001  0.1599641E+01  0.7818608E-02  0.3353753E+00
         11   -1    0    0    0    0  0.00000000000E+00  0.00000000000E+00  0.39999999674E+01  0.40000000000E+01  0.51100000000E-03 0.  1.
    9000002   -1    0    0    0    0 -0.00000000000E+00 -0.00000000000E+00  0.00000000000E+00  0.93800000000E+00  0.93800000000E+00 0.  1.
         11    1    1    2    0    0 -0.21785976340E+00  0.21716845428E+00  0.14214061302E+01  0.14543110610E+01  0.51100000000E-03 0.  1.
    9000002    1    1    2    0    0  0.53507664363E+00 -0.55812494846E+00  0.43654123936E+00  0.12915969674E+01  0.93800000000E+00 0.  1.
         22    1    1    2    0    0 -0.31721688023E+00  0.34095649418E+00  0.21420525978E+01  0.21920919716E+01  0.00000000000E+00 0.  1.
</event>
<event>
 5    1  0.6440325E+001  0.1562355E+01  0.7818608E-02  0.3395264E+00
         11   -1    0    0    0    0  0.00000000000E+00  0.00000000000E+00  0.39999999674E+01  0.40000000000E+01  0.51100000000E-03 0. -1.
    9000002   -1    0    0    0    0 -0.00000000000E+00 -0.00000000000E+00  0.00000000000E+00  0.93800000000E+00  0.93800000000E+00 0.  1.
         11    1    1    2    0    0 -0.12822062125E+00 -0.34410663730E+00  0.13417194674E+01  0.13910648065E+01  0.51100000000E-03 0. -1.
    9000002    1    1    2    0    0  0.36559102703E+00  0.33975589553E+00  0.20489444734E+00  0.10820889992E+01  0.93800000000E+00 0.  1.
         22    1    1    2    0    0 -0.23737040578E+00  0.43507417730E-02  0.24533860526E+01  0.24648461943E+01  0.00000000000E+00 0.  1.
</event>
<event>
 5    1  0.6440325E+001  0.1598349E+01  0.7818608E-02  0.3355157E+00
         11   -1    0    0    0    0  0.00000000000E+00  0.00000000000E+00  0.39999999674E+01  0.40000000000E+01  0.51100000000E-03 0.  1.
    9000002   -1    0    0    0    0 -0.00000000000E+00 -0.00000000000E+00  0.00000000000E+00  0.93800000000E+00  0.93800000000E+00 0. -1.
         11    1    1    2    0    0 -0.74568732774E-01 -0.39256344309E-01  0.94207036571E+00  0.94583211594E+00  0.51100000000E-03 0.  1.
    9000002    1    1    2    0    0  0.25193581441E+00  0.30697774485E+00  0.10744082497E+00  0.10242531529E+01  0.93800000000E+00 0. -1.
         22    1    1    2    0    0 -0.17736708163E+00 -0.26772140054E+00  0.29504887767E+01  0.29679147311E+01  0.00000000000E+00 0. -1.
</event>
<event>
 5    1  0.6440325E+001  0.1494766E+01  0.7818608E-02  0.3476148E+00
         11   -1    0    0    0    0  0.00000000000E+00  0.00000000000E+00  0.39999999674E+01  0.40000000000E+01  0.51100000000E-03 0. -1.
    9000002   -1    0    0    0    0 -0.00000000000E+00 -0.00000000000E+00  0.00000000000E+00  0.93800000000E+00  0.93800000000E+00 0. -1.
         11    1    1    2    0    0 -0.14522502350E+00  0.38501854091E+00  0.12999623339E+01  0.13635365470E+01  0.51100000000E-03 0. -1.
    9000002    1    1    2    0    0  0.57982492013E-01 -0.11431864424E+00  0.92238126479E-01  0.95120060649E+00  0.93800000000E+00 0. -1.
         22    1    1    2    0    0  0.87242531487E-01 -0.27069989667E+00  0.26077995069E+01  0.26232628465E+01  0.00000000000E+00 0. -1.
</event>
<event>
 5    1  0.6440325E+001  0.1595487E+01  0.7818608E-02  0.3358276E+00
         11   -1    0    0    0    0  0.00000000000E+00  0.00000000000E+00  0.39999999674E+01  0.40000000000E+01  0.51100000000E-03 0. -1.
    9000002   -1    0    0    0    0 -0.00000000000E+00 -0.00000000000E+00  0.00000000000E+00  0.93800000000E+00  0.93800000000E+00 0.  1.
         11    1    1    2    0    0  0.12736169678E-01 -0.82509672079E-02  0.41461906373E-01  0.44154719782E-01  0.51100000000E-03 0. -1.
    9000002    1    1    2    0    0 -0.19187568365E+00 -0.36601337400E+00  0.11892364216E+00  0.10318763979E+01  0.93800000000E+00 0.  1.
         22    1    1    2    0    0  0.17913951398E+00  0.37426434121E+00  0.38396144188E+01  0.38619688823E+01  0.00000000000E+00 0. -1.
</event>
<event>
 5    1  0.6440325E+001  0.1599503E+01  0.7818608E-02  0.3353903E+00
         11   -1    0    0    0    0  0.00000000000E+00  0.00000000000E+00  0.39999999674E+01  0.40000000000E+01  0.51100000000E-03 0. -1.
    9000002   -1    0    0    0    0 -0.00000000000E+00 -0.00000000000E+00  0.00000000000E+00  0.93800000000E+00  0.93800000000E+00 0. -1.
         11    1    1    2    0    0  0.32043579518E-01 -0.46252095563E-01  0.70401638770E+00  0.70626155396E+00  0.51100000000E-03 0. -1.
    9000002    1    1    2    0    0 -0.18202679149E+00  0.32437484638E+00  0.93141686650E-01  0.10133470124E+01  0.93800000000E+00 0. -1.
         22    1    1    2    0    0  0.14998321197E+00 -0.27812275082E+00  0.32028418930E+01  0.32183914336E+01  0.00000000000E+00 0. -1.
</event>
<event>
 5    1  0.6440325E+001  0.1599590E+01  0.7818608E-02  0.3353809E+00
         11   -1    0    0    0    0  0.00000000000E+00  0.00000000000E+00  0.39999999674E+01  0.40000000000E+01  0.51100000000E-03 0.  1.
    9000002   -1    0    0    0    0 -0.00000000000E+00 -0.00000000000E+00  0.00000000000E+00  0.93800000000E+00  0.93800000000E+00 0.  1.
         11    1    1    2    0    0  0.13527239396E-01 -0.57875827068E-02  0.18747088375E+00  0.18804806751E+00  0.51100000000E-03 0.  1.
    9000002    1    1    2    0    0 -0.34946838066E+00  0.46725634249E-01  0.83446293180E-01  0.10055439910E+01  0.93800000000E+00 0.  1.
         22    1    1    2    0    0  0.33594114127E+00 -0.40938051542E-01  0.37290827904E+01  0.37444079415E+01  0.00000000000E+00 0.  1.
</event>
<event>
 5    1  0.6440325E+001  0.1599389E+01  0.7818608E-02  0.3354026E+00
         11   -1    0    0    0    0  0.00000000000E+00  0.00000000000E+00  0.39999999674E+01  0.40000000000E+01  0.51100000000E-03 0. -1.
    9000002   -1    0    0    0    0 -0.00000000000E+00 -0.00000000000E+00  0.00000000000E+00  0.93800000000E+00  0.93800000000E+00 0.  1.
         11    1    1    2    0    0  0.98047867921E-01  0.10899258035E+00  0.11558650109E+01  0.11651252943E+01  0.51100000000E-03 0. -1.
    9000002    1    1    2    0    0 -0.34989080528E+00 -0.30532416741E+00  0.14703194219E+00  0.10569336852E+01  0.93800000000E+00 0.  1.
         22    1    1    2    0    0  0.25184293736E+00  0.19633158705E+00  0.26971030143E+01  0.27159410205E+01  0.00000000000E+00 0.  1.
</event>
<event>
 5    1  0.6440325E+001  0.1599618E+01  0.7818608E-02  0.3353779E+00
         11   -1    0    0    0    0  0.00000000000E+00  0.00000000000E+00  0.39999999674E+01  0.40000000000E+01  0.51100000000E-03 0. -1.
    9000002   -1    0    0    0    0 -0.00000000000E+00 -0.00000000000E+00  0.00000000000E+00  0.93800000000E+00  0.93800000000E+00 0.  1.
         11    1    1    2    0    0 -0.20392406819E+00  0.29639889358E-01  0.65045201267E+00  0.68231344010E+00  0.51100000000E-03 0. -1.
    9000002    1    1    2    0    0  0.98802347515E+00 -0.18016877461E+00  0.81357480472E+00  0.15969969122E+01  0.93800000000E+00 0.  1.
         22    1    1    2    0    0 -0.78409940696E+00  0.15052888525E+00  0.25359731500E+01  0.26586896477E+01  0.00000000000E+00 0. -1.
</event>
<event>
 5    1  0.6440325E+001  0.1599237E+01  0.7818608E-02  0.3354192E+00
         11   -1    0    0    0    0  0.00000000000E+00  0.00000000000E+00  0.39999999674E+01  0.40000000000E+01  0.51100000000E-03 0.  1.
    9000002   -1    0    0    0    0 -0.00000000000E+00 -0.00000000000E+00  0.00000000000E+00  0.93800000000E+00  0.93800000000E+00 0.  1.
         11    1    1    2    0    0 -0.91380741680E-01  0.12888342786E-01  0.90423684990E+00  0.90893404116E+00  0.51100000000E-03 0.  1.
    9000002    1    1    2    0    0  0.38984344800E+00  0.36215420073E-01  0.10364989571E+00  0.10217028783E+01  0.93800000000E+00 0.  1.
         22    1    1    2    0    0 -0.29846270632E+00 -0.49103762859E-01  0.29921132217E+01  0.30073630806E+01  0.00000000000E+00 0.  1.
</event>
<event>
 5    1  0.6440325E+001  0.1585465E+01  0.7818608E-02  0.3369292E+00
         11   -1    0    0    0    0  0.00000000000E+00  0.00000000000E+00  0.39999999674E+01  0.40000000000E+01  0.51100000000E-03 0.  1.
    9000002   -1    0    0    0    0 -0.00000000000E+00 -0.00000000000E+00  0.00000000000E+00  0.93800000000E+00  0.93800000000E+00 0. -1.
         11    1    1    2    0    0  0.13351058418E-01 -0.10820113133E+00  0.56966320190E+00  0.58000186232E+00  0.51100000000E-03 0.  1.
    9000002    1    1    2    0    0  0.34715884366E+00  0.20041317572E+00  0.12032512352E+00  0.10271352584E+01  0.93800000000E+00 0. -1.
         22    1    1    2    0    0 -0.36050990208E+00 -0.92212044389E-01  0.33100116419E+01  0.33308628793E+01  0.00000000000E+00 0.  1.
</event>
<event>
 5    1  0.6440325E+001  0.1591252E+01  0.7818608E-02  0.3362914E+00
         11   -1    0    0    0    0  0.00000000000E+00  0.00000000000E+00  0.39999999674E+01  0.40000000000E+01  0.51100000000E-03 0. -1.
    9000002   -1    0    0    0    0 -0.00000000000E+00 -0.00000000000E+00  0.00000000000E+00  0.93800000000E+00  0.93800000000E+00 0. -1.
         11    1    1    2    0    0  0.85175900367E-01  0.35259408286E-01  0.10146121654E+01  0.10187915720E+01  0.51100000000E-03 0. -1.
    9000002    1    1    2    0    0 -0.35871467862E+00  0.23472337324E+00  0.13162675280E+00  0.10396830693E+01  0.93800000000E+00 0. -1.
         22    1    1    2    0    0  0.27353877826E+00 -0.26998278153E+00  0.28537610492E+01  0.28795253587E+01  0.00000000000E+00 0. -1.
</event>
<event>
 5    1  0.6440325E+001  0.1587055E+01  0.7818608E-02  0.3367535E+00
         11   -1    0    0    0    0  0.00000000000E+00  0.00000000000E+00  0.39999999674E+01  0.40000000000E+01  0.51100000000E-03 0.  1.
    9000002   -1    0    0    0    0 -0.00000000000E+00 -0.00000000000E+00  0.00000000000E+00  0.93800000000E+00  0.93800000000E+00 0.  1.
         11    1    1    2    0    0 -0.10493876247E+00 -0.12163581635E-01  0.31404625687E+00  0.33133881324E+00  0.51100000000E-03 0.  1.
    9000002    1    1    2    0    0  0.38504904492E+00  0.39439462974E+00  0.22191629332E+00  0.11103606316E+01  0.93800000000E+00 0.  1.
         22    1    1    2    0    0 -0.28011028244E+00 -0.38223104811E+00  0.34640374172E+01  0.34963005552E+01  0.00000000000E+00 0.  1.
</event>
<event>
 5    1  0.6440325E+001  0.1540209E+01  0.7818608E-02  0.3420930E+00
         11   -1    0    0    0    0  0.00000000000E+00  0.00000000000E+00  0.39999999674E+01  0.40000000000E+01  0.51100000000E-03 0. -1.
    9000002   -1    0    0    0    0 -0.00000000000E+00 -0.00000000000E+00  0.00000000000E+00  0.93800000000E+00  0.93800000000E+00 0. -1.
         11    1    1    2    0    0  0.12071911406E+00  0.10802633894E+00  0.33479090015E+00  0.37192472673E+00  0.51100000000E-03 0. -1.
    9000002    1    1    2    0    0  0.25424174529E+00 -0.22436626425E+00  0.12620410149E+00  0.10053609107E+01  0.93800000000E+00 0. -1.
         22    1    1    2    0    0 -0.37496085935E+00  0.11633992531E+00  0.35390049657E+01  0.35607143625E+01  0.00000000000E+00 0. -1.
</event>
<event>
 5    1  0.6440325E+001  0.1563727E+01  0.7818608E-02  0.3393699E+00
         11   -1    0    0    0    0  0.00000000000E+00  0.00000000000E+00  0.39999999674E+01  0.40000000000E+01  0.51100000000E-03 0. -1.
    9000002   -1    0    0    0    0 -0.00000000000E+00 -0.00000000000E+00  0.00000000000E+00  0.93800000000E+00  0.93800000000E+00 0.  1.
         11    1    1    2    0    0  0.11776350618E+00 -0.15146629962E+00  0.58608704613E+00  0.61669163288E+00  0.51100000000E-03 0. -1.
    9000002    1    1    2    0    0 -0.47444541162E+00 -0.54622879751E-01  0.18804669585E+00  0.10692463081E+01  0.93800000000E+00 0.  1.
         22    1    1    2    0    0  0.35668190544E+00  0.20608917937E+00  0.32258662254E+01  0.32520620590E+01  0.00000000000E+00 0. -1.
</event>
<event>
 5    1  0.8628419E+001  0.1573196E+01  0.7818608E-02  0.3382979E+00
         11   -1    0    0    0    0  0.00000000000E+00  0.00000000000E+00  0.39999999674E+01  0.40000000000E+01  0.51100000000E-03 0.  1.
    9000002   -1    0    0    0    0 -0.00000000000E+00 -0.00000000000E+00  0.00000000000E+00  0.93800000000E+00  0.93800000000E+00 0.  1.
         11    1    1    2    0    0 -0.90107404897E-01  0.10068898610E+00  0.97395844795E+00  0.98328680241E+00  0.51100000000E-03 0.  1.
    9000002    1    1    2    0    0 -0.19728061494E+00 -0.18490702029E-01  0.46089554751E-01  0.95980716509E+00  0.93800000000E+00 0.  1.
         22    1    1    2    0    0  0.28738801984E+00 -0.82198284069E-01  0.29799519647E+01  0.29949060325E+01  0.00000000000E+00 0.  1.
</event>
<event>
 5    1  0.6440325E+001  0.1599430E+01  0.7818608E-02  0.3353982E+00
         11   -1    0    0    0    0  0.00000000000E+00  0.00000000000E+00  0.39999999674E+01  0.40000000000E+01  0.51100000000E-03 0. -1.
    9000002   -1    0    0    0    0 -0.00000000000E+00 -0.00000000000E+00  0.00000000000E+00  0.93800000000E+00  0.93800000000E+00 0.  1.
         11    1    1    2    0    0 -0.48655296132E-01  0.32977516469E-01  0.74899651997E+00  0.75129947590E+00  0.51100000000E-03 0. -1.
    9000002    1    1    2    0    0  0.25557829698E+00 -0.25019077333E+00  0.86042050237E-01  0.10075529382E+01  0.93800000000E+00 0.  1.
         22    1    1    2    0    0 -0.20692300085E+00  0.21721325686E+00  0.31649613971E+01  0.31791475859E+01  0.00000000000E+00 0. -1.
</event>
<event>
 5    1  0.6440325E+001  0.1599666E+01  0.7818608E-02  0.3353726E+00
         11   -1    0    0    0    0  0.00000000000E+00  0.00000000000E+00  0.39999999674E+01  0.40000000000E+01  0.51100000000E-03 0. -1.
    9000002   -1    0    0    0    0 -0.00000000000E+00 -0.00000000000E+00  0.00000000000E+00  0.93800000000E+00  0.93800000000E+00 0. -1.
         11    1    1    2    0    0  0.46102395307E-01 -0.12540373711E+00  0.13241583770E+01  0.13308821123E+01  0.51100000000E-03 0.  1.
    9000002    1    1    2    0    0 -0.14091455361E+00  0.35934698568E+00  0.10032706183E+00  0.10192628154E+01  0.93800000000E+00 0. -1.
         22    1    1    2    0    0  0.94812158300E-01 -0.23394324857E+00  0.25755145285E+01  0.25878550723E+01  0.00000000000E+00 0. -1.
</event>
<event>
 5    1  0.6440325E+001  0.1599675E+01  0.7818608E-02  0.3353717E+00
         11   -1    0    0    0    0  0.00000000000E+00  0.00000000000E+00  0.39999999674E+01  0.40000000000E+01  0.51100000000E-03 0. -1.
    9000002   -1    0    0    0    0 -0.00000000000E+00 -0.00000000000E+00  0.00000000000E+00  0.93800000000E+00  0.93800000000E+00 0.  1.
         11    1    1    2    0    0 -0.71183179151E-01  0.97336602269E-01  0.75096576217E+00  0.76058615305E+00  0.51100000000E-03 0. -1.
    9000002    1    1    2    0    0  0.34876371926E+00 -0.48394032063E+00  0.24808360519E+00  0.11389573482E+01  0.93800000000E+00 0.  1.
         22    1    1    2    0    0 -0.27758054011E+00  0.38660371836E+00  0.30009506000E+01  0.30384564988E+01  0.00000000000E+00 0. -1.
</event>
<event>
 5    1  0.6440325E+001  0.1599411E+01  0.7818608E-02  0.3354002E+00
         11   -1    0    0    0    0  0.00000000000E+00  0.00000000000E+00  0.39999999674E+01  0.40000000000E+01  0.51100000000E-03 0. -1.
    9000002   -1    0    0    0    0 -0.00000000000E+00 -0.00000000000E+00  0.00000000000E+00  0.93800000000E+00  0.93800000000E+00 0.  1.
         11    1    1    2    0    0  0.83973876394E-02 -0.22307791473E-01  0.15949971096E+00  0.16127173527E+00  0.51100000000E-03 0. -1.
    9000002    1    1    2    0    0 -0.21175751897E+00  0.35313695115E+00  0.11476142016E+00  0.10308060616E+01  0.93800000000E+00 0.  1.
         22    1    1    2    0    0  0.20336013133E+00 -0.33082915968E+00  0.37257388362E+01  0.37459222031E+01  0.00000000000E+00 0. -1.
</event>
<event>
 5    1  0.6440325E+001  0.1599619E+01  0.7818608E-02  0.3353777E+00
         11   -1    0    0    0    0  0.00000000000E+00  0.00000000000E+00  0.39999999674E+01  0.40000000000E+01  0.51100000000E-03 0. -1.
    9000002   -1    0    0    0    0 -0.00000000000E+00 -0.00000000000E+00  0.00000000000E+00  0.93800000000E+00  0.93800000000E+00 0. -1.
         11    1    1    2    0    0  0.20857858629E-01  0.10752863888E+00  0.12004077811E+01  0.12053947738E+01  0.51100000000E-03 0. -1.
    9000002    1    1    2    0    0 -0.63931114594E-01 -0.37683271531E+00  0.98369450790E-01  0.10176495623E+01  0.93800000000E+00 0. -1.
         22    1    1    2    0    0  0.43073255965E-01  0.26930407643E+00  0.27012227354E+01  0.27149556640E+01  0.00000000000E+00 0. -1.
</event>
<event>
 5    1  0.6440325E+001  0.1599677E+01  0.7818608E-02  0.3353714E+00
         11   -1    0    0    0    0  0.00000000000E+00  0.00000000000E+00  0.39999999674E+01  0.40000000000E+01  0.51100000000E-03 0.  1.
    9000002   -1    0    0    0    0 -0.00000000000E+00 -0.00000000000E+00  0.00000000000E+00  0.93800000000E+00  0.93800000000E+00 0. -1.
         11    1    1    2    0    0 -0.55764355770E-01  0.11094503356E+00  0.10191380470E+01  0.10266747703E+01  0.51100000000E-03 0.  1.
    9000002    1    1    2    0    0  0.21054467335E+00 -0.41997777433E+00  0.15035315511E+00  0.10597926503E+01  0.93800000000E+00 0. -1.
         22    1    1    2    0    0 -0.15478031758E+00  0.30903274076E+00  0.28305087652E+01  0.28515325794E+01  0.00000000000E+00 0.  1.
</event>
<event>
 5    1  0.6440325E+001  0.1599663E+01  0.7818608E-02  0.3353729E+00
         11   -1    0    0    0    0  0.00000000000E+00  0.00000000000E+00  0.39999999674E+01  0.40000000000E+01  0.51100000000E-03 0.  1.
    9000002   -1    0    0    0    0 -0.00000000000E+00 -0.00000000000E+00  0.00000000000E+00  0.93800000000E+00  0.93800000000E+00 0.  1.
         11    1    1    2    0    0  0.56716845397E-01 -0.11786436362E+00  0.10936502282E+01  0.11014444568E+01  0.51100000000E-03 0.  1.
    9000002    1    1    2    0    0 -0.20827868973E+00  0.40425395567E+00  0.14056728590E+00  0.10518576116E+01  0.93800000000E+00 0.  1.
         22    1    1    2    0    0  0.15156184433E+00 -0.28638959204E+00  0.27657824533E+01  0.27846979315E+01  0.00000000000E+00 0.  1.
</event>
<event>
 5    1  0.6440325E+001  0.1599668E+01  0.7818608E-02  0.3353724E+00
         11   -1    0    0    0    0  0.00000000000E+00  0.00000000000E+00  0.39999999674E+01  0.40000000000E+01  0.51100000000E-03 0.  1.
    9000002   -1    0    0    0    0 -0.00000000000E+00 -0.00000000000E+00  0.00000000000E+00  0.93800000000E+00  0.93800000000E+00 0.  1.
         11    1    1    2    0    0 -0.41566070015E-01 -0.91143580550E-01  0.83114105106E+00  0.83715625682E+00  0.51100000000E-03 0.  1.
    9000002    1    1    2    0    0  0.18785207432E+00  0.41032393992E+00  0.13835302316E+00  0.10500665200E+01  0.93800000000E+00 0.  1.
         22    1    1    2    0    0 -0.14628600431E+00 -0.31918035937E+00  0.30305058931E+01  0.30507772231E+01  0.00000000000E+00 0.  1.
</event>
<event>
 5    1  0.6440325E+001  0.1599486E+01  0.7818608E-02  0.3353922E+00
         11   -1    0    0    0    0  0.00000000000E+00  0.00000000000E+00  0.39999999674E+01  0.40000000000E+01  0.51100000000E-03 0.  1.
    9000002   -1    0    0    0    0 -0.00000000000E+00 -0.00000000000E+00  0.00000000000E+00  0.93800000000E+00  0.93800000000E+00 0. -1.
         11    1    1    2    0    0  0.27255254999E-01 -0.14811489082E+00  0.11010178612E+01  0.11112702019E+01  0.51100000000E-03 0.  1.
    9000002    1    1    2    0    0 -0.92845471757E-01  0.46455991419E+00  0.15315408237E+00  0.10619493248E+01  0.93800000000E+00 0. -1.
         22    1    1    2    0    0  0.65590216759E-01 -0.31644502337E+00  0.27458280238E+01  0.27647804733E+01  0.00000000000E+00 0.  1.
</event>
<event>
 5    1  0.6440325E+001  0.1599665E+01  0.7818608E-02  0.3353727E+00
         11   -1    0    0    0    0  0.00000000000E+00  0.00000000000E+00  0.39999999674E+01  0.40000000000E+01  0.51100000000E-03 0.  1.
    9000002   -1    0    0    0    0 -0.00000000000E+00 -0.00000000000E+00  0.00000000000E+00  0.93800000000E+00  0.93800000000E+00 0.  1.
         11    1    1    2    0    0  0.10181016964E-01  0.44998460588E-01  0.35822839306E+00  0.36118742680E+00  0.51100000000E-03 0.  1.
    9000002    1    1    2    0    0 -0.85901408124E-01 -0.47147844720E+00  0.15670059271E+00  0.10649272528E+01  0.93800000000E+00 0.  1.
         22    1    1    2    0    0  0.75720391160E-01  0.42647998661E+00  0.34850709816E+01  0.35118853204E+01  0.00000000000E+00 0.  1.
</event>
<event>
 5    1  0.6440325E+001  0.1599670E+01  0.7818608E-02  0.3353722E+00
         11   -1    0    0    0    0  0.00000000000E+00  0.00000000000E+00  0.39999999674E+01  0.40000000000E+01  0.51100000000E-03 0.  1.
    9000002   -1    0    0    0    0 -0.00000000000E+00 -0.00000000000E+00  0.00000000000E+00  0.93800000000E+00  0.93800000000E+00 0. -1.
         11    1    1    2    0    0 -0.46878719449E-01 -0.33020411197E-02  0.39391781724E+00  0.39671151442E+00  0.51100000000E-03 0.  1.
    9000002    1    1    2    0    0  0.47601865208E+00  0.32191618370E-01  0.15525090897E+00  0.10637560351E+01  0.93800000000E+00 0. -1.
         22    1    1    2    0    0 -0.42913993263E+00 -0.28889577251E-01  0.34508312412E+01  0.34775324505E+01  0.00000000000E+00 0.  1.
</event>
<event>
 5    1  0.6440325E+001  0.1599662E+01  0.7818608E-02  0.3353730E+00
         11   -1    0    0    0    0  0.00000000000E+00  0.00000000000E+00  0.39999999674E+01  0.40000000000E+01  0.51100000000E-03 0.  1.
    9000002   -1    0    0    0    0 -0.00000000000E+00 -0.00000000000E+00  0.00000000000E+00  0.93800000000E+00  0.93800000000E+00 0.  1.
         11    1    1    2    0    0 -0.91504195053E-01  0.55046588625E-03  0.53599141031E+00  0.54374660806E+00  0.51100000000E-03 0.  1.
    9000002    1    1    2    0    0  0.65252586869E+00  0.52121254433E-02  0.30067746622E+00  0.11815532634E+01  0.93800000000E+00 0.  1.
         22    1    1    2    0    0 -0.56102167363E+00 -0.57625913296E-02  0.31633310908E+01  0.32127001285E+01  0.00000000000E+00 0.  1.
</event>
<event>
 5    1  0.6440325E+001  0.1599671E+01  0.7818608E-02  0.3353720E+00
         11   -1    0    0    0    0  0.00000000000E+00  0.00000000000E+00  0.39999999674E+01  0.40000000000E+01  0.51100000000E-03 0. -1.
    9000002   -1    0    0    0    0 -0.00000000000E+00 -0.00000000000E+00  0.00000000000E+00  0.93800000000E+00  0.93800000000E+00 0. -1.
         11    1    1    2    0    0 -0.13413373363E+00 -0.35264522320E-01  0.12831507242E+01  0.12906244563E+01  0.51100000000E-03 0. -1.
    9000002    1    1    2    0    0  0.40252535634E+00  0.11410875752E+00  0.11836422496E+00  0.10338769563E+01  0.93800000000E+00 0. -1.
         22    1    1    2    0    0 -0.26839162271E+00 -0.78844235197E-01  0.25984850182E+01  0.26134985874E+01  0.00000000000E+00 0. -1.
</event>
<event>
 5    1  0.6440325E+001  0.1599558E+01  0.7818608E-02  0.3353843E+00
         11   -1    0    0    0    0  0.00000000000E+00  0.00000000000E+00  0.39999999674E+01  0.40000000000E+01  0.51100000000E-03 0. -1.
    9000002   -1    0    0    0    0 -0.00000000000E+00 -0.00000000000E+00  0.00000000000E+00  0.93800000000E+00  0.93800000000E+00 0.  1.
         11    1    1    2    0    0  0.85040847289E-01 -0.11116508760E+00  0.11813997661E+01  0.11896618389E+01  0.51100000000E-03 0. -1.
    9000002    1    1    2    0    0 -0.26992155526E+00  0.32618159383E+00  0.12138570840E+00  0.10362579642E+01  0.93800000000E+00 0.  1.
         22    1    1    2    0    0  0.18488070797E+00 -0.21501650623E+00  0.26972144929E+01  0.27120801969E+01  0.00000000000E+00 0. -1.
</event>
<event>
 5    1  0.6440325E+001  0.1596542E+01  0.7818608E-02  0.3357125E+00
         11   -1    0    0    0    0  0.00000000000E+00  0.00000000000E+00  0.39999999674E+01  0.40000000000E+01  0.51100000000E-03 0.  1.
    9000002   -1    0    0    0    0 -0.00000000000E+00 -0.00000000000E+00  0.00000000000E+00  0.93800000000E+00  0.93800000000E+00 0. -1.
         11    1    1    2    0    0  0.11873520706E+00 -0.19871256298E-01  0.79591626452E+00  0.80496948853E+00  0.51100000000E-03 0.  1.
    9000002    1    1    2    0    0 -0.44611205094E+00  0.32714182646E+00  0.21448368175E+00  0.11099031428E+01  0.93800000000E+00 0. -1.
         22    1    1    2    0    0  0.32737684388E+00 -0.30727057016E+00  0.29896000211E+01  0.30231273687E+01  0.00000000000E+00 0.  1.
</event>
<event>
 5    1  0.6440325E+001  0.1599479E+01  0.7818608E-02  0.3353929E+00
         11   -1    0    0    0    0  0.00000000000E+00  0.00000000000E+00  0.39999999674E+01  0.40000000000E+01  0.51100000000E-03 0.  1.
    9000002   -1    0    0    0    0 -0.00000000000E+00 -0.00000000000E+00  0.00000000000E+00  0.93800000000E+00  0.93800000000E+00 0.  1.
         11    1    1    2    0    0 -0.17460670806E+00 -0.31506619655E-01  0.12759246493E+01  0.12882019024E+01  0.51100000000E-03 0.  1.
    9000002    1    1    2    0    0  0.51432966797E+00  0.47051761552E-01  0.18330238174E+00  0.10863667147E+01  0.93800000000E+00 0.  1.
         22    1    1    2    0    0 -0.33972295991E+00 -0.15545141896E-01  0.25407729363E+01  0.25634313829E+01  0.00000000000E+00 0. -1.
</event>
<event>
 5    1  0.6440325E+001  0.1599676E+01  0.7818608E-02  0.3353716E+00
         11   -1    0    0    0    0  0.00000000000E+00  0.00000000000E+00  0.39999999674E+01  0.40000000000E+01  0.51100000000E-03 0.  1.
    9000002   -1    0    0    0    0 -0.00000000000E+00 -0.00000000000E+00  0.00000000000E+00  0.93800000000E+00  0.93800000000E+00 0.  1.
         11    1    1    2    0    0 -0.13158805670E+00 -0.11572906957E+00  0.12303418272E+01  0.12427589899E+01  0.51100000000E-03 0.  1.
    9000002    1    1    2    0    0  0.41020599105E+00  0.35687138559E+00  0.20394895970E+00  0.11032068342E+01  0.93800000000E+00 0.  1.
         22    1    1    2    0    0 -0.27861793435E+00 -0.24114231601E+00  0.25657091805E+01  0.25920341759E+01  0.00000000000E+00 0. -1.
</event>
<event>
 5    1  0.6440325E+001  0.1599573E+01  0.7818608E-02  0.3353827E+00
         11   -1    0    0    0    0  0.00000000000E+00  0.00000000000E+00  0.39999999674E+01  0.40000000000E+01  0.51100000000E-03 0. -1.
    9000002   -1    0    0    0    0 -0.00000000000E+00 -0.00000000000E+00  0.00000000000E+00  0.93800000000E+00  0.93800000000E+00 0.  1.
         11    1    1    2    0    0  0.96830943394E-02 -0.18020638611E-02  0.12680645901E+00  0.12718942141E+00  0.51100000000E-03 0. -1.
    9000002    1    1    2    0    0 -0.37435866131E+00  0.16327677525E+00  0.11272230278E+00  0.10292492556E+01  0.93800000000E+00 0.  1.
         22    1    1    2    0    0  0.36467556697E+00 -0.16147471139E+00  0.37604712056E+01  0.37815613230E+01  0.00000000000E+00 0. -1.
</event>
<event>
 5    1  0.6440325E+001  0.1597379E+01  0.7818608E-02  0.3356213E+00
         11   -1    0    0    0    0  0.00000000000E+00  0.00000000000E+00  0.39999999674E+01  0.40000000000E+01  0.51100000000E-03 0.  1.
    9000002   -1    0    0    0    0 -0.00000000000E+00 -0.00000000000E+00  0.00000000000E+00  0.93800000000E+00  0.93800000000E+00 0.  1.
         11    1    1    2    0    0  0.24483499946E-01  0.12153793261E+00  0.84617084910E+00  0.85520540096E+00  0.51100000000E-03 0.  1.
    9000002    1    1    2    0    0  0.59371981097E-01 -0.42066872842E+00  0.12409453759E+00  0.10371743660E+01  0.93800000000E+00 0.  1.
         22    1    1    2    0    0 -0.83855481043E-01  0.29913079581E+00  0.30297345807E+01  0.30456202331E+01  0.00000000000E+00 0.  1.
</event>
<event>
 5    1  0.6440325E+001  0.1577192E+01  0.7818608E-02  0.3378496E+00
         11   -1    0    0    0    0  0.00000000000E+00  0.00000000000E+00  0.39999999674E+01  0.40000000000E+01  0.51100000000E-03 0. -1.
    9000002   -1    0    0    0    0 -0.00000000000E+00 -0.00000000000E+00  0.00000000000E+00  0.93800000000E+00  0.93800000000E+00 0.  1.
         11    1    1    2    0    0 -0.80027012570E-01 -0.12965665597E+00  0.50118561880E+00  0.52383437916E+00  0.51100000000E-03 0. -1.
    9000002    1    1    2    0    0  0.45609693753E+00  0.65753499030E-01  0.16431548960E+00  0.10579184842E+01  0.93800000000E+00 0.  1.
         22    1    1    2    0    0 -0.37606992496E+00  0.63903156942E-01  0.33344988590E+01  0.33562471367E+01  0.00000000000E+00 0. -1.
</event>
<event>
 5    1  0.6440325E+001  0.1599676E+01  0.7818608E-02  0.3353716E+00
         11   -1    0    0    0    0  0.00000000000E+00  0.00000000000E+00  0.39999999674E+01  0.40000000000E+01  0.51100000000E-03 0. -1.
    9000002   -1    0    0    0    0 -0.00000000000E+00 -0.00000000000E+00  0.00000000000E+00  0.93800000000E+00  0.93800000000E+00 0.  1.
         11    1    1    2    0    0  0.77550561945E-01 -0.85385652182E-02  0.83239301482E+00  0.83604149957E+00  0.51100000000E-03 0. -1.
    9000002    1    1    2    0    0 -0.36223005264E+00  0.44952292752E-01  0.89485668060E-01  0.10104865187E+01  0.93800000000E+00 0.  1.
         22    1    1    2    0    0  0.28467949069E+00 -0.36413727534E-01  0.30781212845E+01  0.30914719817E+01  0.00000000000E+00 0.  1.
</event>
<event>
 5    1  0.6440325E+001  0.1599677E+01  0.7818608E-02  0.3353714E+00
         11   -1    0    0    0    0  0.00000000000E+00  0.00000000000E+00  0.39999999674E+01  0.40000000000E+01  0.51100000000E-03 0.  1.
    9000002   -1    0    0    0    0 -0.00000000000E+00 -0.00000000000E+00  0.00000000000E+00  0.93800000000E+00  0.93800000000E+00 0.  1.
         11    1    1    2    0    0  0.48789696288E-01 -0.12532459205E+00  0.10321535686E+01  0.10408784454E+01  0.51100000000E-03 0.  1.
    9000002    1    1    2    0    0 -0.18210276895E+00  0.46483718361E+00  0.17059356265E+00  0.10761882685E+01  0.93800000000E+00 0.  1.
         22    1    1    2    0    0  0.13331307266E+00 -0.33951259156E+00  0.27972528361E+01  0.28209332860E+01  0.00000000000E+00 0.  1.
</event>
<event>
 5    1  0.6440325E+001  0.1599593E+01  0.7818608E-02  0.3353805E+00
         11   -1    0    0    0    0  0.00000000000E+00  0.00000000000E+00  0.39999999674E+01  0.40000000000E+01  0.51100000000E-03 0. -1.
    9000002   -1    0    0    0    0 -0.00000000000E+00 -0.00000000000E+00  0.00000000000E+00  0.93800000000E+00  0.93800000000E+00 0.  1.
         11    1    1    2    0    0  0.88266910037E-01 -0.10320777063E+00  0.13681053558E+01  0.13748292319E+01  0.51100000000E-03 0. -1.
    9000002    1    1    2    0    0 -0.22204501217E+00  0.29502283194E+00  0.91687790628E-01  0.10122218678E+01  0.93800000000E+00 0.  1.
         22    1    1    2    0    0  0.13377810213E+00 -0.19181506131E+00  0.25402068210E+01  0.25509489002E+01  0.00000000000E+00 0. -1.
</event>
<event>
 5    1  0.6440325E+001  0.1599665E+01  0.7818608E-02  0.3353727E+00
         11   -1    0    0    0    0  0.00000000000E+00  0.00000000000E+00  0.39999999674E+01  0.40000000000E+01  0.51100000000E-03 0.  1.
    9000002   -1    0    0    0    0 -0.00000000000E+00 -0.00000000000E+00  0.00000000000E+00  0.93800000000E+00  0.93800000000E+00 0. -1.
         11    1    1    2    0    0  0.21314582065E+00 -0.15149300166E+00  0.14698754344E+01  0.14929552318E+01  0.51100000000E-03 0.  1.
    9000002    1    1    2    0    0 -0.53454627549E+00  0.37134696433E+00  0.29901522376E+00  0.11802086225E+01  0.93800000000E+00 0. -1.
         22    1    1    2    0    0  0.32140045485E+00 -0.21985396267E+00  0.22311093092E+01  0.22648361457E+01  0.00000000000E+00 0.  1.
</event>
<event>
 5    1  0.6440325E+001  0.1597519E+01  0.7818608E-02  0.3356061E+00
         11   -1    0    0    0    0  0.00000000000E+00  0.00000000000E+00  0.39999999674E+01  0.40000000000E+01  0.51100000000E-03 0. -1.
    9000002   -1    0    0    0    0 -0.00000000000E+00 -0.00000000000E+00  0.00000000000E+00  0.93800000000E+00  0.93800000000E+00 0. -1.
         11    1    1    2    0    0 -0.17892275968E-01 -0.49182183245E-01  0.12234436442E+01  0.12245626290E+01  0.51100000000E-03 0. -1.
    9000002    1    1    2    0    0 -0.35052581535E-01  0.29703187653E+00  0.61362750453E-01  0.98644108100E+00  0.93800000000E+00 0. -1.
         22    1    1    2    0    0  0.52944857502E-01 -0.24784969328E+00  0.27151935727E+01  0.27269962900E+01  0.00000000000E+00 0. -1.
</event>
<event>
 5    1  0.6440325E+001  0.1599615E+01  0.7818608E-02  0.3353781E+00
         11   -1    0    0    0    0  0.00000000000E+00  0.00000000000E+00  0.39999999674E+01  0.40000000000E+01  0.51100000000E-03 0.  1.
    9000002   -1    0    0    0    0 -0.00000000000E+00 -0.00000000000E+00  0.00000000000E+00  0.93800000000E+00  0.93800000000E+00 0.  1.
         11    1    1    2    0    0 -0.15082885244E+00  0.63989926017E-01  0.14327370684E+01  0.14420748322E+01  0.51100000000E-03 0.  1.
    9000002    1    1    2    0    0  0.39944204913E+00 -0.14999159604E+00  0.12328714760E+00  0.10378319470E+01  0.93800000000E+00 0.  1.
         22    1    1    2    0    0 -0.24861319670E+00  0.86001670025E-01  0.24439757513E+01  0.24580932208E+01  0.00000000000E+00 0. -1.
</event>
<event>
 5    1  0.6440325E+001  0.1599671E+01  0.7818608E-02  0.3353721E+00
         11   -1    0    0    0    0  0.00000000000E+00  0.00000000000E+00  0.39999999674E+01  0.40000000000E+01  0.51100000000E-03 0. -1.
    9000002   -1    0    0    0    0 -0.00000000000E+00 -0.00000000000E+00  0.00000000000E+00  0.93800000000E+00  0.93800000000E+00 0.  1.
         11    1    1    2    0    0 -0.50632498491E-01 -0.22215543926E-01  0.57899825780E+00  0.58163255063E+00  0.51100000000E-03 0. -1.
    9000002    1    1    2    0    0  0.32878349404E+00  0.14461132034E+00  0.86597381465E-01  0.10081439016E+01  0.93800000000E+00 0.  1.
         22    1    1    2    0    0 -0.27815099555E+00 -0.12239577642E+00  0.33344043281E+01  0.33482235477E+01  0.00000000000E+00 0. -1.
</event>
<event>
 5    1  0.6440325E+001  0.1599677E+01  0.7818608E-02  0.3353714E+00
         11   -1    0    0    0    0  0.00000000000E+00  0.00000000000E+00  0.39999999674E+01  0.40000000000E+01  0.51100000000E-03 0. -1.
    9000002   -1    0    0    0    0 -0.00000000000E+00 -0.00000000000E+00  0.00000000000E+00  0.93800000000E+00  0.93800000000E+00 0.  1.
         11    1    1    2    0    0  0.18202801236E+00 -0.13489420851E+00  0.10487400281E+01  0.10729336197E+01  0.51100000000E-03 0. -1.
    9000002    1    1    2    0    0 -0.61885493005E+00  0.45681116444E+00  0.43145947784E+00  0.12875011244E+01  0.93800000000E+00 0.  1.
         22    1    1    2    0    0  0.43682691768E+00 -0.32191695593E+00  0.25198004615E+01  0.25775652558E+01  0.00000000000E+00 0. -1.
</event>
<event>
 5    1  0.6845286E+001  0.1599668E+01  0.7818608E-02  0.3353724E+00
         11   -1    0    0    0    0  0.00000000000E+00  0.00000000000E+00  0.39999999674E+01  0.40000000000E+01  0.51100000000E-03 0. -1.
    9000002   -1    0    0    0    0 -0.00000000000E+00 -0.00000000000E+00  0.00000000000E+00  0.93800000000E+00  0.93800000000E+00 0.  1.
         11    1    1    2    0    0 -0.34315735813E-02  0.11458874275E+00  0.12561695898E+01  0.12613899695E+01  0.51100000000E-03 0. -1.
    9000002    1    1    2    0    0  0.24138880941E-03 -0.35935041638E+00  0.86683144190E-01  0.10082116581E+01  0.93800000000E+00 0.  1.
         22    1    1    2    0    0  0.31901847719E-02  0.24476167362E+00  0.26571472334E+01  0.26683983725E+01  0.00000000000E+00 0. -1.
</event>
<event>
 5    1  0.6440325E+001  0.1599666E+01  0.7818608E-02  0.3353726E+00
         11   -1    0    0    0    0  0.00000000000E+00  0.00000000000E+00  0.39999999674E+01  0.40000000000E+01  0.51100000000E-03 0. -1.
    9000002   -1    0    0    0    0 -0.00000000000E+00 -0.00000000000E+00  0.00000000000E+00  0.93800000000E+00  0.93800000000E+00 0. -1.
         11    1    1    2    0    0  0.41401412653E-01  0.37313607042E-02  0.47760166386E+00  0.47940756196E+00  0.51100000000E-03 0. -1.
    9000002    1    1    2    0    0 -0.35481714571E+00 -0.44848322188E-01  0.85844647985E-01  0.10075315789E+01  0.93800000000E+00 0. -1.
         22    1    1    2    0    0  0.31341573306E+00  0.41116961484E-01  0.34365536555E+01  0.34510608591E+01  0.00000000000E+00 0. -1.
</event>
<event>
 5    1  0.6440325E+001  0.1556559E+01  0.7818608E-02  0.3401906E+00
         11   -1    0    0    0    0  0.00000000000E+00  0.00000000000E+00  0.39999999674E+01  0.40000000000E+01  0.51100000000E-03 0. -1.
    9000002   -1    0    0    0    0 -0.00000000000E+00 -0.00000000000E+00  0.00000000000E+00  0.93800000000E+00  0.93800000000E+00 0.  1.
         11    1    1    2    0    0  0.18477281037E+00  0.64795082757E-01  0.88403314164E+00  0.90545803373E+00  0.51100000000E-03 0. -1.
    9000002    1    1    2    0    0 -0.12829374230E-01  0.16792501250E+00  0.51441105301E-01  0.95438649927E+00  0.93800000000E+00 0.  1.
         22    1    1    2    0    0 -0.17194343614E+00 -0.23272009525E+00  0.30645257204E+01  0.30781554670E+01  0.00000000000E+00 0. -1.
</event>
<event>
 5    1  0.6440325E+001  0.1599677E+01  0.7818608E-02  0.3353714E+00
         11   -1    0    0    0    0  0.00000000000E+00  0.00000000000E+00  0.39999999674E+01  0.40000000000E+01  0.51100000000E-03 0. -1.
    9000002   -1    0    0    0    0 -0.00000000000E+00 -0.00000000000E+00  0.00000000000E+00  0.93800000000E+00  0.93800000000E+00 0. -1.
         11    1    1    2    0    0  0.41038314273E-01 -0.60801434814E-01  0.49773769365E+00  0.50311433145E+00  0.51100000000E-03 0.  1.
    9000002    1    1    2    0    0 -0.31243442664E+00  0.46277149335E+00  0.21568768581E+00  0.11127164526E+01  0.93800000000E+00 0. -1.
         22    1    1    2    0    0  0.27139611237E+00 -0.40197005853E+00  0.32865745879E+01  0.33221692160E+01  0.00000000000E+00 0. -1.
</event>
<event>
 5    1  0.6440325E+001  0.1361465E+01  0.7818608E-02  0.3670704E+00
         11   -1    0    0    0    0  0.00000000000E+00  0.00000000000E+00  0.39999999674E+01  0.40000000000E+01  0.51100000000E-03 0. -1.
    9000002   -1    0    0    0    0 -0.00000000000E+00 -0.00000000000E+00  0.00000000000E+00  0.93800000000E+00  0.93800000000E+00 0.  1.
         11    1    1    2    0    0  0.58089601424E+00 -0.50377752767E-03  0.13569657568E+01  0.14760747811E+01  0.51100000000E-03 0. -1.
    9000002    1    1    2    0    0 -0.12942650095E+00 -0.55640938644E+00  0.50861449153E+00  0.12103203400E+01  0.93800000000E+00 0.  1.
         22    1    1    2    0    0 -0.45146951329E+00  0.55691316397E+00  0.21344197191E+01  0.22516048789E+01  0.00000000000E+00 0. -1.
</event>
<event>
 5    1  0.6440325E+001  0.1599676E+01  0.7818608E-02  0.3353715E+00
         11   -1    0    0    0    0  0.00000000000E+00  0.00000000000E+00  0.39999999674E+01  0.40000000000E+01  0.51100000000E-03 0. -1.
    9000002   -1    0    0    0    0 -0.00000000000E+00 -0.00000000000E+00  0.00000000000E+00  0.93800000000E+00  0.93800000000E+00 0.  1.
         11    1    1    2    0    0 -0.63301709733E-01  0.37735335605E-01  0.80450636576E+00  0.80787487625E+00  0.51100000000E-03 0. -1.
    9000002    1    1    2    0    0  0.31144849361E+00 -0.18083982410E+00  0.87067070340E-01  0.10085275806E+01  0.93800000000E+00 0.  1.
         22    1    1    2    0    0 -0.24814678388E+00  0.14310448849E+00  0.31084265313E+01  0.31215975431E+01  0.00000000000E+00 0. -1.
</event>
<event>
 5    1  0.6440325E+001  0.1599677E+01  0.7818608E-02  0.3353714E+00
         11   -1    0    0    0    0  0.00000000000E+00  0.00000000000E+00  0.39999999674E+01  0.40000000000E+01  0.51100000000E-03 0.  1.
    9000002   -1    0    0    0    0 -0.00000000000E+00 -0.00000000000E+00  0.00000000000E+00  0.93800000000E+00  0.93800000000E+00 0.  1.
         11    1    1    2    0    0  0.39733649933E-01  0.56719589965E-01  0.76939856646E+00  0.77250908734E+00  0.51100000000E-03 0. -1.
    9000002    1    1    2    0    0 -0.20270018345E+00 -0.28999333297E+00  0.83972501159E-01  0.10060213111E+01  0.93800000000E+00 0.  1.
         22    1    1    2    0    0  0.16296653351E+00  0.23327374300E+00  0.31466288997E+01  0.31594696015E+01  0.00000000000E+00 0.  1.
</event>
<event>
 5    1  0.7309621E+001  0.1599654E+01  0.7818608E-02  0.3353739E+00
         11   -1    0    0    0    0  0.00000000000E+00  0.00000000000E+00  0.39999999674E+01  0.40000000000E+01  0.51100000000E-03 0. -1.
    9000002   -1    0    0    0    0 -0.00000000000E+00 -0.00000000000E+00  0.00000000000E+00  0.93800000000E+00  0.93800000000E+00 0. -1.
         11    1    1    2    0    0  0.12631372638E-01  0.12233814010E+00  0.13827757494E+01  0.13882345646E+01  0.51100000000E-03 0. -1.
    9000002    1    1    2    0    0 -0.21363906902E-01 -0.35225856793E+00  0.83552237194E-01  0.10056676844E+01  0.93800000000E+00 0. -1.
         22    1    1    2    0    0  0.87325342644E-02  0.22992042783E+00  0.25336719807E+01  0.25440977509E+01  0.00000000000E+00 0. -1.
</event>
<event>
 5    1  0.6440325E+001  0.1599676E+01  0.7818608E-02  0.3353715E+00
         11   -1    0    0    0    0  0.00000000000E+00  0.00000000000E+00  0.39999999674E+01  0.40000000000E+01  0.51100000000E-03 0. -1.
    9000002   -1    0    0    0    0 -0.00000000000E+00 -0.00000000000E+00  0.00000000000E+00  0.93800000000E+00  0.93800000000E+00 0.  1.
         11    1    1    2    0    0  0.28275798686E-01 -0.26673687486E-01  0.25569200366E+00  0.25863036994E+00  0.51100000000E-03 0.  1.
    9000002    1    1    2    0    0 -0.41118843937E+00  0.39319405917E+00  0.22438867203E+00  0.11197641613E+01  0.93800000000E+00 0.  1.
         22    1    1    2    0    0  0.38291264069E+00 -0.36652037168E+00  0.35199192917E+01  0.35596054687E+01  0.00000000000E+00 0. -1.
</event>
<event>
 5    1  0.6440325E+001  0.1599676E+01  0.7818608E-02  0.3353715E+00
         11   -1    0    0    0    0  0.00000000000E+00  0.00000000000E+00  0.39999999674E+01  0.40000000000E+01  0.51100000000E-03 0.  1.
    9000002   -1    0    0    0    0 -0.00000000000E+00 -0.00000000000E+00  0.00000000000E+00  0.93800000000E+00  0.93800000000E+00 0.  1.
         11    1    1    2    0    0 -0.50105806016E-02  0.31329681213E+00  0.11575582420E+01  0.11992169708E+01  0.51100000000E-03 0.  1.
    9000002    1    1    2    0    0  0.17334914730E-01 -0.91195026360E+00  0.64020020429E+00  0.14565898819E+01  0.93800000000E+00 0.  1.
         22    1    1    2    0    0 -0.12324334128E-01  0.59865345147E+00  0.22022415211E+01  0.22821931472E+01  0.00000000000E+00 0.  1.
</event>
<event>
 5    1  0.6440325E+001  0.1597862E+01  0.7818608E-02  0.3355688E+00
         11   -1    0    0    0    0  0.00000000000E+00  0.00000000000E+00  0.39999999674E+01  0.40000000000E+01  0.51100000000E-03 0.  1.
    9000002   -1    0    0    0    0 -0.00000000000E+00 -0.00000000000E+00  0.00000000000E+00  0.93800000000E+00  0.93800000000E+00 0.  1.
         11    1    1    2    0    0 -0.29221607812E-01 -0.10853087577E-01  0.31041457361E+00  0.31197621785E+00  0.51100000000E-03 0.  1.
    9000002    1    1    2    0    0  0.39691814662E+00  0.46954273451E+00  0.26642837665E+00  0.11527542993E+01  0.93800000000E+00 0.  1.
         22    1    1    2    0    0 -0.36769653880E+00 -0.45868964693E+00  0.34231570171E+01  0.34732694829E+01  0.00000000000E+00 0.  1.
</event>
<event>
 5    1  0.6440325E+001  0.1599667E+01  0.7818608E-02  0.3353724E+00
         11   -1    0    0    0    0  0.00000000000E+00  0.00000000000E+00  0.39999999674E+01  0.40000000000E+01  0.51100000000E-03 0. -1.
    9000002   -1    0    0    0    0 -0.00000000000E+00 -0.00000000000E+00  0.00000000000E+00  0.93800000000E+00  0.93800000000E+00 0. -1.
         11    1    1    2    0    0 -0.80364788073E-02  0.20914413532E-02  0.84022398492E-01  0.84433309113E-01  0.51100000000E-03 0. -1.
    9000002    1    1    2    0    0  0.36381869695E+00 -0.53755289978E-01  0.90879734447E-01  0.10116109932E+01  0.93800000000E+00 0. -1.
         22    1    1    2    0    0 -0.35578221815E+00  0.51663848625E-01  0.38250978344E+01  0.38419556977E+01  0.00000000000E+00 0. -1.
</event>
<event>
 5    1  0.6440325E+001  0.1599617E+01  0.7818608E-02  0.3353779E+00
         11   -1    0    0    0    0  0.00000000000E+00  0.00000000000E+00  0.39999999674E+01  0.40000000000E+01  0.51100000000E-03 0.  1.
    9000002   -1    0    0    0    0 -0.00000000000E+00 -0.00000000000E+00  0.00000000000E+00  0.93800000000E+00  0.93800000000E+00 0. -1.
         11    1    1    2    0    0  0.60653897483E-01 -0.10856018965E+00  0.12710755725E+01  0.12771443075E+01  0.51100000000E-03 0.  1.
    9000002    1    1    2    0    0 -0.20593792348E+00  0.34959806381E+00  0.11117827703E+00  0.10280242428E+01  0.93800000000E+00 0. -1.
         22    1    1    2    0    0  0.14528402600E+00 -0.24103787417E+00  0.26177461178E+01  0.26328314496E+01  0.00000000000E+00 0.  1.
</event>
<event>
 5    1  0.6440325E+001  0.1598986E+01  0.7818608E-02  0.3354464E+00
         11   -1    0    0    0    0  0.00000000000E+00  0.00000000000E+00  0.39999999674E+01  0.40000000000E+01  0.51100000000E-03 0. -1.
    9000002   -1    0    0    0    0 -0.00000000000E+00 -0.00000000000E+00  0.00000000000E+00  0.93800000000E+00  0.93800000000E+00 0. -1.
         11    1    1    2    0    0 -0.14467263665E+00  0.76870067659E-01  0.11975739664E+01  0.12087277796E+01  0.51100000000E-03 0. -1.
    9000002    1    1    2    0    0  0.38142429419E+00 -0.20831655301E+00  0.12858906836E+00  0.10417578543E+01  0.93800000000E+00 0. -1.
         22    1    1    2    0    0 -0.23675165754E+00  0.13144648535E+00  0.26738369326E+01  0.26875143661E+01  0.00000000000E+00 0. -1.
</event>
<event>
 5    1  0.6440325E+001  0.1597756E+01  0.7818608E-02  0.3355803E+00
         11   -1    0    0    0    0  0.00000000000E+00  0.00000000000E+00  0.39999999674E+01  0.40000000000E+01  0.51100000000E-03 0. -1.
    9000002   -1    0    0    0    0 -0.00000000000E+00 -0.00000000000E+00  0.00000000000E+00  0.93800000000E+00  0.93800000000E+00 0. -1.
         11    1    1    2    0    0 -0.80962557169E-01  0.17120462084E+00  0.11641384239E+01  0.11794424484E+01  0.51100000000E-03 0. -1.
    9000002    1    1    2    0    0  0.31132754812E+00 -0.40823029169E+00  0.18259974392E+00  0.10847872970E+01  0.93800000000E+00 0. -1.
         22    1    1    2    0    0 -0.23036499095E+00  0.23702567085E+00  0.26532617995E+01  0.26737702546E+01  0.00000000000E+00 0. -1.
</event>
<event>
 5    1  0.6440325E+001  0.1599675E+01  0.7818608E-02  0.3353717E+00
         11   -1    0    0    0    0  0.00000000000E+00  0.00000000000E+00  0.39999999674E+01  0.40000000000E+01  0.51100000000E-03 0.  1.
    9000002   -1    0    0    0    0 -0.00000000000E+00 -0.00000000000E+00  0.00000000000E+00  0.93800000000E+00  0.93800000000E+00 0.  1.
         11    1    1    2    0    0 -0.72454150772E-01  0.49152589494E-01  0.70966905084E+00  0.71504965132E+00  0.51100000000E-03 0. -1.
    9000002    1    1    2    0    0  0.39038383520E+00 -0.27344759318E+00  0.15492342450E+00  0.10634934849E+01  0.93800000000E+00 0.  1.
         22    1    1    2    0    0 -0.31792968443E+00  0.22429500368E+00  0.31354074920E+01  0.31594568638E+01  0.00000000000E+00 0.  1.
</event>
<event>
 5    1  0.6440325E+001  0.1599660E+01  0.7818608E-02  0.3353733E+00
         11   -1    0    0    0    0  0.00000000000E+00  0.00000000000E+00  0.39999999674E+01  0.40000000000E+01  0.51100000000E-03 0. -1.
    9000002   -1    0    0    0    0 -0.00000000000E+00 -0.00000000000E+00  0.00000000000E+00  0.93800000000E+00  0.93800000000E+00 0. -1.
         11    1    1    2    0    0 -0.26915476820E-01 -0.13952835787E+00  0.13883373660E+01  0.13955907382E+01  0.51100000000E-03 0. -1.
    9000002    1    1    2    0    0  0.80999826470E-01  0.40285609775E+00  0.11407231990E+00  0.10303933722E+01  0.93800000000E+00 0. -1.
         22    1    1    2    0    0 -0.54084349651E-01 -0.26332773988E+00  0.24975902814E+01  0.25120158896E+01  0.00000000000E+00 0. -1.
</event>
<event>
 5    1  0.6440325E+001  0.1599317E+01  0.7818608E-02  0.3354105E+00
         11   -1    0    0    0    0  0.00000000000E+00  0.00000000000E+00  0.39999999674E+01  0.40000000000E+01  0.51100000000E-03 0. -1.
    9000002   -1    0    0    0    0 -0.00000000000E+00 -0.00000000000E+00  0.00000000000E+00  0.93800000000E+00  0.93800000000E+00 0.  1.
         11    1    1    2    0    0 -0.15658106899E+00 -0.78483689441E-02  0.59156694271E+00  0.61198932743E+00  0.51100000000E-03 0. -1.
    9000002    1    1    2    0    0  0.82446681775E+00  0.19302651603E-01  0.50581192650E+00  0.13475191394E+01  0.93800000000E+00 0.  1.
         22    1    1    2    0    0 -0.66788574877E+00 -0.11454282659E-01  0.29026210982E+01  0.29784915332E+01  0.00000000000E+00 0. -1.
</event>
<event>
 5    1  0.6440325E+001  0.1599379E+01  0.7818608E-02  0.3354038E+00
         11   -1    0    0    0    0  0.00000000000E+00  0.00000000000E+00  0.39999999674E+01  0.40000000000E+01  0.51100000000E-03 0.  1.
    9000002   -1    0    0    0    0 -0.00000000000E+00 -0.00000000000E+00  0.00000000000E+00  0.93800000000E+00  0.93800000000E+00 0. -1.
         11    1    1    2    0    0  0.58921675723E-03  0.28215535043E-01  0.24468780262E+00  0.24631046560E+00  0.51100000000E-03 0.  1.
    9000002    1    1    2    0    0 -0.15341040124E+00 -0.37815187945E+00  0.11269771710E+00  0.10291153340E+01  0.93800000000E+00 0. -1.
         22    1    1    2    0    0  0.15282118448E+00  0.34993634441E+00  0.36426144476E+01  0.36625742004E+01  0.00000000000E+00 0.  1.
</event>
<event>
 5    1  0.6440325E+001  0.1599671E+01  0.7818608E-02  0.3353721E+00
         11   -1    0    0    0    0  0.00000000000E+00  0.00000000000E+00  0.39999999674E+01  0.40000000000E+01  0.51100000000E-03 0. -1.
    9000002   -1    0    0    0    0 -0.00000000000E+00 -0.00000000000E+00  0.00000000000E+00  0.93800000000E+00  0.93800000000E+00 0.  1.
         11    1    1    2    0    0 -0.25592765249E+00 -0.20958906599E+00  0.14011461135E+01  0.14396656669E+01  0.51100000000E-03 0. -1.
    9000002    1    1    2    0    0  0.63798113561E+00  0.52925918739E+00  0.51133219502E+00  0.13521981476E+01  0.93800000000E+00 0.  1.
         22    1    1    2    0    0 -0.38205348313E+00 -0.31967012140E+00  0.20875216588E+01  0.21461361855E+01  0.00000000000E+00 0. -1.
</event>
<event>
 5    1  0.6440325E+001  0.1598703E+01  0.7818608E-02  0.3354773E+00
         11   -1    0    0    0    0  0.00000000000E+00  0.00000000000E+00  0.39999999674E+01  0.40000000000E+01  0.51100000000E-03 0.  1.
    9000002   -1    0    0    0    0 -0.00000000000E+00 -0.00000000000E+00  0.00000000000E+00  0.93800000000E+00  0.93800000000E+00 0. -1.
         11    1    1    2    0    0  0.79355572077E-01 -0.66588065580E-01  0.52485800595E+00  0.53498361174E+00  0.51100000000E-03 0.  1.
    9000002    1    1    2    0    0 -0.40167522547E+00  0.39518425496E+00  0.22081091641E+00  0.11162952311E+01  0.93800000000E+00 0. -1.
         22    1    1    2    0    0  0.32231965339E+00 -0.32859618938E+00  0.32543310450E+01  0.32867211572E+01  0.00000000000E+00 0.  1.
</event>
<event>
 5    1  0.6440325E+001  0.1449845E+01  0.7818608E-02  0.3534412E+00
         11   -1    0    0    0    0  0.00000000000E+00  0.00000000000E+00  0.39999999674E+01  0.40000000000E+01  0.51100000000E-03 0. -1.
    9000002   -1    0    0    0    0 -0.00000000000E+00 -0.00000000000E+00  0.00000000000E+00  0.93800000000E+00  0.93800000000E+00 0. -1.
         11    1    1    2    0    0 -0.23250655084E+00  0.12231947122E+00  0.35898570109E+00  0.44485092327E+00  0.51100000000E-03 0. -1.
    9000002    1    1    2    0    0 -0.16041366973E+00  0.11607174828E+00  0.14799646958E+00  0.97002688169E+00  0.93800000000E+00 0. -1.
         22    1    1    2    0    0  0.39292022057E+00 -0.23839121950E+00  0.34930177967E+01  0.35231221950E+01  0.00000000000E+00 0. -1.
</event>
<event>
 5    1  0.6440325E+001  0.1546642E+01  0.7818608E-02  0.3413393E+00
         11   -1    0    0    0    0  0.00000000000E+00  0.00000000000E+00  0.39999999674E+01  0.40000000000E+01  0.51100000000E-03 0.  1.
    9000002   -1    0    0    0    0 -0.00000000000E+00 -0.00000000000E+00  0.00000000000E+00  0.93800000000E+00  0.93800000000E+00 0.  1.
         11    1    1    2    0    0 -0.66783459374E-01  0.50206909330E+00  0.64175526384E+00  0.81754723697E+00  0.51100000000E-03 0.  1.
    9000002    1    1    2    0    0 -0.52027340130E+00 -0.24100861046E+00  0.53056657819E+00  0.12207024438E+01  0.93800000000E+00 0.  1.
         22    1    1    2    0    0  0.58705686068E+00 -0.26106048283E+00  0.28276781253E+01  0.28997503192E+01  0.00000000000E+00 0.  1.
</event>
<event>
 5    1  0.6440325E+001  0.1576435E+01  0.7818608E-02  0.3379344E+00
         11   -1    0    0    0    0  0.00000000000E+00  0.00000000000E+00  0.39999999674E+01  0.40000000000E+01  0.51100000000E-03 0.  1.
    9000002   -1    0    0    0    0 -0.00000000000E+00 -0.00000000000E+00  0.00000000000E+00  0.93800000000E+00  0.93800000000E+00 0. -1.
         11    1    1    2    0    0 -0.16644363655E+00  0.67633099583E-01  0.10831142466E+01  0.10979136817E+01  0.51100000000E-03 0.  1.
    9000002    1    1    2    0    0  0.34479991575E-01 -0.42303826559E+00  0.14186437897E+00  0.10392880958E+01  0.93800000000E+00 0. -1.
         22    1    1    2    0    0  0.13196364497E+00  0.35540516600E+00  0.27750213418E+01  0.28007982225E+01  0.00000000000E+00 0.  1.
</event>
<event>
 5    1  0.6440325E+001  0.1597671E+01  0.7818608E-02  0.3355895E+00
         11   -1    0    0    0    0  0.00000000000E+00  0.00000000000E+00  0.39999999674E+01  0.40000000000E+01  0.51100000000E-03 0.  1.
    9000002   -1    0    0    0    0 -0.00000000000E+00 -0.00000000000E+00  0.00000000000E+00  0.93800000000E+00  0.93800000000E+00 0.  1.
         11    1    1    2    0    0 -0.36465381336E-01 -0.89833670492E-01  0.52886023800E+00  0.53767390196E+00  0.51100000000E-03 0.  1.
    9000002    1    1    2    0    0  0.82741336942E-01  0.45274098350E+00  0.14583400541E+00  0.10549559631E+01  0.93800000000E+00 0.  1.
         22    1    1    2    0    0 -0.46275955605E-01 -0.36290731301E+00  0.33253057240E+01  0.33453701349E+01  0.00000000000E+00 0.  1.
</event>
<event>
 5    1  0.6440325E+001  0.1599661E+01  0.7818608E-02  0.3353731E+00
         11   -1    0    0    0    0  0.00000000000E+00  0.00000000000E+00  0.39999999674E+01  0.40000000000E+01  0.51100000000E-03 0.  1.
    9000002   -1    0    0    0    0 -0.00000000000E+00 -0.00000000000E+00  0.00000000000E+00  0.93800000000E+00  0.93800000000E+00 0. -1.
         11    1    1    2    0    0  0.43038901294E-01 -0.55433973150E-01  0.76885989338E+00  0.77205638989E+00  0.51100000000E-03 0.  1.
    9000002    1    1    2    0    0 -0.20520089498E+00  0.29557030498E+00  0.86918801181E-01  0.10083987755E+01  0.93800000000E+00 0. -1.
         22    1    1    2    0    0  0.16216199368E+00 -0.24013633183E+00  0.31442212728E+01  0.31575448346E+01  0.00000000000E+00 0.  1.
</event>
<event>
 5    1  0.6440325E+001  0.1596491E+01  0.7818608E-02  0.3357180E+00
         11   -1    0    0    0    0  0.00000000000E+00  0.00000000000E+00  0.39999999674E+01  0.40000000000E+01  0.51100000000E-03 0.  1.
    9000002   -1    0    0    0    0 -0.00000000000E+00 -0.00000000000E+00  0.00000000000E+00  0.93800000000E+00  0.93800000000E+00 0.  1.
         11    1    1    2    0    0  0.20294025127E+00  0.46909393706E-01  0.14797881667E+01  0.14943756276E+01  0.51100000000E-03 0.  1.
    9000002    1    1    2    0    0 -0.37478645414E+00 -0.19673174059E+00  0.12392676436E+00  0.10365182617E+01  0.93800000000E+00 0.  1.
         22    1    1    2    0    0  0.17184620287E+00  0.14982234689E+00  0.23962850363E+01  0.24071061107E+01  0.00000000000E+00 0.  1.
</event>
<event>
 5    1  0.6440325E+001  0.1599621E+01  0.7818608E-02  0.3353775E+00
         11   -1    0    0    0    0  0.00000000000E+00  0.00000000000E+00  0.39999999674E+01  0.40000000000E+01  0.51100000000E-03 0.  1.
    9000002   -1    0    0    0    0 -0.00000000000E+00 -0.00000000000E+00  0.00000000000E+00  0.93800000000E+00  0.93800000000E+00 0.  1.
         11    1    1    2    0    0  0.60832254844E-01 -0.11397083251E+00  0.12363340302E+01  0.12430655691E+01  0.51100000000E-03 0.  1.
    9000002    1    1    2    0    0 -0.21304303843E+00  0.34345735771E+00  0.11028916751E+00  0.10273061828E+01  0.93800000000E+00 0.  1.
         22    1    1    2    0    0  0.15221078359E+00 -0.22948652521E+00  0.26533767697E+01  0.26676282481E+01  0.00000000000E+00 0.  1.
</event>
<event>
 5    1  0.6440325E+001  0.1599670E+01  0.7818608E-02  0.3353721E+00
         11   -1    0    0    0    0  0.00000000000E+00  0.00000000000E+00  0.39999999674E+01  0.40000000000E+01  0.51100000000E-03 0.  1.
    9000002   -1    0    0    0    0 -0.00000000000E+00 -0.00000000000E+00  0.00000000000E+00  0.93800000000E+00  0.93800000000E+00 0. -1.
         11    1    1    2    0    0 -0.10062838021E+00 -0.63569622212E-01  0.12432975665E+01  0.12489820926E+01  0.51100000000E-03 0.  1.
    9000002    1    1    2    0    0  0.30756411621E+00  0.19811669328E+00  0.89911460496E-01  0.10108283635E+01  0.93800000000E+00 0. -1.
         22    1    1    2    0    0 -0.20693573599E+00 -0.13454707107E+00  0.26667909404E+01  0.26781895439E+01  0.00000000000E+00 0.  1.
</event>
<event>
 5    1  0.6440325E+001  0.1599676E+01  0.7818608E-02  0.3353715E+00
         11   -1    0    0    0    0  0.00000000000E+00  0.00000000000E+00  0.39999999674E+01  0.40000000000E+01  0.51100000000E-03 0. -1.
    9000002   -1    0    0    0    0 -0.00000000000E+00 -0.00000000000E+00  0.00000000000E+00  0.93800000000E+00  0.93800000000E+00 0.  1.
         11    1    1    2    0    0  0.10257043813E+00  0.58016347101E-01  0.12909163713E+01  0.12962838926E+01  0.51100000000E-03 0. -1.
    9000002    1    1    2    0    0 -0.31303676542E+00 -0.17274810339E+00  0.85787108477E-01  0.10074906212E+01  0.93800000000E+00 0.  1.
         22    1    1    2    0    0  0.21046632728E+00  0.11473175629E+00  0.26232964876E+01  0.26342254863E+01  0.00000000000E+00 0. -1.
</event>
<event>
 5    1  0.6440325E+001  0.1599459E+01  0.7818608E-02  0.3353951E+00
         11   -1    0    0    0    0  0.00000000000E+00  0.00000000000E+00  0.39999999674E+01  0.40000000000E+01  0.51100000000E-03 0.  1.
    9000002   -1    0    0    0    0 -0.00000000000E+00 -0.00000000000E+00  0.00000000000E+00  0.93800000000E+00  0.93800000000E+00 0.  1.
         11    1    1    2    0    0  0.72071355024E-01 -0.25184138984E+00  0.75236002664E+00  0.79665816801E+00  0.51100000000E-03 0.  1.
    9000002    1    1    2    0    0 -0.23346732163E+00  0.10228519215E+01  0.91337160184E+00  0.16777439395E+01  0.93800000000E+00 0.  1.
         22    1    1    2    0    0  0.16139596661E+00 -0.77101053163E+00  0.23342683389E+01  0.24635978925E+01  0.00000000000E+00 0.  1.
</event>
<event>
 5    1  0.6440325E+001  0.1556885E+01  0.7818608E-02  0.3401531E+00
         11   -1    0    0    0    0  0.00000000000E+00  0.00000000000E+00  0.39999999674E+01  0.40000000000E+01  0.51100000000E-03 0.  1.
    9000002   -1    0    0    0    0 -0.00000000000E+00 -0.00000000000E+00  0.00000000000E+00  0.93800000000E+00  0.93800000000E+00 0. -1.
         11    1    1    2    0    0 -0.12304770395E+00 -0.54828577588E-01  0.53841558261E+00  0.55501217202E+00  0.51100000000E-03 0.  1.
    9000002    1    1    2    0    0 -0.25029966018E+00 -0.10027109159E+00  0.82127807809E-01  0.97943513747E+00  0.93800000000E+00 0. -1.
         22    1    1    2    0    0  0.37334736413E+00  0.15509966918E+00  0.33794565769E+01  0.34035526905E+01  0.00000000000E+00 0.  1.
</event>
<event>
 5    1  0.6440325E+001  0.1599623E+01  0.7818608E-02  0.3353772E+00
         11   -1    0    0    0    0  0.00000000000E+00  0.00000000000E+00  0.39999999674E+01  0.40000000000E+01  0.51100000000E-03 0.  1.
    9000002   -1    0    0    0    0 -0.00000000000E+00 -0.00000000000E+00  0.00000000000E+00  0.93800000000E+00  0.93800000000E+00 0.  1.
         11    1    1    2    0    0 -0.14840024298E+00 -0.60461897031E-01  0.13189324379E+01  0.13286313672E+01  0.51100000000E-03 0.  1.
    9000002    1    1    2    0    0  0.41782773114E+00  0.19524876000E+00  0.14475292941E+00  0.10552248584E+01  0.93800000000E+00 0.  1.
         22    1    1    2    0    0 -0.26942748815E+00 -0.13478686297E+00  0.25363146000E+01  0.25541437744E+01  0.00000000000E+00 0.  1.
</event>
<event>
 5    1  0.6440325E+001  0.1599629E+01  0.7818608E-02  0.3353766E+00
         11   -1    0    0    0    0  0.00000000000E+00  0.00000000000E+00  0.39999999674E+01  0.40000000000E+01  0.51100000000E-03 0. -1.
    9000002   -1    0    0    0    0 -0.00000000000E+00 -0.00000000000E+00  0.00000000000E+00  0.93800000000E+00  0.93800000000E+00 0.  1.
         11    1    1    2    0    0  0.76851465835E-01  0.43360786738E-01  0.77118332114E+00  0.77621535772E+00  0.51100000000E-03 0. -1.
    9000002    1    1    2    0    0 -0.38657792798E+00 -0.18447920158E+00  0.12426805824E+00  0.10386344980E+01  0.93800000000E+00 0.  1.
         22    1    1    2    0    0  0.30972646215E+00  0.14111841485E+00  0.31045485880E+01  0.31231501442E+01  0.00000000000E+00 0. -1.
</event>
<event>
 5    1  0.6440325E+001  0.1454021E+01  0.7818608E-02  0.3528831E+00
         11   -1    0    0    0    0  0.00000000000E+00  0.00000000000E+00  0.39999999674E+01  0.40000000000E+01  0.51100000000E-03 0.  1.
    9000002   -1    0    0    0    0 -0.00000000000E+00 -0.00000000000E+00  0.00000000000E+00  0.93800000000E+00  0.93800000000E+00 0.  1.
         11    1    1    2    0    0 -0.28084521851E+00 -0.17869381769E-01  0.47543188278E+00  0.55247541833E+00  0.51100000000E-03 0.  1.
    9000002    1    1    2    0    0 -0.22563913861E+00  0.78388758231E-01  0.15825967194E+00  0.98078944838E+00  0.93800000000E+00 0.  1.
         22    1    1    2    0    0  0.50648435712E+00 -0.60519376462E-01  0.33663084126E+01  0.34047351333E+01  0.00000000000E+00 0.  1.
</event>
<event>
 5    1  0.6440325E+001  0.1599648E+01  0.7818608E-02  0.3353746E+00
         11   -1    0    0    0    0  0.00000000000E+00  0.00000000000E+00  0.39999999674E+01  0.40000000000E+01  0.51100000000E-03 0. -1.
    9000002   -1    0    0    0    0 -0.00000000000E+00 -0.00000000000E+00  0.00000000000E+00  0.93800000000E+00  0.93800000000E+00 0. -1.
         11    1    1    2    0    0 -0.14173961849E-01 -0.11112735354E-02  0.28967288377E-01  0.32272295243E-01  0.51100000000E-03 0. -1.
    9000002    1    1    2    0    0  0.11951728563E+01  0.26708095756E-01  0.13573528646E+01  0.20374990252E+01  0.93800000000E+00 0. -1.
         22    1    1    2    0    0 -0.11809988944E+01 -0.25596822221E-01  0.26136798144E+01  0.28682286795E+01  0.00000000000E+00 0. -1.
</event>
<event>
 5    1  0.6440325E+001  0.1592104E+01  0.7818608E-02  0.3361979E+00
         11   -1    0    0    0    0  0.00000000000E+00  0.00000000000E+00  0.39999999674E+01  0.40000000000E+01  0.51100000000E-03 0. -1.
    9000002   -1    0    0    0    0 -0.00000000000E+00 -0.00000000000E+00  0.00000000000E+00  0.93800000000E+00  0.93800000000E+00 0.  1.
         11    1    1    2    0    0  0.25282533466E-01 -0.11015516188E+00  0.10940604709E+01  0.10998826943E+01  0.51100000000E-03 0. -1.
    9000002    1    1    2    0    0 -0.31431965939E+00  0.14323238473E+00  0.86066128778E-01  0.10032765037E+01  0.93800000000E+00 0.  1.
         22    1    1    2    0    0  0.28903712593E+00 -0.33077222858E-01  0.28198733677E+01  0.28348408020E+01  0.00000000000E+00 0. -1.
</event>
<event>
 5    1  0.6440325E+001  0.1568262E+01  0.7818608E-02  0.3388547E+00
         11   -1    0    0    0    0  0.00000000000E+00  0.00000000000E+00  0.39999999674E+01  0.40000000000E+01  0.51100000000E-03 0. -1.
    9000002   -1    0    0    0    0 -0.00000000000E+00 -0.00000000000E+00  0.00000000000E+00  0.93800000000E+00  0.93800000000E+00 0.  1.
         11    1    1    2    0    0  0.10929350715E-01 -0.16575541794E+00  0.35618460219E+00  0.39301659156E+00  0.51100000000E-03 0. -1.
    9000002    1    1    2    0    0  0.27567171583E+00  0.45282296498E+00  0.22310019619E+00  0.11003005181E+01  0.93800000000E+00 0.  1.
         22    1    1    2    0    0 -0.28660106655E+00 -0.28706754704E+00  0.34207151690E+01  0.34446828904E+01  0.00000000000E+00 0. -1.
</event>
<event>
 5    1  0.6440325E+001  0.1587141E+01  0.7818608E-02  0.3367440E+00
         11   -1    0    0    0    0  0.00000000000E+00  0.00000000000E+00  0.39999999674E+01  0.40000000000E+01  0.51100000000E-03 0. -1.
    9000002   -1    0    0    0    0 -0.00000000000E+00 -0.00000000000E+00  0.00000000000E+00  0.93800000000E+00  0.93800000000E+00 0.  1.
         11    1    1    2    0    0 -0.50051152420E-01  0.43823887793E-01  0.85940690599E+00  0.86197804043E+00  0.51100000000E-03 0. -1.
    9000002    1    1    2    0    0 -0.26730137715E+00 -0.84834345053E-01  0.62153750749E-01  0.98099642255E+00  0.93800000000E+00 0.  1.
         22    1    1    2    0    0  0.31735252957E+00  0.41010457259E-01  0.30784393106E+01  0.30950255370E+01  0.00000000000E+00 0. -1.
</event>
<event>
 5    1  0.6440325E+001  0.1598953E+01  0.7818608E-02  0.3354500E+00
         11   -1    0    0    0    0  0.00000000000E+00  0.00000000000E+00  0.39999999674E+01  0.40000000000E+01  0.51100000000E-03 0.  1.
    9000002   -1    0    0    0    0 -0.00000000000E+00 -0.00000000000E+00  0.00000000000E+00  0.93800000000E+00  0.93800000000E+00 0.  1.
         11    1    1    2    0    0  0.12053509459E+00 -0.13881851529E+00  0.13708692022E+01  0.13831420461E+01  0.51100000000E-03 0.  1.
    9000002    1    1    2    0    0 -0.33547303185E+00  0.30344142886E+00  0.13964844825E+00  0.10506971709E+01  0.93800000000E+00 0.  1.
         22    1    1    2    0    0  0.21493793726E+00 -0.16462291357E+00  0.24894823169E+01  0.25041607829E+01  0.00000000000E+00 0.  1.
</event>
<event>
 5    1  0.6440325E+001  0.1599381E+01  0.7818608E-02  0.3354035E+00
         11   -1    0    0    0    0  0.00000000000E+00  0.00000000000E+00  0.39999999674E+01  0.40000000000E+01  0.51100000000E-03 0. -1.
    9000002   -1    0    0    0    0 -0.00000000000E+00 -0.00000000000E+00  0.00000000000E+00  0.93800000000E+00  0.93800000000E+00 0.  1.
         11    1    1    2    0    0  0.45194752089E-01 -0.79003418957E-01  0.11760308554E+01  0.11795477692E+01  0.51100000000E-03 0. -1.
    9000002    1    1    2    0    0 -0.21389571232E+00  0.26730169341E+00  0.78756464181E-01  0.10016227592E+01  0.93800000000E+00 0.  1.
         22    1    1    2    0    0  0.16870096023E+00 -0.18829827446E+00  0.27452126478E+01  0.27568294716E+01  0.00000000000E+00 0. -1.
</event>
<event>
 5    1  0.6440325E+001  0.1599669E+01  0.7818608E-02  0.3353723E+00
         11   -1    0    0    0    0  0.00000000000E+00  0.00000000000E+00  0.39999999674E+01  0.40000000000E+01  0.51100000000E-03 0. -1.
    9000002   -1    0    0    0    0 -0.00000000000E+00 -0.00000000000E+00  0.00000000000E+00  0.93800000000E+00  0.93800000000E+00 0.  1.
         11    1    1    2    0    0 -0.78846280958E-01 -0.46276750679E-01  0.97976750014E+00  0.98402382549E+00  0.51100000000E-03 0. -1.
    9000002    1    1    2    0    0  0.32131833732E+00  0.17475456261E+00  0.89870800143E-01  0.10107944360E+01  0.93800000000E+00 0.  1.
         22    1    1    2    0    0 -0.24247205636E+00 -0.12847781193E+00  0.29303616671E+01  0.29431817386E+01  0.00000000000E+00 0. -1.
</event>
<event>
 5    1  0.6440325E+001  0.1599677E+01  0.7818608E-02  0.3353714E+00
         11   -1    0    0    0    0  0.00000000000E+00  0.00000000000E+00  0.39999999674E+01  0.40000000000E+01  0.51100000000E-03 0. -1.
    9000002   -1    0    0    0    0 -0.00000000000E+00 -0.00000000000E+00  0.00000000000E+00  0.93800000000E+00  0.93800000000E+00 0.  1.
         11    1    1    2    0    0 -0.94740700802E-01 -0.14969448867E-01  0.58713772027E+00  0.59492087580E+00  0.51100000000E-03 0. -1.
    9000002    1    1    2    0    0  0.60268098229E+00  0.97849608644E-01  0.26069741747E+00  0.11491762510E+01  0.93800000000E+00 0.  1.
         22    1    1    2    0    0 -0.50794028149E+00 -0.82880159777E-01  0.31521648296E+01  0.31939028732E+01  0.00000000000E+00 0. -1.
</event>
<event>
 5    1  0.6440325E+001  0.1599675E+01  0.7818608E-02  0.3353716E+00
         11   -1    0    0    0    0  0.00000000000E+00  0.00000000000E+00  0.39999999674E+01  0.40000000000E+01  0.51100000000E-03 0.  1.
    9000002   -1    0    0    0    0 -0.00000000000E+00 -0.00000000000E+00  0.00000000000E+00  0.93800000000E+00  0.93800000000E+00 0. -1.
         11    1    1    2    0    0  0.27768933664E-01  0.33799342114E-01  0.44601041003E+00  0.44815070699E+00  0.51100000000E-03 0.  1.
    9000002    1    1    2    0    0 -0.25140606549E+00 -0.29291347039E+00  0.10033072507E+00  0.10192710951E+01  0.93800000000E+00 0. -1.
         22    1    1    2    0    0  0.22363713182E+00  0.25911412827E+00  0.34536588323E+01  0.34705781979E+01  0.00000000000E+00 0.  1.
</event>
<event>
 5    1  0.6440325E+001  0.1599474E+01  0.7818608E-02  0.3353935E+00
         11   -1    0    0    0    0  0.00000000000E+00  0.00000000000E+00  0.39999999674E+01  0.40000000000E+01  0.51100000000E-03 0.  1.
    9000002   -1    0    0    0    0 -0.00000000000E+00 -0.00000000000E+00  0.00000000000E+00  0.93800000000E+00  0.93800000000E+00 0. -1.
         11    1    1    2    0    0 -0.99163262833E-01 -0.21174115447E-01  0.97058340813E+00  0.97586582537E+00  0.51100000000E-03 0.  1.
    9000002    1    1    2    0    0  0.39501186245E+00  0.14402804365E+00  0.11973484472E+00  0.10348714325E+01  0.93800000000E+00 0. -1.
         22    1    1    2    0    0 -0.29584859961E+00 -0.12285392820E+00  0.29096817145E+01  0.29272627421E+01  0.00000000000E+00 0.  1.
</event>
<event>
 5    1  0.6440325E+001  0.1565670E+01  0.7818608E-02  0.3391488E+00
         11   -1    0    0    0    0  0.00000000000E+00  0.00000000000E+00  0.39999999674E+01  0.40000000000E+01  0.51100000000E-03 0. -1.
    9000002   -1    0    0    0    0 -0.00000000000E+00 -0.00000000000E+00  0.00000000000E+00  0.93800000000E+00  0.93800000000E+00 0.  1.
         11    1    1    2    0    0 -0.13866809467E+00  0.10202740854E+00  0.10883376276E+01  0.11018699948E+01  0.51100000000E-03 0. -1.
    9000002    1    1    2    0    0 -0.20718804368E+00 -0.25126216632E+00  0.98431975949E-01  0.99779377406E+00  0.93800000000E+00 0.  1.
         22    1    1    2    0    0  0.34585613835E+00  0.14923475779E+00  0.28132303638E+01  0.28383362312E+01  0.00000000000E+00 0. -1.
</event>
<event>
 5    1  0.6440325E+001  0.1599662E+01  0.7818608E-02  0.3353730E+00
         11   -1    0    0    0    0  0.00000000000E+00  0.00000000000E+00  0.39999999674E+01  0.40000000000E+01  0.51100000000E-03 0.  1.
    9000002   -1    0    0    0    0 -0.00000000000E+00 -0.00000000000E+00  0.00000000000E+00  0.93800000000E+00  0.93800000000E+00 0.  1.
         11    1    1    2    0    0  0.31317853147E-01 -0.28495211603E-01  0.45782011206E+00  0.45977418494E+00  0.51100000000E-03 0.  1.
    9000002    1    1    2    0    0 -0.28573822986E+00  0.25936875728E+00  0.10028270645E+00  0.10192247591E+01  0.93800000000E+00 0.  1.
         22    1    1    2    0    0  0.25442037671E+00 -0.23087354567E+00  0.34418971488E+01  0.34590010560E+01  0.00000000000E+00 0.  1.
</event>
<event>
 5    1  0.6440325E+001  0.1504594E+01  0.7818608E-02  0.3463903E+00
         11   -1    0    0    0    0  0.00000000000E+00  0.00000000000E+00  0.39999999674E+01  0.40000000000E+01  0.51100000000E-03 0.  1.
    9000002   -1    0    0    0    0 -0.00000000000E+00 -0.00000000000E+00  0.00000000000E+00  0.93800000000E+00  0.93800000000E+00 0.  1.
         11    1    1    2    0    0  0.35063968886E+00  0.83656828863E-01  0.12330574815E+01  0.12846702574E+01  0.51100000000E-03 0.  1.
    9000002    1    1    2    0    0 -0.56498107521E-01  0.30676724277E-01  0.75257111410E-01  0.94320768147E+00  0.93800000000E+00 0.  1.
         22    1    1    2    0    0 -0.29414158134E+00 -0.11433355314E+00  0.26916853744E+01  0.27101220611E+01  0.00000000000E+00 0.  1.
</event>
<event>
 5    1  0.6440325E+001  0.1599677E+01  0.7818608E-02  0.3353714E+00
         11   -1    0    0    0    0  0.00000000000E+00  0.00000000000E+00  0.39999999674E+01  0.40000000000E+01  0.51100000000E-03 0.  1.
    9000002   -1    0    0    0    0 -0.00000000000E+00 -0.00000000000E+00  0.00000000000E+00  0.93800000000E+00  0.93800000000E+00 0. -1.
         11    1    1    2    0    0  0.63852726809E-02  0.16028945074E+00  0.10006714530E+01  0.10134481228E+01  0.51100000000E-03 0.  1.
    9000002    1    1    2    0    0 -0.23183925758E-01 -0.60242712122E+00  0.25373943575E+00  0.11435399565E+01  0.93800000000E+00 0. -1.
         22    1    1    2    0    0  0.16798653077E-01  0.44213767048E+00  0.27455890786E+01  0.27810119207E+01  0.00000000000E+00 0.  1.
</event>
<event>
 5    1  0.6440325E+001  0.1599662E+01  0.7818608E-02  0.3353730E+00
         11   -1    0    0    0    0  0.00000000000E+00  0.00000000000E+00  0.39999999674E+01  0.40000000000E+01  0.51100000000E-03 0. -1.
    9000002   -1    0    0    0    0 -0.00000000000E+00 -0.00000000000E+00  0.00000000000E+00  0.93800000000E+00  0.93800000000E+00 0. -1.
         11    1    1    2    0    0  0.48211975878E-02  0.26526067879E-01  0.20540587083E+00  0.20716831108E+00  0.51100000000E-03 0. -1.
    9000002    1    1    2    0    0 -0.12731175357E+00 -0.49046587768E+00  0.17598345870E+00  0.10805458054E+01  0.93800000000E+00 0. -1.
         22    1    1    2    0    0  0.12249055598E+00  0.46393980980E+00  0.36186106378E+01  0.36502858836E+01  0.00000000000E+00 0. -1.
</event>
<event>
 5    1  0.6440325E+001  0.1599118E+01  0.7818608E-02  0.3354321E+00
         11   -1    0    0    0    0  0.00000000000E+00  0.00000000000E+00  0.39999999674E+01  0.40000000000E+01  0.51100000000E-03 0. -1.
    9000002   -1    0    0    0    0 -0.00000000000E+00 -0.00000000000E+00  0.00000000000E+00  0.93800000000E+00  0.93800000000E+00 0.  1.
         11    1    1    2    0    0  0.11534683246E+00  0.66626136152E-01  0.89489293215E+00  0.90475275899E+00  0.51100000000E-03 0. -1.
    9000002    1    1    2    0    0 -0.39106424630E+00 -0.28470457412E+00  0.16024632444E+00  0.10674787229E+01  0.93800000000E+00 0.  1.
         22    1    1    2    0    0  0.27571741384E+00  0.21807843797E+00  0.29448607108E+01  0.29657685181E+01  0.00000000000E+00 0. -1.
</event>
<event>
 5    1  0.6440325E+001  0.1590295E+01  0.7818608E-02  0.3363965E+00
         11   -1    0    0    0    0  0.00000000000E+00  0.00000000000E+00  0.39999999674E+01  0.40000000000E+01  0.51100000000E-03 0. -1.
    9000002   -1    0    0    0    0 -0.00000000000E+00 -0.00000000000E+00  0.00000000000E+00  0.93800000000E+00  0.93800000000E+00 0.  1.
         11    1    1    2    0    0 -0.60816760102E-01 -0.70527338462E-01  0.12824141831E+01  0.12857912668E+01  0.51100000000E-03 0. -1.
    9000002    1    1    2    0    0  0.47941832498E+00  0.68901015276E-01  0.16855995442E+00  0.10690396337E+01  0.93800000000E+00 0.  1.
         22    1    1    2    0    0 -0.41860156488E+00  0.16263231859E-02  0.25490258299E+01  0.25831690995E+01  0.00000000000E+00 0. -1.
</event>
<event>
 5    1  0.6440325E+001  0.1598231E+01  0.7818608E-02  0.3355285E+00
         11   -1    0    0    0    0  0.00000000000E+00  0.00000000000E+00  0.39999999674E+01  0.40000000000E+01  0.51100000000E-03 0.  1.
    9000002   -1    0    0    0    0 -0.00000000000E+00 -0.00000000000E+00  0.00000000000E+00  0.93800000000E+00  0.93800000000E+00 0.  1.
         11    1    1    2    0    0  0.63547478839E-01 -0.25033722086E-01  0.66499360935E+00  0.66849213227E+00  0.51100000000E-03 0.  1.
    9000002    1    1    2    0    0 -0.48713859470E+00  0.29596596892E+00  0.22667651038E+00  0.11207703179E+01  0.93800000000E+00 0.  1.
         22    1    1    2    0    0  0.42359111586E+00 -0.27093224684E+00  0.31083298476E+01  0.31487375498E+01  0.00000000000E+00 0.  1.
</event>
<event>
 5    1  0.6440325E+001  0.1474732E+01  0.7818608E-02  0.3501658E+00
         11   -1    0    0    0    0  0.00000000000E+00  0.00000000000E+00  0.39999999674E+01  0.40000000000E+01  0.51100000000E-03 0. -1.
    9000002   -1    0    0    0    0 -0.00000000000E+00 -0.00000000000E+00  0.00000000000E+00  0.93800000000E+00  0.93800000000E+00 0.  1.
         11    1    1    2    0    0  0.25228139021E+00 -0.27216813647E+00  0.11178587927E+01  0.11778497085E+01  0.51100000000E-03 0. -1.
    9000002    1    1    2    0    0 -0.99810362246E-01 -0.15017808022E+00  0.12108389237E+00  0.96281923183E+00  0.93800000000E+00 0.  1.
         22    1    1    2    0    0 -0.15247102796E+00  0.42234621669E+00  0.27610572823E+01  0.27973310596E+01  0.00000000000E+00 0. -1.
</event>
<event>
 5    1  0.6440325E+001  0.1599676E+01  0.7818608E-02  0.3353716E+00
         11   -1    0    0    0    0  0.00000000000E+00  0.00000000000E+00  0.39999999674E+01  0.40000000000E+01  0.51100000000E-03 0. -1.
    9000002   -1    0    0    0    0 -0.00000000000E+00 -0.00000000000E+00  0.00000000000E+00  0.93800000000E+00  0.93800000000E+00 0.  1.
         11    1    1    2    0    0  0.27358377213E+00 -0.26490196470E+00  0.13186308965E+01  0.13725191560E+01  0.51100000000E-03 0. -1.
    9000002    1    1    2    0    0 -0.67992822068E+00  0.66268675541E+00  0.70596778520E+00  0.15098644425E+01  0.93800000000E+00 0.  1.
         22    1    1    2    0    0  0.40634444855E+00 -0.39778479070E+00  0.19754012857E+01  0.20556164015E+01  0.00000000000E+00 0. -1.
</event>
<event>
 5    1  0.6440325E+001  0.1599674E+01  0.7818608E-02  0.3353718E+00
         11   -1    0    0    0    0  0.00000000000E+00  0.00000000000E+00  0.39999999674E+01  0.40000000000E+01  0.51100000000E-03 0. -1.
    9000002   -1    0    0    0    0 -0.00000000000E+00 -0.00000000000E+00  0.00000000000E+00  0.93800000000E+00  0.93800000000E+00 0. -1.
         11    1    1    2    0    0  0.19708561122E-01 -0.86292884750E-01  0.75393898618E+00  0.75911734623E+00  0.51100000000E-03 0. -1.
    9000002    1    1    2    0    0 -0.94518746248E-01  0.43631001795E+00  0.13529357376E+00  0.10475917985E+01  0.93800000000E+00 0. -1.
         22    1    1    2    0    0  0.74810185126E-01 -0.35001713320E+00  0.31107674074E+01  0.31312908553E+01  0.00000000000E+00 0. -1.
</event>
<event>
 5    1  0.6440325E+001  0.1599583E+01  0.7818608E-02  0.3353816E+00
         11   -1    0    0    0    0  0.00000000000E+00  0.00000000000E+00  0.39999999674E+01  0.40000000000E+01  0.51100000000E-03 0.  1.
    9000002   -1    0    0    0    0 -0.00000000000E+00 -0.00000000000E+00  0.00000000000E+00  0.93800000000E+00  0.93800000000E+00 0. -1.
         11    1    1    2    0    0  0.79494452329E-01 -0.56712091009E-02  0.96204938965E+00  0.96534492271E+00  0.51100000000E-03 0.  1.
    9000002    1    1    2    0    0 -0.35906461265E+00  0.43091148892E-01  0.87883362897E-01  0.10091341480E+01  0.93800000000E+00 0. -1.
         22    1    1    2    0    0  0.27957016032E+00 -0.37419939791E-01  0.29500672148E+01  0.29635209293E+01  0.00000000000E+00 0.  1.
</event>
<event>
 5    1  0.6440325E+001  0.1598235E+01  0.7818608E-02  0.3355282E+00
         11   -1    0    0    0    0  0.00000000000E+00  0.00000000000E+00  0.39999999674E+01  0.40000000000E+01  0.51100000000E-03 0. -1.
    9000002   -1    0    0    0    0 -0.00000000000E+00 -0.00000000000E+00  0.00000000000E+00  0.93800000000E+00  0.93800000000E+00 0.  1.
         11    1    1    2    0    0  0.47203356657E-01  0.25813555554E-01  0.59867015519E+00  0.60108294966E+00  0.51100000000E-03 0. -1.
    9000002    1    1    2    0    0 -0.16932950245E+00 -0.33249162067E+00  0.94777167962E-01  0.10139279411E+01  0.93800000000E+00 0.  1.
         22    1    1    2    0    0  0.12212614579E+00  0.30667806512E+00  0.33065526442E+01  0.33229891092E+01  0.00000000000E+00 0. -1.
</event>
<event>
 5    1  0.6440325E+001  0.1597905E+01  0.7818608E-02  0.3355640E+00
         11   -1    0    0    0    0  0.00000000000E+00  0.00000000000E+00  0.39999999674E+01  0.40000000000E+01  0.51100000000E-03 0.  1.
    9000002   -1    0    0    0    0 -0.00000000000E+00 -0.00000000000E+00  0.00000000000E+00  0.93800000000E+00  0.93800000000E+00 0. -1.
         11    1    1    2    0    0  0.68314321772E-01  0.65762022040E-01  0.57184044536E+00  0.57964924409E+00  0.51100000000E-03 0.  1.
    9000002    1    1    2    0    0 -0.21574421236E+00 -0.46661643912E+00  0.18296561109E+00  0.10851713603E+01  0.93800000000E+00 0. -1.
         22    1    1    2    0    0  0.14742989059E+00  0.40085441708E+00  0.32451939109E+01  0.32731793956E+01  0.00000000000E+00 0.  1.
</event>
<event>
 5    1  0.6440325E+001  0.1599612E+01  0.7818608E-02  0.3353785E+00
         11   -1    0    0    0    0  0.00000000000E+00  0.00000000000E+00  0.39999999674E+01  0.40000000000E+01  0.51100000000E-03 0.  1.
    9000002   -1    0    0    0    0 -0.00000000000E+00 -0.00000000000E+00  0.00000000000E+00  0.93800000000E+00  0.93800000000E+00 0. -1.
         11    1    1    2    0    0 -0.65315862282E-02  0.52611831695E-01  0.62597946243E+00  0.62822067377E+00  0.51100000000E-03 0.  1.
    9000002    1    1    2    0    0  0.60542885940E-01 -0.36826766930E+00  0.93694637737E-01  0.10138585712E+01  0.93800000000E+00 0. -1.
         22    1    1    2    0    0 -0.54011299712E-01  0.31565583761E+00  0.32803258672E+01  0.32959207550E+01  0.00000000000E+00 0.  1.
</event>
<event>
 5    1  0.6440325E+001  0.1599656E+01  0.7818608E-02  0.3353736E+00
         11   -1    0    0    0    0  0.00000000000E+00  0.00000000000E+00  0.39999999674E+01  0.40000000000E+01  0.51100000000E-03 0.  1.
    9000002   -1    0    0    0    0 -0.00000000000E+00 -0.00000000000E+00  0.00000000000E+00  0.93800000000E+00  0.93800000000E+00 0. -1.
         11    1    1    2    0    0  0.70642634392E-01 -0.44197207579E-01  0.66850736205E+00  0.67368102926E+00  0.51100000000E-03 0.  1.
    9000002    1    1    2    0    0 -0.41595616216E+00  0.23246316411E+00  0.15485866015E+00  0.10634302310E+01  0.93800000000E+00 0. -1.
         22    1    1    2    0    0  0.34531352777E+00 -0.18826595653E+00  0.31766339452E+01  0.32008887398E+01  0.00000000000E+00 0.  1.
</event>
<event>
 5    1  0.6440325E+001  0.1599601E+01  0.7818608E-02  0.3353796E+00
         11   -1    0    0    0    0  0.00000000000E+00  0.00000000000E+00  0.39999999674E+01  0.40000000000E+01  0.51100000000E-03 0.  1.
    9000002   -1    0    0    0    0 -0.00000000000E+00 -0.00000000000E+00  0.00000000000E+00  0.93800000000E+00  0.93800000000E+00 0.  1.
         11    1    1    2    0    0  0.46675388958E-02 -0.93840230432E-02  0.13156924501E+00  0.13198701892E+00  0.51100000000E-03 0. -1.
    9000002    1    1    2    0    0 -0.23629500811E+00  0.32979956049E+00  0.11117354641E+00  0.10280110108E+01  0.93800000000E+00 0.  1.
         22    1    1    2    0    0  0.23162746922E+00 -0.32041553745E+00  0.37572571759E+01  0.37780019703E+01  0.00000000000E+00 0.  1.
</event>
<event>
 5    1  0.6440325E+001  0.1599674E+01  0.7818608E-02  0.3353717E+00
         11   -1    0    0    0    0  0.00000000000E+00  0.00000000000E+00  0.39999999674E+01  0.40000000000E+01  0.51100000000E-03 0.  1.
    9000002   -1    0    0    0    0 -0.00000000000E+00 -0.00000000000E+00  0.00000000000E+00  0.93800000000E+00  0.93800000000E+00 0.  1.
         11    1    1    2    0    0  0.18296272672E-01 -0.82927881234E-01  0.94495943232E+00  0.94876782035E+00  0.51100000000E-03 0.  1.
    9000002    1    1    2    0    0 -0.79589795031E-01  0.34930619021E+00  0.86141224097E-01  0.10077765925E+01  0.93800000000E+00 0.  1.
         22    1    1    2    0    0  0.61293522360E-01 -0.26637830897E+00  0.29688993109E+01  0.29814555871E+01  0.00000000000E+00 0.  1.
</event>
<event>
 5    1  0.6440325E+001  0.1590923E+01  0.7818608E-02  0.3363274E+00
         11   -1    0    0    0    0  0.00000000000E+00  0.00000000000E+00  0.39999999674E+01  0.40000000000E+01  0.51100000000E-03 0. -1.
    9000002   -1    0    0    0    0 -0.00000000000E+00 -0.00000000000E+00  0.00000000000E+00  0.93800000000E+00  0.93800000000E+00 0.  1.
         11    1    1    2    0    0 -0.15619382847E-01  0.16892585809E-01  0.12363444103E+01  0.12365585658E+01  0.51100000000E-03 0. -1.
    9000002    1    1    2    0    0  0.27287408815E+00  0.19237637657E+00  0.81625592610E-01  0.99898732505E+00  0.93800000000E+00 0.  1.
         22    1    1    2    0    0 -0.25725470530E+00 -0.20926896238E+00  0.26820299645E+01  0.27024541092E+01  0.00000000000E+00 0. -1.
</event>
<event>
 5    1  0.6440325E+001  0.1599676E+01  0.7818608E-02  0.3353715E+00
         11   -1    0    0    0    0  0.00000000000E+00  0.00000000000E+00  0.39999999674E+01  0.40000000000E+01  0.51100000000E-03 0. -1.
    9000002   -1    0    0    0    0 -0.00000000000E+00 -0.00000000000E+00  0.00000000000E+00  0.93800000000E+00  0.93800000000E+00 0.  1.
         11    1    1    2    0    0 -0.37046363139E-01  0.37761564986E-01  0.57495247881E+00  0.57738114173E+00  0.51100000000E-03 0. -1.
    9000002    1    1    2    0    0  0.25531644314E+00 -0.25219587231E+00  0.86441214315E-01  0.10080204996E+01  0.93800000000E+00 0.  1.
         22    1    1    2    0    0 -0.21827008000E+00  0.21443430732E+00  0.33386062742E+01  0.33525983586E+01  0.00000000000E+00 0. -1.
</event>
<event>
 5    1  0.6440325E+001  0.1599670E+01  0.7818608E-02  0.3353721E+00
         11   -1    0    0    0    0  0.00000000000E+00  0.00000000000E+00  0.39999999674E+01  0.40000000000E+01  0.51100000000E-03 0.  1.
    9000002   -1    0    0    0    0 -0.00000000000E+00 -0.00000000000E+00  0.00000000000E+00  0.93800000000E+00  0.93800000000E+00 0.  1.
         11    1    1    2    0    0 -0.66170372049E-01  0.27292723778E-01  0.62110137844E+00  0.62521243936E+00  0.51100000000E-03 0.  1.
    9000002    1    1    2    0    0  0.41861688210E+00 -0.15779957227E+00  0.13588557663E+00  0.10480695058E+01  0.93800000000E+00 0.  1.
         22    1    1    2    0    0 -0.35244651005E+00  0.13050684849E+00  0.32430130123E+01  0.32647180549E+01  0.00000000000E+00 0.  1.
</event>
<event>
 5    1  0.6440325E+001  0.1599588E+01  0.7818608E-02  0.3353810E+00
         11   -1    0    0    0    0  0.00000000000E+00  0.00000000000E+00  0.39999999674E+01  0.40000000000E+01  0.51100000000E-03 0. -1.
    9000002   -1    0    0    0    0 -0.00000000000E+00 -0.00000000000E+00  0.00000000000E+00  0.93800000000E+00  0.93800000000E+00 0. -1.
         11    1    1    2    0    0  0.10908922184E+00 -0.23454834009E-01  0.65811529504E+00  0.66750774545E+00  0.51100000000E-03 0. -1.
    9000002    1    1    2    0    0 -0.57438971669E+00  0.14612624148E+00  0.24479298040E+00  0.11362411841E+01  0.93800000000E+00 0. -1.
         22    1    1    2    0    0  0.46530049484E+00 -0.12267140747E+00  0.30970916919E+01  0.31342510705E+01  0.00000000000E+00 0. -1.
</event>
<event>
 5    1  0.6440325E+001  0.1598748E+01  0.7818608E-02  0.3354723E+00
         11   -1    0    0    0    0  0.00000000000E+00  0.00000000000E+00  0.39999999674E+01  0.40000000000E+01  0.51100000000E-03 0. -1.
    9000002   -1    0    0    0    0 -0.00000000000E+00 -0.00000000000E+00  0.00000000000E+00  0.93800000000E+00  0.93800000000E+00 0.  1.
         11    1    1    2    0    0  0.53441002803E-01  0.15251897353E-01  0.59922164522E+00  0.60179348815E+00  0.51100000000E-03 0. -1.
    9000002    1    1    2    0    0 -0.26486730630E+00 -0.25011592749E+00  0.89883648981E-01  0.10102651818E+01  0.93800000000E+00 0.  1.
         22    1    1    2    0    0  0.21142630349E+00  0.23486403013E+00  0.33108946732E+01  0.33259413301E+01  0.00000000000E+00 0. -1.
</event>
<event>
 5    1  0.6440325E+001  0.1599519E+01  0.7818608E-02  0.3353886E+00
         11   -1    0    0    0    0  0.00000000000E+00  0.00000000000E+00  0.39999999674E+01  0.40000000000E+01  0.51100000000E-03 0. -1.
    9000002   -1    0    0    0    0 -0.00000000000E+00 -0.00000000000E+00  0.00000000000E+00  0.93800000000E+00  0.93800000000E+00 0. -1.
         11    1    1    2    0    0  0.46914147173E-01  0.16553189351E+00  0.11011263656E+01  0.11144870027E+01  0.51100000000E-03 0. -1.
    9000002    1    1    2    0    0 -0.14792654312E+00 -0.52464829912E+00  0.20519255287E+00  0.11041223137E+01  0.93800000000E+00 0. -1.
         22    1    1    2    0    0  0.10101239595E+00  0.35911640561E+00  0.26936810489E+01  0.27193906836E+01  0.00000000000E+00 0. -1.
</event>
<event>
 5    1  0.6440325E+001  0.1596095E+01  0.7818608E-02  0.3357612E+00
         11   -1    0    0    0    0  0.00000000000E+00  0.00000000000E+00  0.39999999674E+01  0.40000000000E+01  0.51100000000E-03 0.  1.
    9000002   -1    0    0    0    0 -0.00000000000E+00 -0.00000000000E+00  0.00000000000E+00  0.93800000000E+00  0.93800000000E+00 0. -1.
         11    1    1    2    0    0  0.91563208233E-01  0.17211666686E+00  0.10678322568E+01  0.10854832831E+01  0.51100000000E-03 0.  1.
    9000002    1    1    2    0    0 -0.26986820311E+00 -0.39272149659E+00  0.15800847895E+00  0.10638936509E+01  0.93800000000E+00 0. -1.
         22    1    1    2    0    0  0.17830499487E+00  0.22060482973E+00  0.27741592316E+01  0.27886230660E+01  0.00000000000E+00 0.  1.
</event>
<event>
 5    1  0.6440325E+001  0.1598296E+01  0.7818608E-02  0.3355215E+00
         11   -1    0    0    0    0  0.00000000000E+00  0.00000000000E+00  0.39999999674E+01  0.40000000000E+01  0.51100000000E-03 0.  1.
    9000002   -1    0    0    0    0 -0.00000000000E+00 -0.00000000000E+00  0.00000000000E+00  0.93800000000E+00  0.93800000000E+00 0.  1.
         11    1    1    2    0    0 -0.71258984338E-01 -0.70263482284E-01  0.51109688287E+00  0.52080234695E+00  0.51100000000E-03 0.  1.
    9000002    1    1    2    0    0  0.38528361686E+00  0.34677888171E+00  0.18578650550E+00  0.10876854710E+01  0.93800000000E+00 0.  1.
         22    1    1    2    0    0 -0.31402463252E+00 -0.27651539942E+00  0.33031165790E+01  0.33295121820E+01  0.00000000000E+00 0.  1.
</event>
<event>
 5    1  0.6440325E+001  0.1599420E+01  0.7818608E-02  0.3353993E+00
         11   -1    0    0    0    0  0.00000000000E+00  0.00000000000E+00  0.39999999674E+01  0.40000000000E+01  0.51100000000E-03 0.  1.
    9000002   -1    0    0    0    0 -0.00000000000E+00 -0.00000000000E+00  0.00000000000E+00  0.93800000000E+00  0.93800000000E+00 0. -1.
         11    1    1    2    0    0  0.27489173862E-01 -0.98357602927E-01  0.91179614354E+00  0.91749786988E+00  0.51100000000E-03 0.  1.
    9000002    1    1    2    0    0 -0.74192148996E-01  0.36637784891E+00  0.94160819228E-01  0.10141239880E+01  0.93800000000E+00 0. -1.
         22    1    1    2    0    0  0.46702975134E-01 -0.26802024598E+00  0.29940430046E+01  0.30063781421E+01  0.00000000000E+00 0.  1.
</event>
<event>
 5    1  0.6440325E+001  0.1599368E+01  0.7818608E-02  0.3354050E+00
         11   -1    0    0    0    0  0.00000000000E+00  0.00000000000E+00  0.39999999674E+01  0.40000000000E+01  0.51100000000E-03 0.  1.
    9000002   -1    0    0    0    0 -0.00000000000E+00 -0.00000000000E+00  0.00000000000E+00  0.93800000000E+00  0.93800000000E+00 0.  1.
         11    1    1    2    0    0 -0.14278657011E+00 -0.14033878299E+00  0.13687255450E+01  0.13832905903E+01  0.51100000000E-03 0.  1.
    9000002    1    1    2    0    0  0.34153490358E+00  0.38656729427E+00  0.18292382117E+00  0.10859951601E+01  0.93800000000E+00 0.  1.
         22    1    1    2    0    0 -0.19874833347E+00 -0.24622851128E+00  0.24483506012E+01  0.24687142496E+01  0.00000000000E+00 0.  1.
</event>
<event>
 5    1  0.6440325E+001  0.1577620E+01  0.7818608E-02  0.3378018E+00
         11   -1    0    0    0    0  0.00000000000E+00  0.00000000000E+00  0.39999999674E+01  0.40000000000E+01  0.51100000000E-03 0.  1.
    9000002   -1    0    0    0    0 -0.00000000000E+00 -0.00000000000E+00  0.00000000000E+00  0.93800000000E+00  0.93800000000E+00 0. -1.
         11    1    1    2    0    0  0.67173437738E-01  0.88223887027E-01  0.12265215702E+01  0.12315239130E+01  0.51100000000E-03 0.  1.
    9000002    1    1    2    0    0 -0.19705265236E-01  0.21088661108E+00  0.46508109334E-01  0.96274008146E+00  0.93800000000E+00 0. -1.
         22    1    1    2    0    0 -0.47468172502E-01 -0.29911049811E+00  0.27269702878E+01  0.27437360055E+01  0.00000000000E+00 0.  1.
</event>
<event>
 5    1  0.6440325E+001  0.1599674E+01  0.7818608E-02  0.3353717E+00
         11   -1    0    0    0    0  0.00000000000E+00  0.00000000000E+00  0.39999999674E+01  0.40000000000E+01  0.51100000000E-03 0.  1.
    9000002   -1    0    0    0    0 -0.00000000000E+00 -0.00000000000E+00  0.00000000000E+00  0.93800000000E+00  0.93800000000E+00 0.  1.
         11    1    1    2    0    0 -0.51072241368E-01 -0.88545059502E-01  0.87457031151E+00  0.88052376021E+00  0.51100000000E-03 0.  1.
    9000002    1    1    2    0    0  0.23318773120E+00  0.39057037368E+00  0.14064269381E+00  0.10519249508E+01  0.93800000000E+00 0.  1.
         22    1    1    2    0    0 -0.18211548983E+00 -0.30202531418E+00  0.29847869620E+01  0.30055512890E+01  0.00000000000E+00 0.  1.
</event>
<event>
 5    1  0.6440325E+001  0.1599677E+01  0.7818608E-02  0.3353714E+00
         11   -1    0    0    0    0  0.00000000000E+00  0.00000000000E+00  0.39999999674E+01  0.40000000000E+01  0.51100000000E-03 0. -1.
    9000002   -1    0    0    0    0 -0.00000000000E+00 -0.00000000000E+00  0.00000000000E+00  0.93800000000E+00  0.93800000000E+00 0. -1.
         11    1    1    2    0    0 -0.10719262447E+00  0.20729571154E-01  0.96740506935E+00  0.97354650797E+00  0.51100000000E-03 0. -1.
    9000002    1    1    2    0    0  0.42705189753E+00 -0.82127256386E-01  0.12816596500E+00  0.10418199096E+01  0.93800000000E+00 0. -1.
         22    1    1    2    0    0 -0.31985927307E+00  0.61397685233E-01  0.29044289330E+01  0.29226335824E+01  0.00000000000E+00 0. -1.
</event>
<event>
 5    1  0.6440325E+001  0.1599659E+01  0.7818608E-02  0.3353733E+00
         11   -1    0    0    0    0  0.00000000000E+00  0.00000000000E+00  0.39999999674E+01  0.40000000000E+01  0.51100000000E-03 0.  1.
    9000002   -1    0    0    0    0 -0.00000000000E+00 -0.00000000000E+00  0.00000000000E+00  0.93800000000E+00  0.93800000000E+00 0.  1.
         11    1    1    2    0    0  0.48151787215E-01 -0.37577810510E-01  0.62537622371E+00  0.62835210571E+00  0.51100000000E-03 0.  1.
    9000002    1    1    2    0    0 -0.28453027529E+00  0.25134774230E+00  0.96989161397E-01  0.10165549973E+01  0.93800000000E+00 0.  1.
         22    1    1    2    0    0  0.23637848808E+00 -0.21376993179E+00  0.32776345823E+01  0.32930928970E+01  0.00000000000E+00 0. -1.
</event>
<event>
 5    1  0.6440325E+001  0.1510601E+01  0.7818608E-02  0.3456501E+00
         11   -1    0    0    0    0  0.00000000000E+00  0.00000000000E+00  0.39999999674E+01  0.40000000000E+01  0.51100000000E-03 0. -1.
    9000002   -1    0    0    0    0 -0.00000000000E+00 -0.00000000000E+00  0.00000000000E+00  0.93800000000E+00  0.93800000000E+00 0. -1.
         11    1    1    2    0    0 -0.38939341692E+00  0.14536280149E+00  0.10184554854E+01  0.11000042791E+01  0.51100000000E-03 0. -1.
    9000002    1    1    2    0    0 -0.16593925166E+00  0.36187465754E+00  0.31373201607E+00  0.10661898897E+01  0.93800000000E+00 0. -1.
         22    1    1    2    0    0  0.55533266858E+00 -0.50723745902E+00  0.26678124658E+01  0.27718058311E+01  0.00000000000E+00 0. -1.
</event>
<event>
 5    1  0.6440325E+001  0.1599677E+01  0.7818608E-02  0.3353714E+00
         11   -1    0    0    0    0  0.00000000000E+00  0.00000000000E+00  0.39999999674E+01  0.40000000000E+01  0.51100000000E-03 0.  1.
    9000002   -1    0    0    0    0 -0.00000000000E+00 -0.00000000000E+00  0.00000000000E+00  0.93800000000E+00  0.93800000000E+00 0.  1.
         11    1    1    2    0    0  0.10524444587E+00 -0.15373970764E+00  0.13897157512E+01  0.14021492151E+01  0.51100000000E-03 0.  1.
    9000002    1    1    2    0    0 -0.29083250534E+00  0.42194442179E+00  0.18016139265E+00  0.10839385447E+01  0.93800000000E+00 0.  1.
         22    1    1    2    0    0  0.18558805947E+00 -0.26820471415E+00  0.24301228235E+01  0.24519122402E+01  0.00000000000E+00 0.  1.
</event>
<event>
 5    1  0.9410706E+001  0.1578608E+01  0.7818608E-02  0.3376914E+00
         11   -1    0    0    0    0  0.00000000000E+00  0.00000000000E+00  0.39999999674E+01  0.40000000000E+01  0.51100000000E-03 0. -1.
    9000002   -1    0    0    0    0 -0.00000000000E+00 -0.00000000000E+00  0.00000000000E+00  0.93800000000E+00  0.93800000000E+00 0. -1.
         11    1    1    2    0    0  0.73198957232E-01  0.92631681069E-01  0.14823400009E+01  0.14870342481E+01  0.51100000000E-03 0. -1.
    9000002    1    1    2    0    0  0.26615675307E-01  0.14587797483E+00  0.30225261417E-01  0.95012964596E+00  0.93800000000E+00 0. -1.
         22    1    1    2    0    0 -0.99814632539E-01 -0.23850965590E+00  0.24874347050E+01  0.25008361059E+01  0.00000000000E+00 0. -1.
</event>
<event>
 5    1  0.6440325E+001  0.1599655E+01  0.7818608E-02  0.3353737E+00
         11   -1    0    0    0    0  0.00000000000E+00  0.00000000000E+00  0.39999999674E+01  0.40000000000E+01  0.51100000000E-03 0.  1.
    9000002   -1    0    0    0    0 -0.00000000000E+00 -0.00000000000E+00  0.00000000000E+00  0.93800000000E+00  0.93800000000E+00 0.  1.
         11    1    1    2    0    0 -0.10792814622E-01  0.40024271898E-01  0.24088011664E+00  0.24442160072E+00  0.51100000000E-03 0.  1.
    9000002    1    1    2    0    0  0.19172386683E+00 -0.64401600280E+00  0.32035947383E+00  0.11974927329E+01  0.93800000000E+00 0.  1.
         22    1    1    2    0    0 -0.18093105221E+00  0.60399173090E+00  0.34387603769E+01  0.34960856663E+01  0.00000000000E+00 0.  1.
</event>
<event>
 5    1  0.6440325E+001  0.1599593E+01  0.7818608E-02  0.3353806E+00
         11   -1    0    0    0    0  0.00000000000E+00  0.00000000000E+00  0.39999999674E+01  0.40000000000E+01  0.51100000000E-03 0.  1.
    9000002   -1    0    0    0    0 -0.00000000000E+00 -0.00000000000E+00  0.00000000000E+00  0.93800000000E+00  0.93800000000E+00 0. -1.
         11    1    1    2    0    0  0.52532805062E-01 -0.17864268509E+00  0.13609950924E+01  0.13736741998E+01  0.51100000000E-03 0.  1.
    9000002    1    1    2    0    0 -0.11810214215E+00  0.49696781885E+00  0.17902336202E+00  0.10829674478E+01  0.93800000000E+00 0. -1.
         22    1    1    2    0    0  0.65569337084E-01 -0.31832513377E+00  0.24599815130E+01  0.24813583524E+01  0.00000000000E+00 0.  1.
</event>
<event>
 5    1  0.6440325E+001  0.1597371E+01  0.7818608E-02  0.3356221E+00
         11   -1    0    0    0    0  0.00000000000E+00  0.00000000000E+00  0.39999999674E+01  0.40000000000E+01  0.51100000000E-03 0. -1.
    9000002   -1    0    0    0    0 -0.00000000000E+00 -0.00000000000E+00  0.00000000000E+00  0.93800000000E+00  0.93800000000E+00 0.  1.
         11    1    1    2    0    0 -0.53519304082E-01 -0.31798463911E-01  0.82560804219E+00  0.82795190601E+00  0.51100000000E-03 0. -1.
    9000002    1    1    2    0    0  0.33688766977E+00  0.35114839207E+00  0.16379942940E+00  0.10693328520E+01  0.93800000000E+00 0.  1.
         22    1    1    2    0    0 -0.28336836569E+00 -0.31934992816E+00  0.30105924958E+01  0.30407152420E+01  0.00000000000E+00 0. -1.
</event>
<event>
 5    1  0.6440325E+001  0.1599676E+01  0.7818608E-02  0.3353715E+00
         11   -1    0    0    0    0  0.00000000000E+00  0.00000000000E+00  0.39999999674E+01  0.40000000000E+01  0.51100000000E-03 0. -1.
    9000002   -1    0    0    0    0 -0.00000000000E+00 -0.00000000000E+00  0.00000000000E+00  0.93800000000E+00  0.93800000000E+00 0. -1.
         11    1    1    2    0    0 -0.44917694949E-01 -0.47978220218E-01  0.61037312544E+00  0.61390155751E+00  0.51100000000E-03 0. -1.
    9000002    1    1    2    0    0  0.28654289195E+00  0.30931155968E+00  0.12026125311E+00  0.10354164567E+01  0.93800000000E+00 0. -1.
         22    1    1    2    0    0 -0.24162519700E+00 -0.26133333946E+00  0.32693655888E+01  0.32886819858E+01  0.00000000000E+00 0. -1.
</event>
<event>
 5    1  0.6440325E+001  0.1452363E+01  0.7818608E-02  0.3531042E+00
         11   -1    0    0    0    0  0.00000000000E+00  0.00000000000E+00  0.39999999674E+01  0.40000000000E+01  0.51100000000E-03 0.  1.
    9000002   -1    0    0    0    0 -0.00000000000E+00 -0.00000000000E+00  0.00000000000E+00  0.93800000000E+00  0.93800000000E+00 0. -1.
         11    1    1    2    0    0 -0.11066265098E+00  0.34847150870E+00  0.73170755348E+00  0.81796993810E+00  0.51100000000E-03 0.  1.
    9000002    1    1    2    0    0 -0.16395384841E+00  0.14443530934E-01  0.14446595166E+00  0.96322577373E+00  0.93800000000E+00 0. -1.
         22    1    1    2    0    0  0.27461649939E+00 -0.36291503963E+00  0.31238264622E+01  0.31568042882E+01  0.00000000000E+00 0.  1.
</event>
<event>
 5    1  0.6440325E+001  0.1599664E+01  0.7818608E-02  0.3353728E+00
         11   -1    0    0    0    0  0.00000000000E+00  0.00000000000E+00  0.39999999674E+01  0.40000000000E+01  0.51100000000E-03 0. -1.
    9000002   -1    0    0    0    0 -0.00000000000E+00 -0.00000000000E+00  0.00000000000E+00  0.93800000000E+00  0.93800000000E+00 0.  1.
         11    1    1    2    0    0  0.79727160834E-01  0.11143586936E+00  0.11785554499E+01  0.11864938191E+01  0.51100000000E-03 0. -1.
    9000002    1    1    2    0    0 -0.27282578236E+00 -0.36999106939E+00  0.14374966460E+00  0.10544359938E+01  0.93800000000E+00 0.  1.
         22    1    1    2    0    0  0.19309862153E+00  0.25855520004E+00  0.26776948529E+01  0.26970701871E+01  0.00000000000E+00 0.  1.
</event>
<event>
 5    1  0.6440325E+001  0.1599677E+01  0.7818608E-02  0.3353714E+00
         11   -1    0    0    0    0  0.00000000000E+00  0.00000000000E+00  0.39999999674E+01  0.40000000000E+01  0.51100000000E-03 0.  1.
    9000002   -1    0    0    0    0 -0.00000000000E+00 -0.00000000000E+00  0.00000000000E+00  0.93800000000E+00  0.93800000000E+00 0.  1.
         11    1    1    2    0    0 -0.13681346323E+00  0.18051229765E-01  0.13148700507E+01  0.13220920096E+01  0.51100000000E-03 0.  1.
    9000002    1    1    2    0    0  0.40634552389E+00 -0.53053998709E-01  0.11341791018E+00  0.10298733096E+01  0.93800000000E+00 0.  1.
         22    1    1    2    0    0 -0.26953206067E+00  0.35002768944E-01  0.25717120065E+01  0.25860346807E+01  0.00000000000E+00 0. -1.
</event>
<event>
 5    1  0.6440325E+001  0.1588197E+01  0.7818608E-02  0.3366274E+00
         11   -1    0    0    0    0  0.00000000000E+00  0.00000000000E+00  0.39999999674E+01  0.40000000000E+01  0.51100000000E-03 0.  1.
    9000002   -1    0    0    0    0 -0.00000000000E+00 -0.00000000000E+00  0.00000000000E+00  0.93800000000E+00  0.93800000000E+00 0. -1.
         11    1    1    2    0    0  0.38994553866E-01  0.47659132326E-01  0.14748876498E+01  0.14761726893E+01  0.51100000000E-03 0.  1.
    9000002    1    1    2    0    0  0.47993355344E-01 -0.41858131898E+00  0.12983887726E+00  0.10364438320E+01  0.93800000000E+00 0. -1.
         22    1    1    2    0    0 -0.86987909210E-01  0.37092218665E+00  0.23952734403E+01  0.24253834787E+01  0.00000000000E+00 0.  1.
</event>
<event>
 5    1  0.6440325E+001  0.1599023E+01  0.7818608E-02  0.3354425E+00
         11   -1    0    0    0    0  0.00000000000E+00  0.00000000000E+00  0.39999999674E+01  0.40000000000E+01  0.51100000000E-03 0. -1.
    9000002   -1    0    0    0    0 -0.00000000000E+00 -0.00000000000E+00  0.00000000000E+00  0.93800000000E+00  0.93800000000E+00 0.  1.
         11    1    1    2    0    0  0.24087367097E-01 -0.64901475673E-01  0.52754149863E+00  0.53206456065E+00  0.51100000000E-03 0. -1.
    9000002    1    1    2    0    0 -0.32328987395E+00  0.43488887828E+00  0.20312450227E+00  0.11021561788E+01  0.93800000000E+00 0.  1.
         22    1    1    2    0    0  0.29920250685E+00 -0.36998740261E+00  0.32693339665E+01  0.33037792605E+01  0.00000000000E+00 0. -1.
</event>
<event>
 5    1  0.6440325E+001  0.1599677E+01  0.7818608E-02  0.3353714E+00
         11   -1    0    0    0    0  0.00000000000E+00  0.00000000000E+00  0.39999999674E+01  0.40000000000E+01  0.51100000000E-03 0. -1.
    9000002   -1    0    0    0    0 -0.00000000000E+00 -0.00000000000E+00  0.00000000000E+00  0.93800000000E+00  0.93800000000E+00 0. -1.
         11    1    1    2    0    0  0.21239135325E+00  0.11245499756E+00  0.14462103292E+01  0.14660425611E+01  0.51100000000E-03 0.  1.
    9000002    1    1    2    0    0 -0.54847206975E+00 -0.28980783658E+00  0.26967891480E+00  0.11564518626E+01  0.93800000000E+00 0. -1.
         22    1    1    2    0    0  0.33608071650E+00  0.17735283902E+00  0.22841107233E+01  0.23155055763E+01  0.00000000000E+00 0. -1.
</event>
<event>
 5    1  0.6440325E+001  0.1584504E+01  0.7818608E-02  0.3370355E+00
         11   -1    0    0    0    0  0.00000000000E+00  0.00000000000E+00  0.39999999674E+01  0.40000000000E+01  0.51100000000E-03 0.  1.
    9000002   -1    0    0    0    0 -0.00000000000E+00 -0.00000000000E+00  0.00000000000E+00  0.93800000000E+00  0.93800000000E+00 0. -1.
         11    1    1    2    0    0 -0.82178810814E-01  0.11633023692E+00  0.81338370081E+00  0.82575988449E+00  0.51100000000E-03 0.  1.
    9000002    1    1    2    0    0 -0.14688075007E+00 -0.35204931528E+00  0.11049590611E+00  0.10186098470E+01  0.93800000000E+00 0. -1.
         22    1    1    2    0    0  0.22905956088E+00  0.23571907836E+00  0.30761203604E+01  0.30936302685E+01  0.00000000000E+00 0.  1.
</event>
<event>
 5    1  0.6440325E+001  0.1599659E+01  0.7818608E-02  0.3353734E+00
         11   -1    0    0    0    0  0.00000000000E+00  0.00000000000E+00  0.39999999674E+01  0.40000000000E+01  0.51100000000E-03 0.  1.
    9000002   -1    0    0    0    0 -0.00000000000E+00 -0.00000000000E+00  0.00000000000E+00  0.93800000000E+00  0.93800000000E+00 0. -1.
         11    1    1    2    0    0 -0.30544455799E-01  0.13588978711E+00  0.10426020688E+01  0.10518642180E+01  0.51100000000E-03 0.  1.
    9000002    1    1    2    0    0  0.10021646346E+00 -0.50930822601E+00  0.18506809406E+00  0.10879027567E+01  0.93800000000E+00 0. -1.
         22    1    1    2    0    0 -0.69672007656E-01  0.37341843889E+00  0.27723298045E+01  0.27982330253E+01  0.00000000000E+00 0.  1.
</event>
<event>
 5    1  0.6440325E+001  0.1599669E+01  0.7818608E-02  0.3353723E+00
         11   -1    0    0    0    0  0.00000000000E+00  0.00000000000E+00  0.39999999674E+01  0.40000000000E+01  0.51100000000E-03 0. -1.
    9000002   -1    0    0    0    0 -0.00000000000E+00 -0.00000000000E+00  0.00000000000E+00  0.93800000000E+00  0.93800000000E+00 0. -1.
         11    1    1    2    0    0 -0.11302198452E+00  0.15204781310E+00  0.90553748682E+00  0.92514372268E+00  0.51100000000E-03 0. -1.
    9000002    1    1    2    0    0  0.44477882149E+00 -0.61319305815E+00  0.41695345273E+00  0.12757460987E+01  0.93800000000E+00 0. -1.
         22    1    1    2    0    0 -0.33175683697E+00  0.46114524505E+00  0.26775090278E+01  0.27371101786E+01  0.00000000000E+00 0.  1.
</event>
<event>
 5    1  0.6440325E+001  0.1598028E+01  0.7818608E-02  0.3355507E+00
         11   -1    0    0    0    0  0.00000000000E+00  0.00000000000E+00  0.39999999674E+01  0.40000000000E+01  0.51100000000E-03 0. -1.
    9000002   -1    0    0    0    0 -0.00000000000E+00 -0.00000000000E+00  0.00000000000E+00  0.93800000000E+00  0.93800000000E+00 0. -1.
         11    1    1    2    0    0  0.10287608434E-01 -0.65851689415E-01  0.78611941309E+00  0.78893996771E+00  0.51100000000E-03 0. -1.
    9000002    1    1    2    0    0  0.14067677189E+00  0.35980083930E+00  0.10185744194E+00  0.10195418268E+01  0.93800000000E+00 0. -1.
         22    1    1    2    0    0 -0.15096438033E+00 -0.29394914989E+00  0.31120231123E+01  0.31295182055E+01  0.00000000000E+00 0. -1.
</event>
<event>
 5    1  0.6440325E+001  0.1599674E+01  0.7818608E-02  0.3353717E+00
         11   -1    0    0    0    0  0.00000000000E+00  0.00000000000E+00  0.39999999674E+01  0.40000000000E+01  0.51100000000E-03 0. -1.
    9000002   -1    0    0    0    0 -0.00000000000E+00 -0.00000000000E+00  0.00000000000E+00  0.93800000000E+00  0.93800000000E+00 0. -1.
         11    1    1    2    0    0 -0.29999176063E-02 -0.16380918062E+00  0.96962836937E+00  0.98337270807E+00  0.51100000000E-03 0. -1.
    9000002    1    1    2    0    0  0.11675569363E-01  0.63460102963E+00  0.28325381651E+00  0.11674465771E+01  0.93800000000E+00 0. -1.
         22    1    1    2    0    0 -0.86756517568E-02 -0.47079184902E+00  0.27471177815E+01  0.27871807149E+01  0.00000000000E+00 0. -1.
</event>
<event>
 5    1  0.6440325E+001  0.1599295E+01  0.7818608E-02  0.3354129E+00
         11   -1    0    0    0    0  0.00000000000E+00  0.00000000000E+00  0.39999999674E+01  0.40000000000E+01  0.51100000000E-03 0. -1.
    9000002   -1    0    0    0    0 -0.00000000000E+00 -0.00000000000E+00  0.00000000000E+00  0.93800000000E+00  0.93800000000E+00 0. -1.
         11    1    1    2    0    0  0.55613140279E-01  0.13112818432E+00  0.11292323244E+01  0.11381798301E+01  0.51100000000E-03 0. -1.
    9000002    1    1    2    0    0 -0.17205247870E+00 -0.37944669035E+00  0.11766247421E+00  0.10330877524E+01  0.93800000000E+00 0. -1.
         22    1    1    2    0    0  0.11643933842E+00  0.24831850603E+00  0.27531051688E+01  0.27667324176E+01  0.00000000000E+00 0. -1.
</event>
<event>
 5    1  0.6440325E+001  0.1565501E+01  0.7818608E-02  0.3391680E+00
         11   -1    0    0    0    0  0.00000000000E+00  0.00000000000E+00  0.39999999674E+01  0.40000000000E+01  0.51100000000E-03 0.  1.
    9000002   -1    0    0    0    0 -0.00000000000E+00 -0.00000000000E+00  0.00000000000E+00  0.93800000000E+00  0.93800000000E+00 0. -1.
         11    1    1    2    0    0 -0.73064047033E-01  0.14671428920E+00  0.11494088358E+01  0.11610359041E+01  0.51100000000E-03 0.  1.
    9000002    1    1    2    0    0 -0.11660727118E+00  0.84804894749E-01  0.39346157739E-01  0.94983221992E+00  0.93800000000E+00 0. -1.
         22    1    1    2    0    0  0.18967131821E+00 -0.23151918395E+00  0.28112449738E+01  0.28271318760E+01  0.00000000000E+00 0. -1.
</event>
<event>
 5    1  0.6440325E+001  0.1599671E+01  0.7818608E-02  0.3353721E+00
         11   -1    0    0    0    0  0.00000000000E+00  0.00000000000E+00  0.39999999674E+01  0.40000000000E+01  0.51100000000E-03 0.  1.
    9000002   -1    0    0    0    0 -0.00000000000E+00 -0.00000000000E+00  0.00000000000E+00  0.93800000000E+00  0.93800000000E+00 0.  1.
         11    1    1    2    0    0 -0.96905349367E-01 -0.23329458890E-01  0.96461091064E+00  0.96974707034E+00  0.51100000000E-03 0.  1.
    9000002    1    1    2    0    0  0.39691768056E+00  0.85823709636E-01  0.11132754304E+00  0.10281766269E+01  0.93800000000E+00 0.  1.
         22    1    1    2    0    0 -0.30001233119E+00 -0.62494250746E-01  0.29240615137E+01  0.29400763028E+01  0.00000000000E+00 0.  1.
</event>
<event>
 5    1  0.6440325E+001  0.1599672E+01  0.7818608E-02  0.3353719E+00
         11   -1    0    0    0    0  0.00000000000E+00  0.00000000000E+00  0.39999999674E+01  0.40000000000E+01  0.51100000000E-03 0. -1.
    9000002   -1    0    0    0    0 -0.00000000000E+00 -0.00000000000E+00  0.00000000000E+00  0.93800000000E+00  0.93800000000E+00 0. -1.
         11    1    1    2    0    0 -0.50682195644E-01  0.35474051069E-01  0.55125600413E+00  0.55471662717E+00  0.51100000000E-03 0. -1.
    9000002    1    1    2    0    0  0.35799885359E+00 -0.23654295937E+00  0.12467832610E+00  0.10389920287E+01  0.93800000000E+00 0. -1.
         22    1    1    2    0    0 -0.30731665794E+00  0.20106890830E+00  0.33240656371E+01  0.33442913441E+01  0.00000000000E+00 0. -1.
</event>
<event>
 5    1  0.6440325E+001  0.1598947E+01  0.7818608E-02  0.3354507E+00
         11   -1    0    0    0    0  0.00000000000E+00  0.00000000000E+00  0.39999999674E+01  0.40000000000E+01  0.51100000000E-03 0. -1.
    9000002   -1    0    0    0    0 -0.00000000000E+00 -0.00000000000E+00  0.00000000000E+00  0.93800000000E+00  0.93800000000E+00 0. -1.
         11    1    1    2    0    0  0.10630185392E+00  0.13217313148E+00  0.12182268730E+01  0.12299783722E+01  0.51100000000E-03 0. -1.
    9000002    1    1    2    0    0 -0.25119204102E+00 -0.37494079283E+00  0.13899307094E+00  0.10501624224E+01  0.93800000000E+00 0. -1.
         22    1    1    2    0    0  0.14489018711E+00  0.24276766135E+00  0.26427800234E+01  0.26578592054E+01  0.00000000000E+00 0. -1.
</event>
<event>
 5    1  0.6440325E+001  0.1599677E+01  0.7818608E-02  0.3353714E+00
         11   -1    0    0    0    0  0.00000000000E+00  0.00000000000E+00  0.39999999674E+01  0.40000000000E+01  0.51100000000E-03 0. -1.
    9000002   -1    0    0    0    0 -0.00000000000E+00 -0.00000000000E+00  0.00000000000E+00  0.93800000000E+00  0.93800000000E+00 0.  1.
         11    1    1    2    0    0 -0.88743464770E-01  0.10002190277E+00  0.10340154496E+01  0.10426255294E+01  0.51100000000E-03 0.  1.
    9000002    1    1    2    0    0  0.32729056292E+00 -0.37213463883E+00  0.16800563117E+00  0.10740917997E+01  0.93800000000E+00 0.  1.
         22    1    1    2    0    0 -0.23854709815E+00  0.27211273606E+00  0.27979788866E+01  0.28212826709E+01  0.00000000000E+00 0. -1.
</event>
<event>
 5    1  0.6684716E+001  0.1599675E+01  0.7818608E-02  0.3353716E+00
         11   -1    0    0    0    0  0.00000000000E+00  0.00000000000E+00  0.39999999674E+01  0.40000000000E+01  0.51100000000E-03 0. -1.
    9000002   -1    0    0    0    0 -0.00000000000E+00 -0.00000000000E+00  0.00000000000E+00  0.93800000000E+00  0.93800000000E+00 0. -1.
         11    1    1    2    0    0  0.12391900425E+00  0.30428674394E-01  0.13069530697E+01  0.13131673204E+01  0.51100000000E-03 0. -1.
    9000002    1    1    2    0    0 -0.37365671903E+00 -0.93862022412E-01  0.99935187686E-01  0.10189506684E+01  0.93800000000E+00 0. -1.
         22    1    1    2    0    0  0.24973771478E+00  0.63433348018E-01  0.25931117099E+01  0.26058820112E+01  0.00000000000E+00 0. -1.
</event>
<event>
 5    1  0.6440325E+001  0.1599640E+01  0.7818608E-02  0.3353755E+00
         11   -1    0    0    0    0  0.00000000000E+00  0.00000000000E+00  0.39999999674E+01  0.40000000000E+01  0.51100000000E-03 0. -1.
    9000002   -1    0    0    0    0 -0.00000000000E+00 -0.00000000000E+00  0.00000000000E+00  0.93800000000E+00  0.93800000000E+00 0. -1.
         11    1    1    2    0    0 -0.10602512823E+00 -0.44630032791E-01  0.91960919290E+00  0.92677640045E+00  0.51100000000E-03 0. -1.
    9000002    1    1    2    0    0  0.46669436571E+00  0.17842463716E+00  0.17091521306E+00  0.10764269563E+01  0.93800000000E+00 0. -1.
         22    1    1    2    0    0 -0.36066923748E+00 -0.13379460437E+00  0.29094755614E+01  0.29347966433E+01  0.00000000000E+00 0. -1.
</event>
<event>
 5    1  0.6440325E+001  0.1525921E+01  0.7818608E-02  0.3437912E+00
         11   -1    0    0    0    0  0.00000000000E+00  0.00000000000E+00  0.39999999674E+01  0.40000000000E+01  0.51100000000E-03 0.  1.
    9000002   -1    0    0    0    0 -0.00000000000E+00 -0.00000000000E+00  0.00000000000E+00  0.93800000000E+00  0.93800000000E+00 0.  1.
         11    1    1    2    0    0  0.47875926762E-01 -0.11539514149E+00  0.13632902194E+00  0.18491621451E+00  0.51100000000E-03 0.  1.
    9000002    1    1    2    0    0 -0.21469532689E+00 -0.19994624209E+00  0.11732306101E+00  0.98978850456E+00  0.93800000000E+00 0.  1.
         22    1    1    2    0    0  0.16681940013E+00  0.31534138358E+00  0.37463478844E+01  0.37632952809E+01  0.00000000000E+00 0.  1.
</event>
<event>
 5    1  0.6440325E+001  0.1596837E+01  0.7818608E-02  0.3356803E+00
         11   -1    0    0    0    0  0.00000000000E+00  0.00000000000E+00  0.39999999674E+01  0.40000000000E+01  0.51100000000E-03 0. -1.
    9000002   -1    0    0    0    0 -0.00000000000E+00 -0.00000000000E+00  0.00000000000E+00  0.93800000000E+00  0.93800000000E+00 0. -1.
         11    1    1    2    0    0 -0.48268891719E-01 -0.60438638418E-01  0.11756461824E+01  0.11781879825E+01  0.51100000000E-03 0. -1.
    9000002    1    1    2    0    0  0.30245747531E-01  0.34752616729E+00  0.83871763476E-01  0.10042747208E+01  0.93800000000E+00 0. -1.
         22    1    1    2    0    0  0.18023144189E-01 -0.28708752887E+00  0.27404820215E+01  0.27555372966E+01  0.00000000000E+00 0. -1.
</event>
<event>
 5    1  0.6440325E+001  0.1588682E+01  0.7818608E-02  0.3365740E+00
         11   -1    0    0    0    0  0.00000000000E+00  0.00000000000E+00  0.39999999674E+01  0.40000000000E+01  0.51100000000E-03 0. -1.
    9000002   -1    0    0    0    0 -0.00000000000E+00 -0.00000000000E+00  0.00000000000E+00  0.93800000000E+00  0.93800000000E+00 0.  1.
         11    1    1    2    0    0 -0.72060694154E-03 -0.98876750360E-01  0.39390687361E+00  0.40612807984E+00  0.51100000000E-03 0. -1.
    9000002    1    1    2    0    0 -0.28157062195E+00  0.27570035586E+00  0.11383636965E+00  0.10237653151E+01  0.93800000000E+00 0.  1.
         22    1    1    2    0    0  0.28229122889E+00 -0.17682360550E+00  0.34922567241E+01  0.35081066051E+01  0.00000000000E+00 0. -1.
</event>
<event>
 5    1  0.6440325E+001  0.1590284E+01  0.7818608E-02  0.3363977E+00
         11   -1    0    0    0    0  0.00000000000E+00  0.00000000000E+00  0.39999999674E+01  0.40000000000E+01  0.51100000000E-03 0.  1.
    9000002   -1    0    0    0    0 -0.00000000000E+00 -0.00000000000E+00  0.00000000000E+00  0.93800000000E+00  0.93800000000E+00 0.  1.
         11    1    1    2    0    0  0.13962147305E+00 -0.13230141585E+00  0.13067463594E+01  0.13208270626E+01  0.51100000000E-03 0.  1.
    9000002    1    1    2    0    0 -0.41082118098E+00  0.65138194955E-01  0.12489588611E+00  0.10336633928E+01  0.93800000000E+00 0.  1.
         22    1    1    2    0    0  0.27119970793E+00  0.67163220894E-01  0.25683577218E+01  0.25835095446E+01  0.00000000000E+00 0.  1.
</event>
<event>
 5    1  0.6440325E+001  0.1597617E+01  0.7818608E-02  0.3355954E+00
         11   -1    0    0    0    0  0.00000000000E+00  0.00000000000E+00  0.39999999674E+01  0.40000000000E+01  0.51100000000E-03 0. -1.
    9000002   -1    0    0    0    0 -0.00000000000E+00 -0.00000000000E+00  0.00000000000E+00  0.93800000000E+00  0.93800000000E+00 0. -1.
         11    1    1    2    0    0 -0.79038315346E-01  0.12049916362E-01  0.89095451653E+00  0.89453477709E+00  0.51100000000E-03 0. -1.
    9000002    1    1    2    0    0  0.32499089420E+00  0.14703620839E+00  0.87046345947E-01  0.10073032285E+01  0.93800000000E+00 0. -1.
         22    1    1    2    0    0 -0.24595257885E+00 -0.15908612475E+00  0.30219991049E+01  0.30361619944E+01  0.00000000000E+00 0. -1.
</event>
<event>
 5    1  0.6440325E+001  0.1599672E+01  0.7818608E-02  0.3353719E+00
         11   -1    0    0    0    0  0.00000000000E+00  0.00000000000E+00  0.39999999674E+01  0.40000000000E+01  0.51100000000E-03 0.  1.
    9000002   -1    0    0    0    0 -0.00000000000E+00 -0.00000000000E+00  0.00000000000E+00  0.93800000000E+00  0.93800000000E+00 0.  1.
         11    1    1    2    0    0  0.11461230114E+00  0.34417405841E-01  0.94075743053E+00  0.94833820002E+00  0.51100000000E-03 0.  1.
    9000002    1    1    2    0    0 -0.46264906345E+00 -0.14787206440E+00  0.16111773574E+00  0.10685098166E+01  0.93800000000E+00 0.  1.
         22    1    1    2    0    0  0.34803676230E+00  0.11345465856E+00  0.28981248011E+01  0.29211519834E+01  0.00000000000E+00 0.  1.
</event>
<event>
 5    1  0.6440325E+001  0.1599470E+01  0.7818608E-02  0.3353939E+00
         11   -1    0    0    0    0  0.00000000000E+00  0.00000000000E+00  0.39999999674E+01  0.40000000000E+01  0.51100000000E-03 0.  1.
    9000002   -1    0    0    0    0 -0.00000000000E+00 -0.00000000000E+00  0.00000000000E+00  0.93800000000E+00  0.93800000000E+00 0. -1.
         11    1    1    2    0    0 -0.11697469167E+00  0.92142945154E-01  0.13349790832E+01  0.13432582828E+01  0.51100000000E-03 0.  1.
    9000002    1    1    2    0    0  0.29869582713E+00 -0.24716008822E+00  0.10139869683E+00  0.10200161774E+01  0.93800000000E+00 0. -1.
         22    1    1    2    0    0 -0.18172113546E+00  0.15501714306E+00  0.25636221874E+01  0.25747255398E+01  0.00000000000E+00 0.  1.
</event>
<event>
 5    1  0.6440325E+001  0.1599466E+01  0.7818608E-02  0.3353943E+00
         11   -1    0    0    0    0  0.00000000000E+00  0.00000000000E+00  0.39999999674E+01  0.40000000000E+01  0.51100000000E-03 0.  1.
    9000002   -1    0    0    0    0 -0.00000000000E+00 -0.00000000000E+00  0.00000000000E+00  0.93800000000E+00  0.93800000000E+00 0.  1.
         11    1    1    2    0    0 -0.63170956376E-02  0.82386545322E-01  0.98738864817E+00  0.99084007398E+00  0.51100000000E-03 0.  1.
    9000002    1    1    2    0    0  0.83406622080E-01 -0.34179181494E+00  0.83181434158E-01  0.10052569126E+01  0.93800000000E+00 0.  1.
         22    1    1    2    0    0 -0.77089526442E-01  0.25940526961E+00  0.29294298850E+01  0.29419030134E+01  0.00000000000E+00 0. -1.
</event>
<event>
 5    1  0.6440325E+001  0.1599280E+01  0.7818608E-02  0.3354145E+00
         11   -1    0    0    0    0  0.00000000000E+00  0.00000000000E+00  0.39999999674E+01  0.40000000000E+01  0.51100000000E-03 0.  1.
    9000002   -1    0    0    0    0 -0.00000000000E+00 -0.00000000000E+00  0.00000000000E+00  0.93800000000E+00  0.93800000000E+00 0. -1.
         11    1    1    2    0    0  0.44627877620E-01 -0.19862084989E+00  0.12879557957E+01  0.13039448924E+01  0.51100000000E-03 0.  1.
    9000002    1    1    2    0    0 -0.92077126297E-01  0.53120839367E+00  0.20072153102E+00  0.11003607080E+01  0.93800000000E+00 0. -1.
         22    1    1    2    0    0  0.47449248677E-01 -0.33258754378E+00  0.25113226406E+01  0.25336943996E+01  0.00000000000E+00 0.  1.
</event>
<event>
 5    1  0.6440325E+001  0.1599665E+01  0.7818608E-02  0.3353727E+00
         11   -1    0    0    0    0  0.00000000000E+00  0.00000000000E+00  0.39999999674E+01  0.40000000000E+01  0.51100000000E-03 0. -1.
    9000002   -1    0    0    0    0 -0.00000000000E+00 -0.00000000000E+00  0.00000000000E+00  0.93800000000E+00  0.93800000000E+00 0.  1.
         11    1    1    2    0    0  0.74044970865E-02 -0.72635197992E-02  0.11591038056E+00  0.11637466537E+00  0.51100000000E-03 0. -1.
    9000002    1    1    2    0    0 -0.27987288046E+00  0.27758443441E+00  0.10474091393E+00  0.10228375269E+01  0.93800000000E+00 0.  1.
         22    1    1    2    0    0  0.27246838338E+00 -0.27032091461E+00  0.37793486729E+01  0.37987878077E+01  0.00000000000E+00 0. -1.
</event>
<event>
 5    1  0.6440325E+001  0.1570614E+01  0.7818608E-02  0.3385889E+00
         11   -1    0    0    0    0  0.00000000000E+00  0.00000000000E+00  0.39999999674E+01  0.40000000000E+01  0.51100000000E-03 0.  1.
    9000002   -1    0    0    0    0 -0.00000000000E+00 -0.00000000000E+00  0.00000000000E+00  0.93800000000E+00  0.93800000000E+00 0.  1.
         11    1    1    2    0    0  0.46664045837E-01 -0.15706540917E+00  0.14200810899E+01  0.14295025844E+01  0.51100000000E-03 0.  1.
    9000002    1    1    2    0    0 -0.13356761485E+00 -0.11065997058E+00  0.41799455139E-01  0.95481785241E+00  0.93800000000E+00 0.  1.
         22    1    1    2    0    0  0.86903569009E-01  0.26772537975E+00  0.25381194223E+01  0.25536795631E+01  0.00000000000E+00 0.  1.
</event>
<event>
 5    1  0.6440325E+001  0.1597937E+01  0.7818608E-02  0.3355606E+00
         11   -1    0    0    0    0  0.00000000000E+00  0.00000000000E+00  0.39999999674E+01  0.40000000000E+01  0.51100000000E-03 0. -1.
    9000002   -1    0    0    0    0 -0.00000000000E+00 -0.00000000000E+00  0.00000000000E+00  0.93800000000E+00  0.93800000000E+00 0.  1.
         11    1    1    2    0    0  0.13191871411E-01 -0.20715211320E-01  0.48995057119E+00  0.49056596782E+00  0.51100000000E-03 0. -1.
    9000002    1    1    2    0    0 -0.33492085507E+00  0.31142240919E-01  0.77142498039E-01  0.99946825029E+00  0.93800000000E+00 0.  1.
         22    1    1    2    0    0  0.32172898366E+00 -0.10427029599E-01  0.34329068981E+01  0.34479657819E+01  0.00000000000E+00 0. -1.
</event>
<event>
 5    1  0.1130389E+002  0.1593224E+01  0.7818608E-02  0.3360751E+00
         11   -1    0    0    0    0  0.00000000000E+00  0.00000000000E+00  0.39999999674E+01  0.40000000000E+01  0.51100000000E-03 0.  1.
    9000002   -1    0    0    0    0 -0.00000000000E+00 -0.00000000000E+00  0.00000000000E+00  0.93800000000E+00  0.93800000000E+00 0. -1.
         11    1    1    2    0    0  0.24508502785E-01  0.48174534505E-02  0.13441260693E+01  0.13443582208E+01  0.51100000000E-03 0.  1.
    9000002    1    1    2    0    0  0.54690443717E-01  0.22400004452E+00  0.40175658459E-01  0.96676012956E+00  0.93800000000E+00 0. -1.
         22    1    1    2    0    0 -0.79198946503E-01 -0.22881749797E+00  0.26156982396E+01  0.26268816496E+01  0.00000000000E+00 0.  1.
</event>
<event>
 5    1  0.6440325E+001  0.1461089E+01  0.7818608E-02  0.3519463E+00
         11   -1    0    0    0    0  0.00000000000E+00  0.00000000000E+00  0.39999999674E+01  0.40000000000E+01  0.51100000000E-03 0.  1.
    9000002   -1    0    0    0    0 -0.00000000000E+00 -0.00000000000E+00  0.00000000000E+00  0.93800000000E+00  0.93800000000E+00 0. -1.
         11    1    1    2    0    0  0.13027276871E+00  0.45409481918E+00  0.13599892522E+01  0.14397027910E+01  0.51100000000E-03 0.  1.
    9000002    1    1    2    0    0  0.13080744072E+00 -0.17542956440E+00  0.14476984647E+00  0.97400637937E+00  0.93800000000E+00 0. -1.
         22    1    1    2    0    0 -0.26108020943E+00 -0.27866525478E+00  0.24952408686E+01  0.25242908296E+01  0.00000000000E+00 0.  1.
</event>
<event>
 5    1  0.6440325E+001  0.1574792E+01  0.7818608E-02  0.3381186E+00
         11   -1    0    0    0    0  0.00000000000E+00  0.00000000000E+00  0.39999999674E+01  0.40000000000E+01  0.51100000000E-03 0.  1.
    9000002   -1    0    0    0    0 -0.00000000000E+00 -0.00000000000E+00  0.00000000000E+00  0.93800000000E+00  0.93800000000E+00 0. -1.
         11    1    1    2    0    0 -0.29579633580E-01  0.37948402683E-01  0.72092603934E-01  0.86675490492E-01  0.51100000000E-03 0.  1.
    9000002    1    1    2    0    0 -0.35150245032E+00  0.49125996964E-01  0.10488708862E+00  0.10083712796E+01  0.93800000000E+00 0. -1.
         22    1    1    2    0    0  0.38108208390E+00 -0.87074399648E-01  0.38230202748E+01  0.38429532299E+01  0.00000000000E+00 0.  1.
</event>
<event>
 5    1  0.6440325E+001  0.1598641E+01  0.7818608E-02  0.3354840E+00
         11   -1    0    0    0    0  0.00000000000E+00  0.00000000000E+00  0.39999999674E+01  0.40000000000E+01  0.51100000000E-03 0.  1.
    9000002   -1    0    0    0    0 -0.00000000000E+00 -0.00000000000E+00  0.00000000000E+00  0.93800000000E+00  0.93800000000E+00 0.  1.
         11    1    1    2    0    0 -0.71580559108E-01 -0.16376994014E+00  0.97678428302E+00  0.99300159437E+00  0.51100000000E-03 0.  1.
    9000002    1    1    2    0    0  0.34547995776E+00  0.51658405163E+00  0.27178783099E+00  0.11575526375E+01  0.93800000000E+00 0.  1.
         22    1    1    2    0    0 -0.27389939865E+00 -0.35281411148E+00  0.27514278534E+01  0.27874457681E+01  0.00000000000E+00 0.  1.
</event>
<event>
 5    1  0.6440325E+001  0.1599675E+01  0.7818608E-02  0.3353716E+00
         11   -1    0    0    0    0  0.00000000000E+00  0.00000000000E+00  0.39999999674E+01  0.40000000000E+01  0.51100000000E-03 0.  1.
    9000002   -1    0    0    0    0 -0.00000000000E+00 -0.00000000000E+00  0.00000000000E+00  0.93800000000E+00  0.93800000000E+00 0.  1.
         11    1    1    2    0    0 -0.92629803244E-02  0.73208049210E-01  0.79855413671E+00  0.80195647741E+00  0.51100000000E-03 0.  1.
    9000002    1    1    2    0    0  0.46645375558E-01 -0.36491514286E+00  0.90932096767E-01  0.10116577973E+01  0.93800000000E+00 0.  1.
         22    1    1    2    0    0 -0.37382395234E-01  0.29170709365E+00  0.31105137339E+01  0.31243857253E+01  0.00000000000E+00 0.  1.
</event>
<event>
 5    1  0.9201189E+001  0.1599198E+01  0.7818608E-02  0.3354234E+00
         11   -1    0    0    0    0  0.00000000000E+00  0.00000000000E+00  0.39999999674E+01  0.40000000000E+01  0.51100000000E-03 0.  1.
    9000002   -1    0    0    0    0 -0.00000000000E+00 -0.00000000000E+00  0.00000000000E+00  0.93800000000E+00  0.93800000000E+00 0. -1.
         11    1    1    2    0    0  0.97630562091E-02  0.95791499905E-01  0.14747243671E+01  0.14778645232E+01  0.51100000000E-03 0.  1.
    9000002    1    1    2    0    0 -0.41205893540E-02 -0.31989749589E+00  0.68790269613E-01  0.99344224207E+00  0.93800000000E+00 0. -1.
         22    1    1    2    0    0 -0.56424668552E-02  0.22410599599E+00  0.24564853306E+01  0.24666932348E+01  0.00000000000E+00 0.  1.
</event>
<event>
 5    1  0.6440325E+001  0.1591823E+01  0.7818608E-02  0.3362286E+00
         11   -1    0    0    0    0  0.00000000000E+00  0.00000000000E+00  0.39999999674E+01  0.40000000000E+01  0.51100000000E-03 0.  1.
    9000002   -1    0    0    0    0 -0.00000000000E+00 -0.00000000000E+00  0.00000000000E+00  0.93800000000E+00  0.93800000000E+00 0.  1.
         11    1    1    2    0    0 -0.35476709287E-01 -0.18712783873E-01  0.10202211495E+00  0.10962453303E+00  0.51100000000E-03 0.  1.
    9000002    1    1    2    0    0  0.35292593599E+00 -0.15677105350E+00  0.10692014660E+00  0.10200048026E+01  0.93800000000E+00 0.  1.
         22    1    1    2    0    0 -0.31744922670E+00  0.17548383737E+00  0.37910577058E+01  0.38083706644E+01  0.00000000000E+00 0.  1.
</event>
<event>
 5    1  0.6440325E+001  0.1598542E+01  0.7818608E-02  0.3354947E+00
         11   -1    0    0    0    0  0.00000000000E+00  0.00000000000E+00  0.39999999674E+01  0.40000000000E+01  0.51100000000E-03 0. -1.
    9000002   -1    0    0    0    0 -0.00000000000E+00 -0.00000000000E+00  0.00000000000E+00  0.93800000000E+00  0.93800000000E+00 0. -1.
         11    1    1    2    0    0  0.69390300381E-01  0.57685836849E-01  0.50558197637E+00  0.51357186986E+00  0.51100000000E-03 0. -1.
    9000002    1    1    2    0    0 -0.37246017902E+00 -0.29636248368E+00  0.15548750724E+00  0.10632862604E+01  0.93800000000E+00 0. -1.
         22    1    1    2    0    0  0.30306987864E+00  0.23867664684E+00  0.33389304837E+01  0.33611418697E+01  0.00000000000E+00 0. -1.
</event>
<event>
 5    1  0.6440325E+001  0.1554761E+01  0.7818608E-02  0.3403977E+00
         11   -1    0    0    0    0  0.00000000000E+00  0.00000000000E+00  0.39999999674E+01  0.40000000000E+01  0.51100000000E-03 0. -1.
    9000002   -1    0    0    0    0 -0.00000000000E+00 -0.00000000000E+00  0.00000000000E+00  0.93800000000E+00  0.93800000000E+00 0.  1.
         11    1    1    2    0    0  0.48455787746E-01  0.15328445006E+00  0.50548006608E+00  0.53042854780E+00  0.51100000000E-03 0. -1.
    9000002    1    1    2    0    0  0.25216780344E+00 -0.11778783577E-01  0.77529871904E-01  0.97446509526E+00  0.93800000000E+00 0.  1.
         22    1    1    2    0    0 -0.30062359119E+00 -0.14150566648E+00  0.34169900294E+01  0.34331063569E+01  0.00000000000E+00 0. -1.
</event>
<event>
 5    1  0.6440325E+001  0.1510269E+01  0.7818608E-02  0.3456909E+00
         11   -1    0    0    0    0  0.00000000000E+00  0.00000000000E+00  0.39999999674E+01  0.40000000000E+01  0.51100000000E-03 0.  1.
    9000002   -1    0    0    0    0 -0.00000000000E+00 -0.00000000000E+00  0.00000000000E+00  0.93800000000E+00  0.93800000000E+00 0.  1.
         11    1    1    2    0    0  0.19573014192E+00  0.13836002685E+00  0.44338091396E+00  0.50402448499E+00  0.51100000000E-03 0.  1.
    9000002    1    1    2    0    0  0.19608744616E+00 -0.40637391726E+00  0.22015428946E+00  0.10639088111E+01  0.93800000000E+00 0.  1.
         22    1    1    2    0    0 -0.39181758809E+00  0.26801389041E+00  0.33364647639E+01  0.33700667039E+01  0.00000000000E+00 0.  1.
</event>
<event>
 5    1  0.6440325E+001  0.1599677E+01  0.7818608E-02  0.3353715E+00
         11   -1    0    0    0    0  0.00000000000E+00  0.00000000000E+00  0.39999999674E+01  0.40000000000E+01  0.51100000000E-03 0.  1.
    9000002   -1    0    0    0    0 -0.00000000000E+00 -0.00000000000E+00  0.00000000000E+00  0.93800000000E+00  0.93800000000E+00 0. -1.
         11    1    1    2    0    0  0.14509404402E+00 -0.24662398983E-01  0.12562944921E+01  0.12648860137E+01  0.51100000000E-03 0.  1.
    9000002    1    1    2    0    0 -0.44586362706E+00  0.73434802598E-01  0.13871939579E+00  0.10503685615E+01  0.93800000000E+00 0. -1.
         22    1    1    2    0    0  0.30076958304E+00 -0.48772403615E-01  0.26049860795E+01  0.26227454249E+01  0.00000000000E+00 0.  1.
</event>
<event>
 5    1  0.6440325E+001  0.1599621E+01  0.7818608E-02  0.3353775E+00
         11   -1    0    0    0    0  0.00000000000E+00  0.00000000000E+00  0.39999999674E+01  0.40000000000E+01  0.51100000000E-03 0.  1.
    9000002   -1    0    0    0    0 -0.00000000000E+00 -0.00000000000E+00  0.00000000000E+00  0.93800000000E+00  0.93800000000E+00 0. -1.
         11    1    1    2    0    0 -0.12673657094E+00 -0.46271986953E-01  0.11528711399E+01  0.11607391531E+01  0.51100000000E-03 0.  1.
    9000002    1    1    2    0    0  0.39880060491E+00  0.15080325410E+00  0.12309564023E+00  0.10376801437E+01  0.93800000000E+00 0. -1.
         22    1    1    2    0    0 -0.27206403397E+00 -0.10453126715E+00  0.27240331873E+01  0.27395807033E+01  0.00000000000E+00 0.  1.
</event>
<event>
 5    1  0.6440325E+001  0.1599676E+01  0.7818608E-02  0.3353715E+00
         11   -1    0    0    0    0  0.00000000000E+00  0.00000000000E+00  0.39999999674E+01  0.40000000000E+01  0.51100000000E-03 0.  1.
    9000002   -1    0    0    0    0 -0.00000000000E+00 -0.00000000000E+00  0.00000000000E+00  0.93800000000E+00  0.93800000000E+00 0. -1.
         11    1    1    2    0    0  0.13621941740E+00  0.40867540857E-01  0.13426062301E+01  0.13501176377E+01  0.51100000000E-03 0.  1.
    9000002    1    1    2    0    0 -0.39658978918E+00 -0.12104080352E+00  0.11619718902E+00  0.10321240835E+01  0.93800000000E+00 0. -1.
         22    1    1    2    0    0  0.26037037179E+00  0.80173262665E-01  0.25411965483E+01  0.25557582788E+01  0.00000000000E+00 0.  1.
</event>
<event>
 5    1  0.6440325E+001  0.1547371E+01  0.7818608E-02  0.3412543E+00
         11   -1    0    0    0    0  0.00000000000E+00  0.00000000000E+00  0.39999999674E+01  0.40000000000E+01  0.51100000000E-03 0. -1.
    9000002   -1    0    0    0    0 -0.00000000000E+00 -0.00000000000E+00  0.00000000000E+00  0.93800000000E+00  0.93800000000E+00 0. -1.
         11    1    1    2    0    0 -0.42079651947E-01  0.17081099553E+00  0.67070643889E+00  0.69339345367E+00  0.51100000000E-03 0. -1.
    9000002    1    1    2    0    0  0.19430817643E+00  0.21606208647E+00  0.98201085648E-01  0.98687686459E+00  0.93800000000E+00 0. -1.
         22    1    1    2    0    0 -0.15222852448E+00 -0.38687308200E+00  0.32310924428E+01  0.32577296817E+01  0.00000000000E+00 0. -1.
</event>
<event>
 5    1  0.6440325E+001  0.1599672E+01  0.7818608E-02  0.3353719E+00
         11   -1    0    0    0    0  0.00000000000E+00  0.00000000000E+00  0.39999999674E+01  0.40000000000E+01  0.51100000000E-03 0. -1.
    9000002   -1    0    0    0    0 -0.00000000000E+00 -0.00000000000E+00  0.00000000000E+00  0.93800000000E+00  0.93800000000E+00 0. -1.
         11    1    1    2    0    0 -0.11209758050E+00 -0.85821045213E-01  0.81437212424E+00  0.82651880633E+00  0.51100000000E-03 0. -1.
    9000002    1    1    2    0    0  0.50372848788E+00  0.38545842108E+00  0.28285290367E+00  0.11671205375E+01  0.93800000000E+00 0. -1.
         22    1    1    2    0    0 -0.39163090739E+00 -0.29963737587E+00  0.29027749395E+01  0.29443606562E+01  0.00000000000E+00 0. -1.
</event>
<event>
 5    1  0.6440325E+001  0.1599583E+01  0.7818608E-02  0.3353816E+00
         11   -1    0    0    0    0  0.00000000000E+00  0.00000000000E+00  0.39999999674E+01  0.40000000000E+01  0.51100000000E-03 0.  1.
    9000002   -1    0    0    0    0 -0.00000000000E+00 -0.00000000000E+00  0.00000000000E+00  0.93800000000E+00  0.93800000000E+00 0. -1.
         11    1    1    2    0    0 -0.23134274338E+00  0.12158970993E+00  0.14052142523E+01  0.14293113301E+01  0.51100000000E-03 0.  1.
    9000002    1    1    2    0    0  0.61514842155E+00 -0.29000626514E+00  0.32892111359E+00  0.12043854505E+01  0.93800000000E+00 0. -1.
         22    1    1    2    0    0 -0.38380567817E+00  0.16841655521E+00  0.22658646015E+01  0.23043032194E+01  0.00000000000E+00 0.  1.
</event>
<event>
 5    1  0.6440325E+001  0.1599240E+01  0.7818608E-02  0.3354189E+00
         11   -1    0    0    0    0  0.00000000000E+00  0.00000000000E+00  0.39999999674E+01  0.40000000000E+01  0.51100000000E-03 0. -1.
    9000002   -1    0    0    0    0 -0.00000000000E+00 -0.00000000000E+00  0.00000000000E+00  0.93800000000E+00  0.93800000000E+00 0. -1.
         11    1    1    2    0    0  0.52485613425E-01  0.11631852376E+00  0.12106250270E+01  0.12173323111E+01  0.51100000000E-03 0. -1.
    9000002    1    1    2    0    0 -0.96105555162E-01 -0.39219447342E+00  0.11040101021E+00  0.10271733864E+01  0.93800000000E+00 0. -1.
         22    1    1    2    0    0  0.43619941737E-01  0.27587594966E+00  0.26789739302E+01  0.26934943025E+01  0.00000000000E+00 0. -1.
</event>
<event>
 5    1  0.6440325E+001  0.1599677E+01  0.7818608E-02  0.3353714E+00
         11   -1    0    0    0    0  0.00000000000E+00  0.00000000000E+00  0.39999999674E+01  0.40000000000E+01  0.51100000000E-03 0. -1.
    9000002   -1    0    0    0    0 -0.00000000000E+00 -0.00000000000E+00  0.00000000000E+00  0.93800000000E+00  0.93800000000E+00 0.  1.
         11    1    1    2    0    0 -0.79689376746E-01 -0.11969866832E+00  0.14174279612E+01  0.14247036374E+01  0.51100000000E-03 0.  1.
    9000002    1    1    2    0    0  0.21841863589E+00  0.32899306381E+00  0.10511841630E+00  0.10231505354E+01  0.93800000000E+00 0.  1.
         22    1    1    2    0    0 -0.13872925915E+00 -0.20929439549E+00  0.24774535898E+01  0.24901458273E+01  0.00000000000E+00 0. -1.
</event>
<event>
 5    1  0.6440325E+001  0.1597668E+01  0.7818608E-02  0.3355898E+00
         11   -1    0    0    0    0  0.00000000000E+00  0.00000000000E+00  0.39999999674E+01  0.40000000000E+01  0.51100000000E-03 0.  1.
    9000002   -1    0    0    0    0 -0.00000000000E+00 -0.00000000000E+00  0.00000000000E+00  0.93800000000E+00  0.93800000000E+00 0. -1.
         11    1    1    2    0    0 -0.14612327098E-01 -0.12224871979E-01  0.70700283857E+00  0.70725967118E+00  0.51100000000E-03 0.  1.
    9000002    1    1    2    0    0  0.76193036489E-01  0.29873798772E+00  0.65039209398E-01  0.98950687864E+00  0.93800000000E+00 0. -1.
         22    1    1    2    0    0 -0.61580709390E-01 -0.28651311574E+00  0.32279579194E+01  0.32412334502E+01  0.00000000000E+00 0.  1.
</event>
<event>
 5    1  0.6440325E+001  0.1593702E+01  0.7818608E-02  0.3360228E+00
         11   -1    0    0    0    0  0.00000000000E+00  0.00000000000E+00  0.39999999674E+01  0.40000000000E+01  0.51100000000E-03 0. -1.
    9000002   -1    0    0    0    0 -0.00000000000E+00 -0.00000000000E+00  0.00000000000E+00  0.93800000000E+00  0.93800000000E+00 0. -1.
         11    1    1    2    0    0  0.11434071116E+00 -0.20047244229E+00  0.14462009998E+01  0.14645001165E+01  0.51100000000E-03 0. -1.
    9000002    1    1    2    0    0 -0.10364664809E+00  0.64768109332E+00  0.31038919251E+00  0.11859253253E+01  0.93800000000E+00 0. -1.
         22    1    1    2    0    0 -0.10694063073E-01 -0.44720865103E+00  0.22434097751E+01  0.22875745582E+01  0.00000000000E+00 0.  1.
</event>
<event>
 5    1  0.6440325E+001  0.1599667E+01  0.7818608E-02  0.3353725E+00
         11   -1    0    0    0    0  0.00000000000E+00  0.00000000000E+00  0.39999999674E+01  0.40000000000E+01  0.51100000000E-03 0.  1.
    9000002   -1    0    0    0    0 -0.00000000000E+00 -0.00000000000E+00  0.00000000000E+00  0.93800000000E+00  0.93800000000E+00 0.  1.
         11    1    1    2    0    0  0.80331861013E-01 -0.49033866876E-01  0.65565384523E+00  0.66237433063E+00  0.51100000000E-03 0.  1.
    9000002    1    1    2    0    0 -0.47559092200E+00  0.27148131762E+00  0.20704939711E+00  0.11057134727E+01  0.93800000000E+00 0.  1.
         22    1    1    2    0    0  0.39525906099E+00 -0.22244745075E+00  0.31372967250E+01  0.31699121966E+01  0.00000000000E+00 0.  1.
</event>
<event>
 5    1  0.6440325E+001  0.1565340E+01  0.7818608E-02  0.3391863E+00
         11   -1    0    0    0    0  0.00000000000E+00  0.00000000000E+00  0.39999999674E+01  0.40000000000E+01  0.51100000000E-03 0.  1.
    9000002   -1    0    0    0    0 -0.00000000000E+00 -0.00000000000E+00  0.00000000000E+00  0.93800000000E+00  0.93800000000E+00 0.  1.
         11    1    1    2    0    0  0.71077460127E-01  0.88908112379E-01  0.22600959408E+00  0.25305583479E+00  0.51100000000E-03 0.  1.
    9000002    1    1    2    0    0 -0.62887938972E+00  0.25991372753E+00  0.36779550790E+00  0.12157968450E+01  0.93800000000E+00 0.  1.
         22    1    1    2    0    0  0.55780192959E+00 -0.34882183991E+00  0.34061948654E+01  0.34691473203E+01  0.00000000000E+00 0.  1.
</event>
<event>
 5    1  0.6440325E+001  0.1579026E+01  0.7818608E-02  0.3376448E+00
         11   -1    0    0    0    0  0.00000000000E+00  0.00000000000E+00  0.39999999674E+01  0.40000000000E+01  0.51100000000E-03 0.  1.
    9000002   -1    0    0    0    0 -0.00000000000E+00 -0.00000000000E+00  0.00000000000E+00  0.93800000000E+00  0.93800000000E+00 0. -1.
         11    1    1    2    0    0  0.68881511055E-02  0.47628531610E-01  0.96909682817E-01  0.10820199348E+00  0.51100000000E-03 0.  1.
    9000002    1    1    2    0    0  0.23568094151E+00  0.22827342741E+00  0.88614890589E-01  0.99767272324E+00  0.93800000000E+00 0. -1.
         22    1    1    2    0    0 -0.24256909262E+00 -0.27590195902E+00  0.38144753940E+01  0.38321252833E+01  0.00000000000E+00 0.  1.
</event>
<event>
 5    1  0.6440325E+001  0.1599677E+01  0.7818608E-02  0.3353714E+00
         11   -1    0    0    0    0  0.00000000000E+00  0.00000000000E+00  0.39999999674E+01  0.40000000000E+01  0.51100000000E-03 0.  1.
    9000002   -1    0    0    0    0 -0.00000000000E+00 -0.00000000000E+00  0.00000000000E+00  0.93800000000E+00  0.93800000000E+00 0. -1.
         11    1    1    2    0    0 -0.11624349768E+00 -0.17489810241E+00  0.10938185452E+01  0.11137958376E+01  0.51100000000E-03 0.  1.
    9000002    1    1    2    0    0  0.38731730930E+00  0.58179153676E+00  0.34901536550E+00  0.12207177461E+01  0.93800000000E+00 0. -1.
         22    1    1    2    0    0 -0.27107381161E+00 -0.40689343435E+00  0.25571660567E+01  0.26034864163E+01  0.00000000000E+00 0.  1.
</event>
<event>
 5    1  0.6440325E+001  0.1597725E+01  0.7818608E-02  0.3355836E+00
         11   -1    0    0    0    0  0.00000000000E+00  0.00000000000E+00  0.39999999674E+01  0.40000000000E+01  0.51100000000E-03 0.  1.
    9000002   -1    0    0    0    0 -0.00000000000E+00 -0.00000000000E+00  0.00000000000E+00  0.93800000000E+00  0.93800000000E+00 0.  1.
         11    1    1    2    0    0 -0.85184391417E-01  0.12488704538E+00  0.13045661281E+01  0.13132959295E+01  0.51100000000E-03 0.  1.
    9000002    1    1    2    0    0  0.29735541425E+00 -0.22960357777E+00  0.96513192012E-01  0.10150353893E+01  0.93800000000E+00 0.  1.
         22    1    1    2    0    0 -0.21217102284E+00  0.10471653239E+00  0.25989206472E+01  0.26096686812E+01  0.00000000000E+00 0.  1.
</event>
<event>
 5    1  0.6440325E+001  0.1599677E+01  0.7818608E-02  0.3353714E+00
         11   -1    0    0    0    0  0.00000000000E+00  0.00000000000E+00  0.39999999674E+01  0.40000000000E+01  0.51100000000E-03 0.  1.
    9000002   -1    0    0    0    0 -0.00000000000E+00 -0.00000000000E+00  0.00000000000E+00  0.93800000000E+00  0.93800000000E+00 0.  1.
         11    1    1    2    0    0  0.34541827133E-02 -0.52968255058E-01  0.50305016842E+00  0.50584315800E+00  0.51100000000E-03 0. -1.
    9000002    1    1    2    0    0 -0.25971932152E-01  0.40738838728E+00  0.11252219169E+00  0.10291477459E+01  0.93800000000E+00 0.  1.
         22    1    1    2    0    0  0.22517749439E-01 -0.35442013223E+00  0.33844276072E+01  0.34030090961E+01  0.00000000000E+00 0.  1.
</event>
<event>
 5    1  0.6440325E+001  0.1599669E+01  0.7818608E-02  0.3353723E+00
         11   -1    0    0    0    0  0.00000000000E+00  0.00000000000E+00  0.39999999674E+01  0.40000000000E+01  0.51100000000E-03 0.  1.
    9000002   -1    0    0    0    0 -0.00000000000E+00 -0.00000000000E+00  0.00000000000E+00  0.93800000000E+00  0.93800000000E+00 0.  1.
         11    1    1    2    0    0 -0.61412433164E-01 -0.56946118545E-01  0.83285402752E+00  0.83705462166E+00  0.51100000000E-03 0.  1.
    9000002    1    1    2    0    0  0.29154383061E+00  0.25393078281E+00  0.10066361953E+00  0.10195370577E+01  0.93800000000E+00 0.  1.
         22    1    1    2    0    0 -0.23013139745E+00 -0.19698466427E+00  0.30664823203E+01  0.30814083207E+01  0.00000000000E+00 0.  1.
</event>
<event>
 5    1  0.6440325E+001  0.1506320E+01  0.7818608E-02  0.3461770E+00
         11   -1    0    0    0    0  0.00000000000E+00  0.00000000000E+00  0.39999999674E+01  0.40000000000E+01  0.51100000000E-03 0. -1.
    9000002   -1    0    0    0    0 -0.00000000000E+00 -0.00000000000E+00  0.00000000000E+00  0.93800000000E+00  0.93800000000E+00 0.  1.
         11    1    1    2    0    0  0.21899852921E-01 -0.16018355325E+00  0.23215541065E+00  0.28290417124E+00  0.51100000000E-03 0. -1.
    9000002    1    1    2    0    0  0.34110353397E-01 -0.31620827808E+00  0.14544344527E+00  0.10010739169E+01  0.93800000000E+00 0.  1.
         22    1    1    2    0    0 -0.56010206318E-01  0.47639183133E+00  0.36224011114E+01  0.36540219119E+01  0.00000000000E+00 0. -1.
</event>
<event>
 5    1  0.6440325E+001  0.1599671E+01  0.7818608E-02  0.3353721E+00
         11   -1    0    0    0    0  0.00000000000E+00  0.00000000000E+00  0.39999999674E+01  0.40000000000E+01  0.51100000000E-03 0. -1.
    9000002   -1    0    0    0    0 -0.00000000000E+00 -0.00000000000E+00  0.00000000000E+00  0.93800000000E+00  0.93800000000E+00 0.  1.
         11    1    1    2    0    0  0.13804178905E+00 -0.55106278196E-01  0.75589081142E+00  0.77036576854E+00  0.51100000000E-03 0. -1.
    9000002    1    1    2    0    0 -0.65965360535E+00  0.27585096280E+00  0.36687881198E+00  0.12351844783E+01  0.93800000000E+00 0.  1.
         22    1    1    2    0    0  0.52161181630E+00 -0.22074468461E+00  0.28772303440E+01  0.29324497532E+01  0.00000000000E+00 0. -1.
</event>
<event>
 5    1  0.6440325E+001  0.1594824E+01  0.7818608E-02  0.3359000E+00
         11   -1    0    0    0    0  0.00000000000E+00  0.00000000000E+00  0.39999999674E+01  0.40000000000E+01  0.51100000000E-03 0.  1.
    9000002   -1    0    0    0    0 -0.00000000000E+00 -0.00000000000E+00  0.00000000000E+00  0.93800000000E+00  0.93800000000E+00 0. -1.
         11    1    1    2    0    0 -0.85674490478E-01 -0.12978003552E-01  0.39698905096E+00  0.40633620882E+00  0.51100000000E-03 0.  1.
    9000002    1    1    2    0    0  0.40677621983E+00 -0.13056963467E+00  0.12768769432E+00  0.10385872471E+01  0.93800000000E+00 0. -1.
         22    1    1    2    0    0 -0.32110172935E+00  0.14354763823E+00  0.34753232221E+01  0.34930765441E+01  0.00000000000E+00 0.  1.
</event>
<event>
 5    1  0.6440325E+001  0.1599238E+01  0.7818608E-02  0.3354191E+00
         11   -1    0    0    0    0  0.00000000000E+00  0.00000000000E+00  0.39999999674E+01  0.40000000000E+01  0.51100000000E-03 0.  1.
    9000002   -1    0    0    0    0 -0.00000000000E+00 -0.00000000000E+00  0.00000000000E+00  0.93800000000E+00  0.93800000000E+00 0. -1.
         11    1    1    2    0    0  0.40846989259E-01 -0.93513799787E-01  0.11156989404E+01  0.11203560568E+01  0.51100000000E-03 0.  1.
    9000002    1    1    2    0    0 -0.16243190616E+00  0.40155521922E+00  0.12750124144E+00  0.10410241519E+01  0.93800000000E+00 0. -1.
         22    1    1    2    0    0  0.12158491690E+00 -0.30804141943E+00  0.27567997855E+01  0.27766197913E+01  0.00000000000E+00 0.  1.
</event>
<event>
 5    1  0.6440325E+001  0.1599676E+01  0.7818608E-02  0.3353715E+00
         11   -1    0    0    0    0  0.00000000000E+00  0.00000000000E+00  0.39999999674E+01  0.40000000000E+01  0.51100000000E-03 0.  1.
    9000002   -1    0    0    0    0 -0.00000000000E+00 -0.00000000000E+00  0.00000000000E+00  0.93800000000E+00  0.93800000000E+00 0. -1.
         11    1    1    2    0    0  0.12476380940E-01  0.10754039793E+00  0.87750755350E+00  0.88416082521E+00  0.51100000000E-03 0.  1.
    9000002    1    1    2    0    0 -0.55931178375E-01 -0.47393382588E+00  0.15532418015E+00  0.10638191430E+01  0.93800000000E+00 0. -1.
         22    1    1    2    0    0  0.43454797435E-01  0.36639342796E+00  0.29671682337E+01  0.29900200318E+01  0.00000000000E+00 0.  1.
</event>
<event>
 5    1  0.6440325E+001  0.1595050E+01  0.7818608E-02  0.3358753E+00
         11   -1    0    0    0    0  0.00000000000E+00  0.00000000000E+00  0.39999999674E+01  0.40000000000E+01  0.51100000000E-03 0. -1.
    9000002   -1    0    0    0    0 -0.00000000000E+00 -0.00000000000E+00  0.00000000000E+00  0.93800000000E+00  0.93800000000E+00 0.  1.
         11    1    1    2    0    0 -0.18679545323E+00 -0.10144815989E+00  0.66801600165E+00  0.70102062029E+00  0.51100000000E-03 0. -1.
    9000002    1    1    2    0    0  0.89760601558E+00  0.18042146647E+00  0.65345477117E+00  0.14646144895E+01  0.93800000000E+00 0.  1.
         22    1    1    2    0    0 -0.71081056235E+00 -0.78973306581E-01  0.26785291945E+01  0.27723648902E+01  0.00000000000E+00 0. -1.
</event>
<event>
 5    1  0.6440325E+001  0.1599633E+01  0.7818608E-02  0.3353762E+00
         11   -1    0    0    0    0  0.00000000000E+00  0.00000000000E+00  0.39999999674E+01  0.40000000000E+01  0.51100000000E-03 0.  1.
    9000002   -1    0    0    0    0 -0.00000000000E+00 -0.00000000000E+00  0.00000000000E+00  0.93800000000E+00  0.93800000000E+00 0. -1.
         11    1    1    2    0    0  0.32020838402E-02 -0.24554509927E-01  0.19693557894E+00  0.19848692821E+00  0.51100000000E-03 0.  1.
    9000002    1    1    2    0    0 -0.14823206140E-01  0.43353901679E+00  0.12754527060E+00  0.10412913149E+01  0.93800000000E+00 0. -1.
         22    1    1    2    0    0  0.11621122300E-01 -0.40898450686E+00  0.36755191178E+01  0.36982217568E+01  0.00000000000E+00 0.  1.
</event>
<event>
 5    1  0.6440325E+001  0.1596605E+01  0.7818608E-02  0.3357057E+00
         11   -1    0    0    0    0  0.00000000000E+00  0.00000000000E+00  0.39999999674E+01  0.40000000000E+01  0.51100000000E-03 0. -1.
    9000002   -1    0    0    0    0 -0.00000000000E+00 -0.00000000000E+00  0.00000000000E+00  0.93800000000E+00  0.93800000000E+00 0. -1.
         11    1    1    2    0    0 -0.14943769373E-02 -0.67126370263E-03  0.78255895169E-01  0.78274708605E-01  0.51100000000E-03 0. -1.
    9000002    1    1    2    0    0  0.85224547680E+00  0.38848280092E+00  0.68786588147E+00  0.14934003851E+01  0.93800000000E+00 0. -1.
         22    1    1    2    0    0 -0.85075109986E+00 -0.38781153722E+00  0.32338781907E+01  0.33663249063E+01  0.00000000000E+00 0. -1.
</event>
<event>
 5    1  0.6440325E+001  0.1599610E+01  0.7818608E-02  0.3353787E+00
         11   -1    0    0    0    0  0.00000000000E+00  0.00000000000E+00  0.39999999674E+01  0.40000000000E+01  0.51100000000E-03 0.  1.
    9000002   -1    0    0    0    0 -0.00000000000E+00 -0.00000000000E+00  0.00000000000E+00  0.93800000000E+00  0.93800000000E+00 0. -1.
         11    1    1    2    0    0 -0.42642861492E-01 -0.80831524191E-01  0.93021055969E+00  0.93468930422E+00  0.51100000000E-03 0.  1.
    9000002    1    1    2    0    0  0.14532001164E+00  0.34959444452E+00  0.96479560721E-01  0.10161134223E+01  0.93800000000E+00 0. -1.
         22    1    1    2    0    0 -0.10267715015E+00 -0.26876292033E+00  0.29733098469E+01  0.29871972734E+01  0.00000000000E+00 0.  1.
</event>
<event>
 5    1  0.6440325E+001  0.1599619E+01  0.7818608E-02  0.3353777E+00
         11   -1    0    0    0    0  0.00000000000E+00  0.00000000000E+00  0.39999999674E+01  0.40000000000E+01  0.51100000000E-03 0. -1.
    9000002   -1    0    0    0    0 -0.00000000000E+00 -0.00000000000E+00  0.00000000000E+00  0.93800000000E+00  0.93800000000E+00 0.  1.
         11    1    1    2    0    0  0.37925461936E-01 -0.70199204253E-01  0.77562518851E+00  0.77971851531E+00  0.51100000000E-03 0. -1.
    9000002    1    1    2    0    0 -0.15401884158E+00  0.34968469093E+00  0.98308493606E-01  0.10175999934E+01  0.93800000000E+00 0.  1.
         22    1    1    2    0    0  0.11609337965E+00 -0.27948548668E+00  0.31260662852E+01  0.31406814913E+01  0.00000000000E+00 0. -1.
</event>
<event>
 5    1  0.6440325E+001  0.1597863E+01  0.7818608E-02  0.3355686E+00
         11   -1    0    0    0    0  0.00000000000E+00  0.00000000000E+00  0.39999999674E+01  0.40000000000E+01  0.51100000000E-03 0.  1.
    9000002   -1    0    0    0    0 -0.00000000000E+00 -0.00000000000E+00  0.00000000000E+00  0.93800000000E+00  0.93800000000E+00 0.  1.
         11    1    1    2    0    0  0.72184498085E-02  0.23227444588E-01  0.54225930540E+00  0.54280478592E+00  0.51100000000E-03 0.  1.
    9000002    1    1    2    0    0 -0.27084828768E+00 -0.29763228930E+00  0.11078180835E+00  0.10266744292E+01  0.93800000000E+00 0.  1.
         22    1    1    2    0    0  0.26362983787E+00  0.27440484472E+00  0.33469588536E+01  0.33685207849E+01  0.00000000000E+00 0.  1.
</event>
<event>
 5    1  0.6440325E+001  0.1597129E+01  0.7818608E-02  0.3356485E+00
         11   -1    0    0    0    0  0.00000000000E+00  0.00000000000E+00  0.39999999674E+01  0.40000000000E+01  0.51100000000E-03 0.  1.
    9000002   -1    0    0    0    0 -0.00000000000E+00 -0.00000000000E+00  0.00000000000E+00  0.93800000000E+00  0.93800000000E+00 0. -1.
         11    1    1    2    0    0  0.25406068153E+00 -0.20038648680E+00  0.80523769540E+00  0.86781886429E+00  0.51100000000E-03 0.  1.
    9000002    1    1    2    0    0 -0.74485198666E+00  0.78886244136E+00  0.10078775223E+01  0.17529316967E+01  0.93800000000E+00 0. -1.
         22    1    1    2    0    0  0.49079130513E+00 -0.58847595457E+00  0.21868847496E+01  0.23172494390E+01  0.00000000000E+00 0.  1.
</event>
<event>
 5    1  0.6440325E+001  0.1528139E+01  0.7818608E-02  0.3435253E+00
         11   -1    0    0    0    0  0.00000000000E+00  0.00000000000E+00  0.39999999674E+01  0.40000000000E+01  0.51100000000E-03 0. -1.
    9000002   -1    0    0    0    0 -0.00000000000E+00 -0.00000000000E+00  0.00000000000E+00  0.93800000000E+00  0.93800000000E+00 0.  1.
         11    1    1    2    0    0 -0.80705402636E-01 -0.15208684994E+00  0.34828420596E+00  0.38851759443E+00  0.51100000000E-03 0. -1.
    9000002    1    1    2    0    0 -0.21635776923E+00 -0.62009583878E-01  0.89800928815E-01  0.96879516907E+00  0.93800000000E+00 0.  1.
         22    1    1    2    0    0  0.29706317187E+00  0.21409643381E+00  0.35619148326E+01  0.35806872365E+01  0.00000000000E+00 0. -1.
</event>
<event>
 5    1  0.6440325E+001  0.1599677E+01  0.7818608E-02  0.3353714E+00
         11   -1    0    0    0    0  0.00000000000E+00  0.00000000000E+00  0.39999999674E+01  0.40000000000E+01  0.51100000000E-03 0.  1.
    9000002   -1    0    0    0    0 -0.00000000000E+00 -0.00000000000E+00  0.00000000000E+00  0.93800000000E+00  0.93800000000E+00 0.  1.
         11    1    1    2    0    0  0.59938909548E-01 -0.53720580986E-01  0.66925781357E+00  0.67408074875E+00  0.51100000000E-03 0.  1.
    9000002    1    1    2    0    0 -0.34507375586E+00  0.31066646518E+00  0.14674064769E+00  0.10568662958E+01  0.93800000000E+00 0. -1.
         22    1    1    2    0    0  0.28513484631E+00 -0.25694588419E+00  0.31840015061E+01  0.32070529554E+01  0.00000000000E+00 0.  1.
</event>
<event>
 5    1  0.6440325E+001  0.1508504E+01  0.7818608E-02  0.3459078E+00
         11   -1    0    0    0    0  0.00000000000E+00  0.00000000000E+00  0.39999999674E+01  0.40000000000E+01  0.51100000000E-03 0.  1.
    9000002   -1    0    0    0    0 -0.00000000000E+00 -0.00000000000E+00  0.00000000000E+00  0.93800000000E+00  0.93800000000E+00 0.  1.
         11    1    1    2    0    0 -0.11997630408E+00  0.45699500511E-01  0.10059361072E+00  0.16310148229E+00  0.51100000000E-03 0.  1.
    9000002    1    1    2    0    0  0.36410248811E-01  0.30608401952E+00  0.13892494335E+00  0.99707435686E+00  0.93800000000E+00 0.  1.
         22    1    1    2    0    0  0.83566055271E-01 -0.35178352003E+00  0.37604814133E+01  0.37778241608E+01  0.00000000000E+00 0.  1.
</event>
<event>
 5    1  0.6440325E+001  0.1599302E+01  0.7818608E-02  0.3354122E+00
         11   -1    0    0    0    0  0.00000000000E+00  0.00000000000E+00  0.39999999674E+01  0.40000000000E+01  0.51100000000E-03 0. -1.
    9000002   -1    0    0    0    0 -0.00000000000E+00 -0.00000000000E+00  0.00000000000E+00  0.93800000000E+00  0.93800000000E+00 0.  1.
         11    1    1    2    0    0  0.44889836867E-01 -0.72976806548E-01  0.68998453168E+00  0.69528384623E+00  0.51100000000E-03 0. -1.
    9000002    1    1    2    0    0 -0.26307996323E+00  0.31101660540E+00  0.11235227692E+00  0.10287902750E+01  0.93800000000E+00 0.  1.
         22    1    1    2    0    0  0.21819012636E+00 -0.23803979886E+00  0.31976631588E+01  0.32139258787E+01  0.00000000000E+00 0. -1.
</event>
<event>
 5    1  0.6440325E+001  0.1595912E+01  0.7818608E-02  0.3357812E+00
         11   -1    0    0    0    0  0.00000000000E+00  0.00000000000E+00  0.39999999674E+01  0.40000000000E+01  0.51100000000E-03 0.  1.
    9000002   -1    0    0    0    0 -0.00000000000E+00 -0.00000000000E+00  0.00000000000E+00  0.93800000000E+00  0.93800000000E+00 0. -1.
         11    1    1    2    0    0  0.50554474930E-02  0.63676722106E-01  0.10438371100E+01  0.10457898717E+01  0.51100000000E-03 0.  1.
    9000002    1    1    2    0    0 -0.26045167686E+00 -0.19492205397E+00  0.73767996119E-01  0.99554778909E+00  0.93800000000E+00 0. -1.
         22    1    1    2    0    0  0.25539622937E+00  0.13124533187E+00  0.28823948613E+01  0.28966623392E+01  0.00000000000E+00 0.  1.
</event>
<event>
 5    1  0.6440325E+001  0.1599579E+01  0.7818608E-02  0.3353821E+00
         11   -1    0    0    0    0  0.00000000000E+00  0.00000000000E+00  0.39999999674E+01  0.40000000000E+01  0.51100000000E-03 0.  1.
    9000002   -1    0    0    0    0 -0.00000000000E+00 -0.00000000000E+00  0.00000000000E+00  0.93800000000E+00  0.93800000000E+00 0.  1.
         11    1    1    2    0    0  0.22120450789E-02 -0.13239187949E+00  0.10330837186E+01  0.10415347972E+01  0.51100000000E-03 0.  1.
    9000002    1    1    2    0    0 -0.47410374162E-01  0.48859235469E+00  0.16479626591E+00  0.10714345719E+01  0.93800000000E+00 0.  1.
         22    1    1    2    0    0  0.45198329083E-01 -0.35620047520E+00  0.28021199828E+01  0.28250306309E+01  0.00000000000E+00 0. -1.
</event>
<event>
 5    1  0.6440325E+001  0.1599506E+01  0.7818608E-02  0.3353899E+00
         11   -1    0    0    0    0  0.00000000000E+00  0.00000000000E+00  0.39999999674E+01  0.40000000000E+01  0.51100000000E-03 0. -1.
    9000002   -1    0    0    0    0 -0.00000000000E+00 -0.00000000000E+00  0.00000000000E+00  0.93800000000E+00  0.93800000000E+00 0. -1.
         11    1    1    2    0    0  0.10727662016E+00  0.13338096842E+00  0.13495414631E+01  0.13603533282E+01  0.51100000000E-03 0. -1.
    9000002    1    1    2    0    0 -0.33115462107E+00 -0.34564131460E+00  0.15645859733E+00  0.10646382456E+01  0.93800000000E+00 0. -1.
         22    1    1    2    0    0  0.22387800091E+00  0.21226034619E+00  0.24939999069E+01  0.25130084261E+01  0.00000000000E+00 0. -1.
</event>
<event>
 5    1  0.6440325E+001  0.1599676E+01  0.7818608E-02  0.3353715E+00
         11   -1    0    0    0    0  0.00000000000E+00  0.00000000000E+00  0.39999999674E+01  0.40000000000E+01  0.51100000000E-03 0. -1.
    9000002   -1    0    0    0    0 -0.00000000000E+00 -0.00000000000E+00  0.00000000000E+00  0.93800000000E+00  0.93800000000E+00 0. -1.
         11    1    1    2    0    0 -0.88251185036E-01  0.10702370109E+00  0.11991579710E+01  0.12071546896E+01  0.51100000000E-03 0. -1.
    9000002    1    1    2    0    0  0.28741454569E+00 -0.34373139556E+00  0.13631377302E+00  0.10484196860E+01  0.93800000000E+00 0. -1.
         22    1    1    2    0    0 -0.19916336065E+00  0.23670769448E+00  0.26645282234E+01  0.26824256243E+01  0.00000000000E+00 0.  1.
</event>
<event>
 5    1  0.6440325E+001  0.1599677E+01  0.7818608E-02  0.3353714E+00
         11   -1    0    0    0    0  0.00000000000E+00  0.00000000000E+00  0.39999999674E+01  0.40000000000E+01  0.51100000000E-03 0.  1.
    9000002   -1    0    0    0    0 -0.00000000000E+00 -0.00000000000E+00  0.00000000000E+00  0.93800000000E+00  0.93800000000E+00 0. -1.
         11    1    1    2    0    0 -0.11515185413E+00  0.90465720018E-01  0.14188715815E+01  0.14264083643E+01  0.51100000000E-03 0.  1.
    9000002    1    1    2    0    0  0.31637953905E+00 -0.24933426871E+00  0.10948998680E+00  0.10266916029E+01  0.93800000000E+00 0. -1.
         22    1    1    2    0    0 -0.20122768492E+00  0.15886854869E+00  0.24716383991E+01  0.24849000328E+01  0.00000000000E+00 0.  1.
</event>
<event>
 5    1  0.6440325E+001  0.1599666E+01  0.7818608E-02  0.3353725E+00
         11   -1    0    0    0    0  0.00000000000E+00  0.00000000000E+00  0.39999999674E+01  0.40000000000E+01  0.51100000000E-03 0.  1.
    9000002   -1    0    0    0    0 -0.00000000000E+00 -0.00000000000E+00  0.00000000000E+00  0.93800000000E+00  0.93800000000E+00 0.  1.
         11    1    1    2    0    0  0.10808477617E+00  0.68854105361E-01  0.63878682520E+00  0.65151521536E+00  0.51100000000E-03 0.  1.
    9000002    1    1    2    0    0 -0.61820506347E+00 -0.37458892505E+00  0.37578819123E+00  0.12423989407E+01  0.93800000000E+00 0.  1.
         22    1    1    2    0    0  0.51012028730E+00  0.30573481969E+00  0.29854249509E+01  0.30440858439E+01  0.00000000000E+00 0.  1.
</event>
<event>
 5    1  0.6440325E+001  0.1581314E+01  0.7818608E-02  0.3373898E+00
         11   -1    0    0    0    0  0.00000000000E+00  0.00000000000E+00  0.39999999674E+01  0.40000000000E+01  0.51100000000E-03 0.  1.
    9000002   -1    0    0    0    0 -0.00000000000E+00 -0.00000000000E+00  0.00000000000E+00  0.93800000000E+00  0.93800000000E+00 0.  1.
         11    1    1    2    0    0 -0.18115223031E+00 -0.71052150698E-01  0.77140271716E+00  0.79556706306E+00  0.51100000000E-03 0.  1.
    9000002    1    1    2    0    0  0.46654705724E+00 -0.13833758165E+00  0.17828285977E+00  0.10716492995E+01  0.93800000000E+00 0.  1.
         22    1    1    2    0    0 -0.28539482693E+00  0.20938973234E+00  0.30503143904E+01  0.30707836374E+01  0.00000000000E+00 0.  1.
</event>
<event>
 5    1  0.6440325E+001  0.1599676E+01  0.7818608E-02  0.3353715E+00
         11   -1    0    0    0    0  0.00000000000E+00  0.00000000000E+00  0.39999999674E+01  0.40000000000E+01  0.51100000000E-03 0.  1.
    9000002   -1    0    0    0    0 -0.00000000000E+00 -0.00000000000E+00  0.00000000000E+00  0.93800000000E+00  0.93800000000E+00 0. -1.
         11    1    1    2    0    0  0.64571196125E-01  0.52950167834E-01  0.66150249076E+00  0.66675255233E+00  0.51100000000E-03 0.  1.
    9000002    1    1    2    0    0 -0.37664406949E+00 -0.31160896938E+00  0.16328103169E+00  0.10702642665E+01  0.93800000000E+00 0. -1.
         22    1    1    2    0    0  0.31207287337E+00  0.25865880155E+00  0.31752164449E+01  0.32009831811E+01  0.00000000000E+00 0.  1.
</event>
<event>
 5    1  0.6440325E+001  0.1599676E+01  0.7818608E-02  0.3353715E+00
         11   -1    0    0    0    0  0.00000000000E+00  0.00000000000E+00  0.39999999674E+01  0.40000000000E+01  0.51100000000E-03 0.  1.
    9000002   -1    0    0    0    0 -0.00000000000E+00 -0.00000000000E+00  0.00000000000E+00  0.93800000000E+00  0.93800000000E+00 0.  1.
         11    1    1    2    0    0 -0.10611256307E+00  0.80905658785E-01  0.89862351085E+00  0.90847678949E+00  0.51100000000E-03 0.  1.
    9000002    1    1    2    0    0  0.44345584699E+00 -0.34041167289E+00  0.21624272494E+00  0.11131658059E+01  0.93800000000E+00 0.  1.
         22    1    1    2    0    0 -0.33734328393E+00  0.25950601410E+00  0.28851337316E+01  0.29163574046E+01  0.00000000000E+00 0.  1.
</event>
<event>
 5    1  0.6440325E+001  0.1598827E+01  0.7818608E-02  0.3354638E+00
         11   -1    0    0    0    0  0.00000000000E+00  0.00000000000E+00  0.39999999674E+01  0.40000000000E+01  0.51100000000E-03 0.  1.
    9000002   -1    0    0    0    0 -0.00000000000E+00 -0.00000000000E+00  0.00000000000E+00  0.93800000000E+00  0.93800000000E+00 0. -1.
         11    1    1    2    0    0 -0.50099760689E-01 -0.15131448851E-01  0.65908133031E+00  0.66115611458E+00  0.51100000000E-03 0.  1.
    9000002    1    1    2    0    0  0.26588195352E+00  0.24256585027E+00  0.87637710031E-01  0.10084918310E+01  0.93800000000E+00 0. -1.
         22    1    1    2    0    0 -0.21578219283E+00 -0.22743440141E+00  0.32532809270E+01  0.32683520544E+01  0.00000000000E+00 0.  1.
</event>
<event>
 5    1  0.6440325E+001  0.1597888E+01  0.7818608E-02  0.3355658E+00
         11   -1    0    0    0    0  0.00000000000E+00  0.00000000000E+00  0.39999999674E+01  0.40000000000E+01  0.51100000000E-03 0.  1.
    9000002   -1    0    0    0    0 -0.00000000000E+00 -0.00000000000E+00  0.00000000000E+00  0.93800000000E+00  0.93800000000E+00 0. -1.
         11    1    1    2    0    0 -0.26088163262E-01  0.24226683843E-01  0.43619933186E+00  0.43765013733E+00  0.51100000000E-03 0.  1.
    9000002    1    1    2    0    0  0.24503512751E-01 -0.41261178452E+00  0.11694612451E+00  0.10316827530E+01  0.93800000000E+00 0. -1.
         22    1    1    2    0    0  0.15846505101E-02  0.38838510067E+00  0.34468545110E+01  0.34686671096E+01  0.00000000000E+00 0.  1.
</event>
<event>
 5    1  0.6440325E+001  0.1597552E+01  0.7818608E-02  0.3356024E+00
         11   -1    0    0    0    0  0.00000000000E+00  0.00000000000E+00  0.39999999674E+01  0.40000000000E+01  0.51100000000E-03 0. -1.
    9000002   -1    0    0    0    0 -0.00000000000E+00 -0.00000000000E+00  0.00000000000E+00  0.93800000000E+00  0.93800000000E+00 0. -1.
         11    1    1    2    0    0 -0.20475180030E+00  0.25242078676E-01  0.13487296603E+01  0.13644165126E+01  0.51100000000E-03 0. -1.
    9000002    1    1    2    0    0  0.44548045525E+00 -0.14264242817E-01  0.13667032173E+00  0.10474631647E+01  0.93800000000E+00 0. -1.
         22    1    1    2    0    0 -0.24072865495E+00 -0.10977835859E-01  0.25145999853E+01  0.25261203226E+01  0.00000000000E+00 0. -1.
</event>
<event>
 5    1  0.6440325E+001  0.1587003E+01  0.7818608E-02  0.3367592E+00
         11   -1    0    0    0    0  0.00000000000E+00  0.00000000000E+00  0.39999999674E+01  0.40000000000E+01  0.51100000000E-03 0. -1.
    9000002   -1    0    0    0    0 -0.00000000000E+00 -0.00000000000E+00  0.00000000000E+00  0.93800000000E+00  0.93800000000E+00 0. -1.
         11    1    1    2    0    0  0.17525728156E+00  0.15689149712E-01  0.67681532034E+00  0.69931430925E+00  0.51100000000E-03 0. -1.
    9000002    1    1    2    0    0 -0.44422229594E+00  0.13006805957E+00  0.15694196329E+00  0.10576984108E+01  0.93800000000E+00 0. -1.
         22    1    1    2    0    0  0.26896501438E+00 -0.14575720928E+00  0.31662426837E+01  0.31809872800E+01  0.00000000000E+00 0. -1.
</event>
<event>
 5    1  0.6440325E+001  0.1588364E+01  0.7818608E-02  0.3366090E+00
         11   -1    0    0    0    0  0.00000000000E+00  0.00000000000E+00  0.39999999674E+01  0.40000000000E+01  0.51100000000E-03 0.  1.
    9000002   -1    0    0    0    0 -0.00000000000E+00 -0.00000000000E+00  0.00000000000E+00  0.93800000000E+00  0.93800000000E+00 0. -1.
         11    1    1    2    0    0 -0.68413861348E-01 -0.26301894207E-02  0.36023863062E+00  0.36668720517E+00  0.51100000000E-03 0.  1.
    9000002    1    1    2    0    0  0.10682658559E+00  0.52609262495E+00  0.20917937404E+00  0.11008112372E+01  0.93800000000E+00 0. -1.
         22    1    1    2    0    0 -0.38412724240E-01 -0.52346243553E+00  0.34305819627E+01  0.34705015576E+01  0.00000000000E+00 0.  1.
</event>
<event>
 5    1  0.6440325E+001  0.1599665E+01  0.7818608E-02  0.3353727E+00
         11   -1    0    0    0    0  0.00000000000E+00  0.00000000000E+00  0.39999999674E+01  0.40000000000E+01  0.51100000000E-03 0.  1.
    9000002   -1    0    0    0    0 -0.00000000000E+00 -0.00000000000E+00  0.00000000000E+00  0.93800000000E+00  0.93800000000E+00 0.  1.
         11    1    1    2    0    0  0.14323128585E+00 -0.34768224216E-01  0.99672256521E+00  0.10075614938E+01  0.51100000000E-03 0.  1.
    9000002    1    1    2    0    0 -0.53180929944E+00  0.13726624131E+00  0.20834016802E+00  0.11067577773E+01  0.93800000000E+00 0.  1.
         22    1    1    2    0    0  0.38857801359E+00 -0.10249801710E+00  0.27949372341E+01  0.28236807289E+01  0.00000000000E+00 0.  1.
</event>
<event>
 5    1  0.6639099E+001  0.1599654E+01  0.7818608E-02  0.3353739E+00
         11   -1    0    0    0    0  0.00000000000E+00  0.00000000000E+00  0.39999999674E+01  0.40000000000E+01  0.51100000000E-03 0. -1.
    9000002   -1    0    0    0    0 -0.00000000000E+00 -0.00000000000E+00  0.00000000000E+00  0.93800000000E+00  0.93800000000E+00 0.  1.
         11    1    1    2    0    0 -0.96119032636E-01  0.96254557671E-01  0.14636781708E+01  0.14699856656E+01  0.51100000000E-03 0. -1.
    9000002    1    1    2    0    0  0.26041191942E+00 -0.27111647484E+00  0.95056751982E-01  0.10149868456E+01  0.93800000000E+00 0.  1.
         22    1    1    2    0    0 -0.16429288678E+00  0.17486191717E+00  0.24412650445E+01  0.24530274887E+01  0.00000000000E+00 0. -1.
</event>
<event>
 5    1  0.6440325E+001  0.1599661E+01  0.7818608E-02  0.3353731E+00
         11   -1    0    0    0    0  0.00000000000E+00  0.00000000000E+00  0.39999999674E+01  0.40000000000E+01  0.51100000000E-03 0. -1.
    9000002   -1    0    0    0    0 -0.00000000000E+00 -0.00000000000E+00  0.00000000000E+00  0.93800000000E+00  0.93800000000E+00 0. -1.
         11    1    1    2    0    0  0.13799410733E+00 -0.37529108397E-01  0.13885541604E+01  0.13958988950E+01  0.51100000000E-03 0. -1.
    9000002    1    1    2    0    0 -0.38188724881E+00  0.93477521494E-01  0.10418718504E+00  0.10223868580E+01  0.93800000000E+00 0. -1.
         22    1    1    2    0    0  0.24389314148E+00 -0.55948413098E-01  0.25072586219E+01  0.25197142470E+01  0.00000000000E+00 0. -1.
</event>
<event>
 5    1  0.6440325E+001  0.1591455E+01  0.7818608E-02  0.3362690E+00
         11   -1    0    0    0    0  0.00000000000E+00  0.00000000000E+00  0.39999999674E+01  0.40000000000E+01  0.51100000000E-03 0.  1.
    9000002   -1    0    0    0    0 -0.00000000000E+00 -0.00000000000E+00  0.00000000000E+00  0.93800000000E+00  0.93800000000E+00 0. -1.
         11    1    1    2    0    0  0.82791225762E-01 -0.80911840797E-01  0.71334130600E+00  0.72267364212E+00  0.51100000000E-03 0.  1.
    9000002    1    1    2    0    0 -0.36540856981E+00 -0.11131197087E-01  0.96484795497E-01  0.10113360679E+01  0.93800000000E+00 0. -1.
         22    1    1    2    0    0  0.28261734405E+00  0.92043037883E-01  0.31901738659E+01  0.32039902900E+01  0.00000000000E+00 0.  1.
</event>
<event>
 5    1  0.6440325E+001  0.1599135E+01  0.7818608E-02  0.3354302E+00
         11   -1    0    0    0    0  0.00000000000E+00  0.00000000000E+00  0.39999999674E+01  0.40000000000E+01  0.51100000000E-03 0.  1.
    9000002   -1    0    0    0    0 -0.00000000000E+00 -0.00000000000E+00  0.00000000000E+00  0.93800000000E+00  0.93800000000E+00 0. -1.
         11    1    1    2    0    0 -0.15692671371E-01  0.40277958199E-01  0.26128924302E+00  0.26484127981E+00  0.51100000000E-03 0.  1.
    9000002    1    1    2    0    0  0.15039777784E+00 -0.40384300565E+00  0.12624636655E+00  0.10399475034E+01  0.93800000000E+00 0. -1.
         22    1    1    2    0    0 -0.13470510647E+00  0.36356504745E+00  0.36124643578E+01  0.36332112168E+01  0.00000000000E+00 0.  1.
</event>
<event>
 5    1  0.6440325E+001  0.1598889E+01  0.7818608E-02  0.3354570E+00
         11   -1    0    0    0    0  0.00000000000E+00  0.00000000000E+00  0.39999999674E+01  0.40000000000E+01  0.51100000000E-03 0.  1.
    9000002   -1    0    0    0    0 -0.00000000000E+00 -0.00000000000E+00  0.00000000000E+00  0.93800000000E+00  0.93800000000E+00 0. -1.
         11    1    1    2    0    0 -0.21043677395E-01  0.11324215189E+00  0.11418655003E+01  0.11476600992E+01  0.51100000000E-03 0.  1.
    9000002    1    1    2    0    0  0.87929783675E-01 -0.48330602343E+00  0.16565910422E+00  0.10717291159E+01  0.93800000000E+00 0. -1.
         22    1    1    2    0    0 -0.66886106280E-01  0.37006387154E+00  0.26924753628E+01  0.27186107849E+01  0.00000000000E+00 0.  1.
</event>
<event>
 5    1  0.6440325E+001  0.1599675E+01  0.7818608E-02  0.3353716E+00
         11   -1    0    0    0    0  0.00000000000E+00  0.00000000000E+00  0.39999999674E+01  0.40000000000E+01  0.51100000000E-03 0.  1.
    9000002   -1    0    0    0    0 -0.00000000000E+00 -0.00000000000E+00  0.00000000000E+00  0.93800000000E+00  0.93800000000E+00 0. -1.
         11    1    1    2    0    0 -0.28358606802E-01  0.13314416056E+00  0.12409804347E+01  0.12484247188E+01  0.51100000000E-03 0.  1.
    9000002    1    1    2    0    0  0.90776267916E-01 -0.41201079695E+00  0.12041018418E+00  0.10355364987E+01  0.93800000000E+00 0. -1.
         22    1    1    2    0    0 -0.62417661114E-01  0.27886663639E+00  0.26386093484E+01  0.26540387825E+01  0.00000000000E+00 0. -1.
</event>
<event>
 5    1  0.6440325E+001  0.1599320E+01  0.7818608E-02  0.3354101E+00
         11   -1    0    0    0    0  0.00000000000E+00  0.00000000000E+00  0.39999999674E+01  0.40000000000E+01  0.51100000000E-03 0. -1.
    9000002   -1    0    0    0    0 -0.00000000000E+00 -0.00000000000E+00  0.00000000000E+00  0.93800000000E+00  0.93800000000E+00 0. -1.
         11    1    1    2    0    0  0.94100602470E-02  0.43354135227E-01  0.56734807349E+00  0.56908015946E+00  0.51100000000E-03 0. -1.
    9000002    1    1    2    0    0 -0.17534032466E+00 -0.30378493025E+00  0.82786720222E-01  0.10048518072E+01  0.93800000000E+00 0. -1.
         22    1    1    2    0    0  0.16593026441E+00  0.26043079502E+00  0.33498651736E+01  0.33640680334E+01  0.00000000000E+00 0. -1.
</event>
<event>
 5    1  0.6440325E+001  0.1599676E+01  0.7818608E-02  0.3353715E+00
         11   -1    0    0    0    0  0.00000000000E+00  0.00000000000E+00  0.39999999674E+01  0.40000000000E+01  0.51100000000E-03 0. -1.
    9000002   -1    0    0    0    0 -0.00000000000E+00 -0.00000000000E+00  0.00000000000E+00  0.93800000000E+00  0.93800000000E+00 0. -1.
         11    1    1    2    0    0  0.64428374728E-02  0.79308513925E-01  0.87700413852E+00  0.88060653566E+00  0.51100000000E-03 0. -1.
    9000002    1    1    2    0    0 -0.26196307592E-01 -0.35560966013E+00  0.85314595510E-01  0.10071082648E+01  0.93800000000E+00 0. -1.
         22    1    1    2    0    0  0.19753470119E-01  0.27630114620E+00  0.30376812333E+01  0.30502851995E+01  0.00000000000E+00 0.  1.
</event>
<event>
 5    1  0.6440325E+001  0.1587055E+01  0.7818608E-02  0.3367534E+00
         11   -1    0    0    0    0  0.00000000000E+00  0.00000000000E+00  0.39999999674E+01  0.40000000000E+01  0.51100000000E-03 0.  1.
    9000002   -1    0    0    0    0 -0.00000000000E+00 -0.00000000000E+00  0.00000000000E+00  0.93800000000E+00  0.93800000000E+00 0. -1.
         11    1    1    2    0    0 -0.60695126236E-02  0.34223002813E-01  0.57532193018E-01  0.67218057540E-01  0.51100000000E-03 0.  1.
    9000002    1    1    2    0    0  0.36301193282E+00 -0.23263618284E-01  0.99181228875E-01  0.10109400454E+01  0.93800000000E+00 0. -1.
         22    1    1    2    0    0 -0.35694242020E+00 -0.10959384529E-01  0.38432865455E+01  0.38598418970E+01  0.00000000000E+00 0.  1.
</event>
<event>
 5    1  0.6440325E+001  0.1599673E+01  0.7818608E-02  0.3353718E+00
         11   -1    0    0    0    0  0.00000000000E+00  0.00000000000E+00  0.39999999674E+01  0.40000000000E+01  0.51100000000E-03 0.  1.
    9000002   -1    0    0    0    0 -0.00000000000E+00 -0.00000000000E+00  0.00000000000E+00  0.93800000000E+00  0.93800000000E+00 0. -1.
         11    1    1    2    0    0 -0.25710044484E+00  0.67474878734E-01  0.11444684553E+01  0.11749305529E+01  0.51100000000E-03 0.  1.
    9000002    1    1    2    0    0  0.79302555681E+00 -0.20878370520E+00  0.49882800762E+00  0.13420706205E+01  0.93800000000E+00 0. -1.
         22    1    1    2    0    0 -0.53592511197E+00  0.14130882646E+00  0.23567035045E+01  0.24209988265E+01  0.00000000000E+00 0.  1.
</event>
<event>
 5    1  0.6440325E+001  0.1480061E+01  0.7818608E-02  0.3494800E+00
         11   -1    0    0    0    0  0.00000000000E+00  0.00000000000E+00  0.39999999674E+01  0.40000000000E+01  0.51100000000E-03 0. -1.
    9000002   -1    0    0    0    0 -0.00000000000E+00 -0.00000000000E+00  0.00000000000E+00  0.93800000000E+00  0.93800000000E+00 0.  1.
         11    1    1    2    0    0 -0.12876887730E+00  0.11894487822E+00  0.16063670950E+00  0.23776820935E+00  0.51100000000E-03 0. -1.
    9000002    1    1    2    0    0  0.36689350760E-02  0.21593278194E+00  0.12721559564E+00  0.97091103360E+00  0.93800000000E+00 0.  1.
         22    1    1    2    0    0  0.12509994223E+00 -0.33487766016E+00  0.37121476622E+01  0.37293207570E+01  0.00000000000E+00 0. -1.
</event>
<event>
 5    1  0.6440325E+001  0.1598235E+01  0.7818608E-02  0.3355281E+00
         11   -1    0    0    0    0  0.00000000000E+00  0.00000000000E+00  0.39999999674E+01  0.40000000000E+01  0.51100000000E-03 0.  1.
    9000002   -1    0    0    0    0 -0.00000000000E+00 -0.00000000000E+00  0.00000000000E+00  0.93800000000E+00  0.93800000000E+00 0.  1.
         11    1    1    2    0    0  0.45757510396E-01 -0.76633299338E-01  0.93293158337E+00  0.93719155603E+00  0.51100000000E-03 0.  1.
    9000002    1    1    2    0    0 -0.32642668657E+00  0.22954534874E+00  0.10860127171E+00  0.10251261801E+01  0.93800000000E+00 0.  1.
         22    1    1    2    0    0  0.28066917617E+00 -0.15291204940E+00  0.29584671123E+01  0.29756822639E+01  0.00000000000E+00 0.  1.
</event>
<event>
 5    1  0.6440325E+001  0.1599676E+01  0.7818608E-02  0.3353715E+00
         11   -1    0    0    0    0  0.00000000000E+00  0.00000000000E+00  0.39999999674E+01  0.40000000000E+01  0.51100000000E-03 0. -1.
    9000002   -1    0    0    0    0 -0.00000000000E+00 -0.00000000000E+00  0.00000000000E+00  0.93800000000E+00  0.93800000000E+00 0. -1.
         11    1    1    2    0    0  0.78003298125E-01 -0.42700894106E-01  0.72124864517E+00  0.72671022434E+00  0.51100000000E-03 0. -1.
    9000002    1    1    2    0    0 -0.41193237812E+00  0.22819291027E+00  0.15109527947E+00  0.10603933572E+01  0.93800000000E+00 0. -1.
         22    1    1    2    0    0  0.33392908000E+00 -0.18549201616E+00  0.31276560427E+01  0.31508964185E+01  0.00000000000E+00 0. -1.
</event>
<event>
 5    1  0.6440325E+001  0.1595613E+01  0.7818608E-02  0.3358139E+00
         11   -1    0    0    0    0  0.00000000000E+00  0.00000000000E+00  0.39999999674E+01  0.40000000000E+01  0.51100000000E-03 0. -1.
    9000002   -1    0    0    0    0 -0.00000000000E+00 -0.00000000000E+00  0.00000000000E+00  0.93800000000E+00  0.93800000000E+00 0. -1.
         11    1    1    2    0    0  0.18713480649E-01 -0.99380511106E-02  0.81638460200E+00  0.81665968354E+00  0.51100000000E-03 0. -1.
    9000002    1    1    2    0    0 -0.38624035404E+00  0.77559237008E-01  0.10797797874E+00  0.10230837161E+01  0.93800000000E+00 0. -1.
         22    1    1    2    0    0  0.36752687339E+00 -0.67621185897E-01  0.30756373866E+01  0.30982566003E+01  0.00000000000E+00 0. -1.
</event>
<event>
 5    1  0.6440325E+001  0.1524152E+01  0.7818608E-02  0.3440038E+00
         11   -1    0    0    0    0  0.00000000000E+00  0.00000000000E+00  0.39999999674E+01  0.40000000000E+01  0.51100000000E-03 0. -1.
    9000002   -1    0    0    0    0 -0.00000000000E+00 -0.00000000000E+00  0.00000000000E+00  0.93800000000E+00  0.93800000000E+00 0.  1.
         11    1    1    2    0    0 -0.48896810110E-01 -0.29431256507E+00  0.11763118881E+01  0.12135570457E+01  0.51100000000E-03 0. -1.
    9000002    1    1    2    0    0 -0.21158345309E+00  0.40013607766E-01  0.89972217648E-01  0.96659590645E+00  0.93800000000E+00 0.  1.
         22    1    1    2    0    0  0.26048026320E+00  0.25429895731E+00  0.27337158616E+01  0.27578470478E+01  0.00000000000E+00 0. -1.
</event>
<event>
 5    1  0.6440325E+001  0.1597094E+01  0.7818608E-02  0.3356524E+00
         11   -1    0    0    0    0  0.00000000000E+00  0.00000000000E+00  0.39999999674E+01  0.40000000000E+01  0.51100000000E-03 0. -1.
    9000002   -1    0    0    0    0 -0.00000000000E+00 -0.00000000000E+00  0.00000000000E+00  0.93800000000E+00  0.93800000000E+00 0. -1.
         11    1    1    2    0    0 -0.35672253487E-01 -0.23039687459E-01  0.20255512497E+00  0.20695935988E+00  0.51100000000E-03 0. -1.
    9000002    1    1    2    0    0  0.39295033940E+00  0.61109991016E-02  0.10622712280E+00  0.10225338699E+01  0.93800000000E+00 0. -1.
         22    1    1    2    0    0 -0.35727808591E+00  0.16928688357E-01  0.36912177196E+01  0.37085067702E+01  0.00000000000E+00 0. -1.
</event>
<event>
 5    1  0.6440325E+001  0.1599453E+01  0.7818608E-02  0.3353958E+00
         11   -1    0    0    0    0  0.00000000000E+00  0.00000000000E+00  0.39999999674E+01  0.40000000000E+01  0.51100000000E-03 0. -1.
    9000002   -1    0    0    0    0 -0.00000000000E+00 -0.00000000000E+00  0.00000000000E+00  0.93800000000E+00  0.93800000000E+00 0. -1.
         11    1    1    2    0    0  0.13539501582E-01 -0.12258971740E+00  0.10001069421E+01  0.10076833400E+01  0.51100000000E-03 0. -1.
    9000002    1    1    2    0    0 -0.68417180260E-01  0.41613337710E+00  0.12049718077E+00  0.10354764452E+01  0.93800000000E+00 0. -1.
         22    1    1    2    0    0  0.54877678678E-01 -0.29354365970E+00  0.28793958445E+01  0.28948402148E+01  0.00000000000E+00 0. -1.
</event>
<event>
 5    1  0.6440325E+001  0.1598974E+01  0.7818608E-02  0.3354478E+00
         11   -1    0    0    0    0  0.00000000000E+00  0.00000000000E+00  0.39999999674E+01  0.40000000000E+01  0.51100000000E-03 0.  1.
    9000002   -1    0    0    0    0 -0.00000000000E+00 -0.00000000000E+00  0.00000000000E+00  0.93800000000E+00  0.93800000000E+00 0.  1.
         11    1    1    2    0    0 -0.43120743376E-01  0.25670111620E+00  0.11392413924E+01  0.11686000483E+01  0.51100000000E-03 0.  1.
    9000002    1    1    2    0    0  0.94888872124E-01 -0.85963251675E+00  0.56525011459E+00  0.13954653897E+01  0.93800000000E+00 0.  1.
         22    1    1    2    0    0 -0.51768128748E-01  0.60293140056E+00  0.22955084604E+01  0.23739345620E+01  0.00000000000E+00 0.  1.
</event>
<event>
 5    1  0.6440325E+001  0.1598515E+01  0.7818608E-02  0.3354977E+00
         11   -1    0    0    0    0  0.00000000000E+00  0.00000000000E+00  0.39999999674E+01  0.40000000000E+01  0.51100000000E-03 0.  1.
    9000002   -1    0    0    0    0 -0.00000000000E+00 -0.00000000000E+00  0.00000000000E+00  0.93800000000E+00  0.93800000000E+00 0. -1.
         11    1    1    2    0    0  0.15931153150E-01 -0.31606328877E-02  0.40817689871E+00  0.40850022400E+00  0.51100000000E-03 0.  1.
    9000002    1    1    2    0    0 -0.39003225906E+00 -0.43326886766E-02  0.10345619226E+00  0.10211224799E+01  0.93800000000E+00 0. -1.
         22    1    1    2    0    0  0.37410110591E+00  0.74933215643E-02  0.34883668764E+01  0.35083772961E+01  0.00000000000E+00 0.  1.
</event>
<event>
 5    1  0.6440325E+001  0.1599307E+01  0.7818608E-02  0.3354116E+00
         11   -1    0    0    0    0  0.00000000000E+00  0.00000000000E+00  0.39999999674E+01  0.40000000000E+01  0.51100000000E-03 0.  1.
    9000002   -1    0    0    0    0 -0.00000000000E+00 -0.00000000000E+00  0.00000000000E+00  0.93800000000E+00  0.93800000000E+00 0. -1.
         11    1    1    2    0    0  0.14922835306E+00  0.74105875382E-01  0.12626705715E+01  0.12736161178E+01  0.51100000000E-03 0.  1.
    9000002    1    1    2    0    0 -0.39803442919E+00 -0.19510710173E+00  0.13364549569E+00  0.10460417327E+01  0.93800000000E+00 0. -1.
         22    1    1    2    0    0  0.24880607612E+00  0.12100122635E+00  0.26036839002E+01  0.26183421496E+01  0.00000000000E+00 0.  1.
</event>
<event>
 5    1  0.6440325E+001  0.1599308E+01  0.7818608E-02  0.3354115E+00
         11   -1    0    0    0    0  0.00000000000E+00  0.00000000000E+00  0.39999999674E+01  0.40000000000E+01  0.51100000000E-03 0.  1.
    9000002   -1    0    0    0    0 -0.00000000000E+00 -0.00000000000E+00  0.00000000000E+00  0.93800000000E+00  0.93800000000E+00 0. -1.
         11    1    1    2    0    0  0.17218588530E-01  0.66689052694E-01  0.63687078498E+00  0.64058455134E+00  0.51100000000E-03 0.  1.
    9000002    1    1    2    0    0 -0.19637248655E+00 -0.35624405716E+00  0.11202118648E+00  0.10285255116E+01  0.93800000000E+00 0. -1.
         22    1    1    2    0    0  0.17915389802E+00  0.28955500446E+00  0.32511079959E+01  0.32688899371E+01  0.00000000000E+00 0.  1.
</event>
<event>
 5    1  0.6440325E+001  0.1599565E+01  0.7818608E-02  0.3353836E+00
         11   -1    0    0    0    0  0.00000000000E+00  0.00000000000E+00  0.39999999674E+01  0.40000000000E+01  0.51100000000E-03 0.  1.
    9000002   -1    0    0    0    0 -0.00000000000E+00 -0.00000000000E+00  0.00000000000E+00  0.93800000000E+00  0.93800000000E+00 0. -1.
         11    1    1    2    0    0  0.43402188223E-01  0.87758639328E-01  0.11292104988E+01  0.11334469289E+01  0.51100000000E-03 0.  1.
    9000002    1    1    2    0    0 -0.16973120778E+00 -0.33837994053E+00  0.96499997784E-01  0.10161033002E+01  0.93800000000E+00 0. -1.
         22    1    1    2    0    0  0.12632901956E+00  0.25062130120E+00  0.27742894707E+01  0.27884497710E+01  0.00000000000E+00 0.  1.
</event>
<event>
 5    1  0.6440325E+001  0.1598657E+01  0.7818608E-02  0.3354823E+00
         11   -1    0    0    0    0  0.00000000000E+00  0.00000000000E+00  0.39999999674E+01  0.40000000000E+01  0.51100000000E-03 0.  1.
    9000002   -1    0    0    0    0 -0.00000000000E+00 -0.00000000000E+00  0.00000000000E+00  0.93800000000E+00  0.93800000000E+00 0.  1.
         11    1    1    2    0    0 -0.60710362544E-01 -0.20457773719E+00  0.14612344246E+01  0.14767342697E+01  0.51100000000E-03 0.  1.
    9000002    1    1    2    0    0  0.69371283543E-01  0.49603109387E+00  0.17267230275E+00  0.10772738488E+01  0.93800000000E+00 0.  1.
         22    1    1    2    0    0 -0.86609209994E-02 -0.29145335668E+00  0.23660932400E+01  0.23839918815E+01  0.00000000000E+00 0. -1.
</event>
<event>
 5    1  0.6440325E+001  0.1599650E+01  0.7818608E-02  0.3353743E+00
         11   -1    0    0    0    0  0.00000000000E+00  0.00000000000E+00  0.39999999674E+01  0.40000000000E+01  0.51100000000E-03 0.  1.
    9000002   -1    0    0    0    0 -0.00000000000E+00 -0.00000000000E+00  0.00000000000E+00  0.93800000000E+00  0.93800000000E+00 0. -1.
         11    1    1    2    0    0  0.16845030553E-02 -0.54306930091E-01  0.34651895516E+00  0.35075308639E+00  0.51100000000E-03 0.  1.
    9000002    1    1    2    0    0  0.17630846519E-01  0.57593208387E+00  0.23052481408E+00  0.11247196548E+01  0.93800000000E+00 0. -1.
         22    1    1    2    0    0 -0.19315349574E-01 -0.52162515378E+00  0.34229561981E+01  0.34625272588E+01  0.00000000000E+00 0.  1.
</event>
<event>
 5    1  0.6440325E+001  0.1599529E+01  0.7818608E-02  0.3353875E+00
         11   -1    0    0    0    0  0.00000000000E+00  0.00000000000E+00  0.39999999674E+01  0.40000000000E+01  0.51100000000E-03 0.  1.
    9000002   -1    0    0    0    0 -0.00000000000E+00 -0.00000000000E+00  0.00000000000E+00  0.93800000000E+00  0.93800000000E+00 0. -1.
         11    1    1    2    0    0  0.11719227723E+00 -0.65864819942E-01  0.82189831797E+00  0.83282009495E+00  0.51100000000E-03 0.  1.
    9000002    1    1    2    0    0 -0.51746125410E+00  0.35183425256E+00  0.27489086453E+00  0.11605871265E+01  0.93800000000E+00 0. -1.
         22    1    1    2    0    0  0.40026897686E+00 -0.28596943262E+00  0.29032107849E+01  0.29445927786E+01  0.00000000000E+00 0.  1.
</event>
<event>
 5    1  0.6440325E+001  0.1577529E+01  0.7818608E-02  0.3378120E+00
         11   -1    0    0    0    0  0.00000000000E+00  0.00000000000E+00  0.39999999674E+01  0.40000000000E+01  0.51100000000E-03 0. -1.
    9000002   -1    0    0    0    0 -0.00000000000E+00 -0.00000000000E+00  0.00000000000E+00  0.93800000000E+00  0.93800000000E+00 0. -1.
         11    1    1    2    0    0  0.10482750270E+00 -0.48643593957E-01  0.11431165435E+01  0.11489432961E+01  0.51100000000E-03 0. -1.
    9000002    1    1    2    0    0  0.14269823239E+00 -0.76792212839E-01  0.33932154577E-01  0.95249945963E+00  0.93800000000E+00 0. -1.
         22    1    1    2    0    0 -0.24752573510E+00  0.12543580680E+00  0.28229512693E+01  0.28365572442E+01  0.00000000000E+00 0. -1.
</event>
<event>
 5    1  0.6440325E+001  0.1599667E+01  0.7818608E-02  0.3353725E+00
         11   -1    0    0    0    0  0.00000000000E+00  0.00000000000E+00  0.39999999674E+01  0.40000000000E+01  0.51100000000E-03 0. -1.
    9000002   -1    0    0    0    0 -0.00000000000E+00 -0.00000000000E+00  0.00000000000E+00  0.93800000000E+00  0.93800000000E+00 0.  1.
         11    1    1    2    0    0 -0.86038353148E-02 -0.45207389691E-01  0.34019126777E+00  0.34329010159E+00  0.51100000000E-03 0. -1.
    9000002    1    1    2    0    0  0.88923780170E-01  0.48682150672E+00  0.16751514676E+00  0.10736889412E+01  0.93800000000E+00 0.  1.
         22    1    1    2    0    0 -0.80319944856E-01 -0.44161411703E+00  0.34922935528E+01  0.35210209572E+01  0.00000000000E+00 0. -1.
</event>
<event>
 5    1  0.8207582E+001  0.1599296E+01  0.7818608E-02  0.3354127E+00
         11   -1    0    0    0    0  0.00000000000E+00  0.00000000000E+00  0.39999999674E+01  0.40000000000E+01  0.51100000000E-03 0.  1.
    9000002   -1    0    0    0    0 -0.00000000000E+00 -0.00000000000E+00  0.00000000000E+00  0.93800000000E+00  0.93800000000E+00 0. -1.
         11    1    1    2    0    0 -0.12264963048E-01  0.75081322641E-01  0.11634073496E+01  0.11658921719E+01  0.51100000000E-03 0.  1.
    9000002    1    1    2    0    0  0.64953696586E-01 -0.32211949171E+00  0.72539499689E-01  0.99653696803E+00  0.93800000000E+00 0. -1.
         22    1    1    2    0    0 -0.52688733538E-01  0.24703816906E+00  0.27640531181E+01  0.27755708600E+01  0.00000000000E+00 0. -1.
</event>
<event>
 5    1  0.6440325E+001  0.1597733E+01  0.7818608E-02  0.3355828E+00
         11   -1    0    0    0    0  0.00000000000E+00  0.00000000000E+00  0.39999999674E+01  0.40000000000E+01  0.51100000000E-03 0. -1.
    9000002   -1    0    0    0    0 -0.00000000000E+00 -0.00000000000E+00  0.00000000000E+00  0.93800000000E+00  0.93800000000E+00 0. -1.
         11    1    1    2    0    0 -0.23051373800E-01  0.17577553468E+00  0.10971861735E+01  0.11114162878E+01  0.51100000000E-03 0. -1.
    9000002    1    1    2    0    0  0.23526588679E+00 -0.63045840726E+00  0.32345404937E+00  0.11988721211E+01  0.93800000000E+00 0. -1.
         22    1    1    2    0    0 -0.21221451299E+00  0.45468287258E+00  0.25793597445E+01  0.26277115911E+01  0.00000000000E+00 0. -1.
</event>
<event>
 5    1  0.6440325E+001  0.1599677E+01  0.7818608E-02  0.3353714E+00
         11   -1    0    0    0    0  0.00000000000E+00  0.00000000000E+00  0.39999999674E+01  0.40000000000E+01  0.51100000000E-03 0. -1.
    9000002   -1    0    0    0    0 -0.00000000000E+00 -0.00000000000E+00  0.00000000000E+00  0.93800000000E+00  0.93800000000E+00 0. -1.
         11    1    1    2    0    0 -0.14405525161E+00 -0.20537780367E-01  0.10071158354E+01  0.10175737236E+01  0.51100000000E-03 0.  1.
    9000002    1    1    2    0    0  0.54183286735E+00  0.77855462954E-01  0.20686278968E+00  0.11055679730E+01  0.93800000000E+00 0. -1.
         22    1    1    2    0    0 -0.39777761573E+00 -0.57317682587E-01  0.27860213423E+01  0.28148583034E+01  0.00000000000E+00 0. -1.
</event>
<event>
 5    1  0.6440325E+001  0.1594073E+01  0.7818608E-02  0.3359821E+00
         11   -1    0    0    0    0  0.00000000000E+00  0.00000000000E+00  0.39999999674E+01  0.40000000000E+01  0.51100000000E-03 0.  1.
    9000002   -1    0    0    0    0 -0.00000000000E+00 -0.00000000000E+00  0.00000000000E+00  0.93800000000E+00  0.93800000000E+00 0.  1.
         11    1    1    2    0    0 -0.14568273896E+00  0.14454243678E+00  0.10906433157E+01  0.11097833481E+01  0.51100000000E-03 0.  1.
    9000002    1    1    2    0    0  0.23471209920E+00 -0.43119742708E+00  0.16976886321E+00  0.10722343296E+01  0.93800000000E+00 0.  1.
         22    1    1    2    0    0 -0.89029360241E-01  0.28665499030E+00  0.27395877884E+01  0.27559823223E+01  0.00000000000E+00 0.  1.
</event>
<event>
 5    1  0.6440325E+001  0.1542838E+01  0.7818608E-02  0.3417841E+00
         11   -1    0    0    0    0  0.00000000000E+00  0.00000000000E+00  0.39999999674E+01  0.40000000000E+01  0.51100000000E-03 0. -1.
    9000002   -1    0    0    0    0 -0.00000000000E+00 -0.00000000000E+00  0.00000000000E+00  0.93800000000E+00  0.93800000000E+00 0.  1.
         11    1    1    2    0    0 -0.21222381620E+00 -0.38394364908E-01  0.13505830877E+01  0.13676944152E+01  0.51100000000E-03 0. -1.
    9000002    1    1    2    0    0 -0.38779513093E-01 -0.33238044448E+00  0.12178450260E+00  0.10033225182E+01  0.93800000000E+00 0.  1.
         22    1    1    2    0    0  0.25100332930E+00  0.37077480938E+00  0.25276323771E+01  0.25669830666E+01  0.00000000000E+00 0.  1.
</event>
<event>
 5    1  0.6440325E+001  0.1599491E+01  0.7818608E-02  0.3353917E+00
         11   -1    0    0    0    0  0.00000000000E+00  0.00000000000E+00  0.39999999674E+01  0.40000000000E+01  0.51100000000E-03 0.  1.
    9000002   -1    0    0    0    0 -0.00000000000E+00 -0.00000000000E+00  0.00000000000E+00  0.93800000000E+00  0.93800000000E+00 0. -1.
         11    1    1    2    0    0  0.11482615661E-01 -0.59458331587E-02  0.13627882785E+00  0.13689186768E+00  0.51100000000E-03 0.  1.
    9000002    1    1    2    0    0 -0.48529207699E+00  0.11336752463E+00  0.17013773648E+00  0.10757097401E+01  0.93800000000E+00 0. -1.
         22    1    1    2    0    0  0.47380946133E+00 -0.10742169147E+00  0.36935834030E+01  0.37253983922E+01  0.00000000000E+00 0.  1.
</event>
<event>
 5    1  0.6440325E+001  0.1599595E+01  0.7818608E-02  0.3353803E+00
         11   -1    0    0    0    0  0.00000000000E+00  0.00000000000E+00  0.39999999674E+01  0.40000000000E+01  0.51100000000E-03 0.  1.
    9000002   -1    0    0    0    0 -0.00000000000E+00 -0.00000000000E+00  0.00000000000E+00  0.93800000000E+00  0.93800000000E+00 0.  1.
         11    1    1    2    0    0  0.43907423854E-01  0.36739950831E-01  0.43289231222E+00  0.43666199853E+00  0.51100000000E-03 0.  1.
    9000002    1    1    2    0    0 -0.33114382095E+00 -0.34339341954E+00  0.15527852496E+00  0.10637343141E+01  0.93800000000E+00 0.  1.
         22    1    1    2    0    0  0.28723639710E+00  0.30665346871E+00  0.34118291302E+01  0.34376036873E+01  0.00000000000E+00 0.  1.
</event>
<event>
 5    1  0.6440325E+001  0.1599557E+01  0.7818608E-02  0.3353845E+00
         11   -1    0    0    0    0  0.00000000000E+00  0.00000000000E+00  0.39999999674E+01  0.40000000000E+01  0.51100000000E-03 0.  1.
    9000002   -1    0    0    0    0 -0.00000000000E+00 -0.00000000000E+00  0.00000000000E+00  0.93800000000E+00  0.93800000000E+00 0.  1.
         11    1    1    2    0    0  0.12894450592E+00 -0.24904903736E-01  0.10836263172E+01  0.10915554023E+01  0.51100000000E-03 0.  1.
    9000002    1    1    2    0    0 -0.41946032943E+00  0.80657453830E-01  0.12361665766E+00  0.10380643867E+01  0.93800000000E+00 0.  1.
         22    1    1    2    0    0  0.29051582352E+00 -0.55752550094E-01  0.27927569925E+01  0.28083802110E+01  0.00000000000E+00 0.  1.
</event>
<event>
 5    1  0.6440325E+001  0.1599169E+01  0.7818608E-02  0.3354265E+00
         11   -1    0    0    0    0  0.00000000000E+00  0.00000000000E+00  0.39999999674E+01  0.40000000000E+01  0.51100000000E-03 0.  1.
    9000002   -1    0    0    0    0 -0.00000000000E+00 -0.00000000000E+00  0.00000000000E+00  0.93800000000E+00  0.93800000000E+00 0.  1.
         11    1    1    2    0    0  0.76871752454E-01 -0.14770889662E+00  0.14493133747E+01  0.14588477315E+01  0.51100000000E-03 0.  1.
    9000002    1    1    2    0    0 -0.25855168120E+00  0.34893870397E+00  0.12824193129E+00  0.10415839783E+01  0.93800000000E+00 0.  1.
         22    1    1    2    0    0  0.18167992875E+00 -0.20122980736E+00  0.24224446614E+01  0.24375682902E+01  0.00000000000E+00 0.  1.
</event>
<event>
 5    1  0.6440325E+001  0.1598999E+01  0.7818608E-02  0.3354451E+00
         11   -1    0    0    0    0  0.00000000000E+00  0.00000000000E+00  0.39999999674E+01  0.40000000000E+01  0.51100000000E-03 0. -1.
    9000002   -1    0    0    0    0 -0.00000000000E+00 -0.00000000000E+00  0.00000000000E+00  0.93800000000E+00  0.93800000000E+00 0. -1.
         11    1    1    2    0    0 -0.78366146747E-01  0.35834423642E-01  0.81295944576E+00  0.81751371881E+00  0.51100000000E-03 0. -1.
    9000002    1    1    2    0    0  0.38359467950E+00 -0.49970642266E-01  0.10132884994E+00  0.10196830287E+01  0.93800000000E+00 0. -1.
         22    1    1    2    0    0 -0.30522853275E+00  0.14136218624E-01  0.30857116717E+01  0.31008032525E+01  0.00000000000E+00 0. -1.
</event>
<event>
 5    1  0.6440325E+001  0.1548363E+01  0.7818608E-02  0.3411389E+00
         11   -1    0    0    0    0  0.00000000000E+00  0.00000000000E+00  0.39999999674E+01  0.40000000000E+01  0.51100000000E-03 0. -1.
    9000002   -1    0    0    0    0 -0.00000000000E+00 -0.00000000000E+00  0.00000000000E+00  0.93800000000E+00  0.93800000000E+00 0.  1.
         11    1    1    2    0    0 -0.23741238207E+00  0.78962927927E-01  0.13683003907E+01  0.13909874203E+01  0.51100000000E-03 0. -1.
    9000002    1    1    2    0    0  0.11640469247E+00  0.26076043895E+00  0.95324462429E-01  0.98512781510E+00  0.93800000000E+00 0.  1.
         22    1    1    2    0    0  0.12100768960E+00 -0.33972336688E+00  0.25363751143E+01  0.25618847646E+01  0.00000000000E+00 0. -1.
</event>
<event>
 5    1  0.6440325E+001  0.1599676E+01  0.7818608E-02  0.3353715E+00
         11   -1    0    0    0    0  0.00000000000E+00  0.00000000000E+00  0.39999999674E+01  0.40000000000E+01  0.51100000000E-03 0.  1.
    9000002   -1    0    0    0    0 -0.00000000000E+00 -0.00000000000E+00  0.00000000000E+00  0.93800000000E+00  0.93800000000E+00 0.  1.
         11    1    1    2    0    0 -0.49087418588E-01 -0.10084684224E+00  0.12502798968E+01  0.12553006579E+01  0.51100000000E-03 0.  1.
    9000002    1    1    2    0    0  0.15649576541E+00  0.31649172617E+00  0.83613400252E-01  0.10057301517E+01  0.93800000000E+00 0.  1.
         22    1    1    2    0    0 -0.10740834682E+00 -0.21564488394E+00  0.26661066703E+01  0.26769691904E+01  0.00000000000E+00 0.  1.
</event>
<event>
 5    1  0.6440325E+001  0.1459980E+01  0.7818608E-02  0.3520927E+00
         11   -1    0    0    0    0  0.00000000000E+00  0.00000000000E+00  0.39999999674E+01  0.40000000000E+01  0.51100000000E-03 0. -1.
    9000002   -1    0    0    0    0 -0.00000000000E+00 -0.00000000000E+00  0.00000000000E+00  0.93800000000E+00  0.93800000000E+00 0. -1.
         11    1    1    2    0    0 -0.40840588276E+00 -0.29314565974E-01  0.13004837362E+01  0.13634195679E+01  0.51100000000E-03 0. -1.
    9000002    1    1    2    0    0 -0.15621376610E+00  0.26892384082E-01  0.14970969978E+00  0.96300723531E+00  0.93800000000E+00 0. -1.
         22    1    1    2    0    0  0.56461964886E+00  0.24221818925E-02  0.25498065314E+01  0.26115731968E+01  0.00000000000E+00 0. -1.
</event>
<event>
 5    1  0.6440325E+001  0.1596868E+01  0.7818608E-02  0.3356769E+00
         11   -1    0    0    0    0  0.00000000000E+00  0.00000000000E+00  0.39999999674E+01  0.40000000000E+01  0.51100000000E-03 0. -1.
    9000002   -1    0    0    0    0 -0.00000000000E+00 -0.00000000000E+00  0.00000000000E+00  0.93800000000E+00  0.93800000000E+00 0. -1.
         11    1    1    2    0    0  0.51752368101E-01 -0.28943691427E-01  0.25280410379E+00  0.25966559436E+00  0.51100000000E-03 0. -1.
    9000002    1    1    2    0    0 -0.34507408763E+00  0.24763578044E+00  0.12446689149E+00  0.10371767510E+01  0.93800000000E+00 0. -1.
         22    1    1    2    0    0  0.29332171953E+00 -0.21869208902E+00  0.36227289721E+01  0.36411576547E+01  0.00000000000E+00 0. -1.
</event>
<event>
 5    1  0.6440325E+001  0.1595957E+01  0.7818608E-02  0.3357763E+00
         11   -1    0    0    0    0  0.00000000000E+00  0.00000000000E+00  0.39999999674E+01  0.40000000000E+01  0.51100000000E-03 0.  1.
    9000002   -1    0    0    0    0 -0.00000000000E+00 -0.00000000000E+00  0.00000000000E+00  0.93800000000E+00  0.93800000000E+00 0. -1.
         11    1    1    2    0    0 -0.13214756470E+00  0.20297276192E+00  0.12219126957E+01  0.12456852804E+01  0.51100000000E-03 0.  1.
    9000002    1    1    2    0    0  0.21528833962E+00 -0.53262899124E+00  0.23266258254E+00  0.11242858128E+01  0.93800000000E+00 0. -1.
         22    1    1    2    0    0 -0.83140774919E-01  0.32965622932E+00  0.25454246892E+01  0.25680289068E+01  0.00000000000E+00 0.  1.
</event>
<event>
 5    1  0.6440325E+001  0.1582020E+01  0.7818608E-02  0.3373113E+00
         11   -1    0    0    0    0  0.00000000000E+00  0.00000000000E+00  0.39999999674E+01  0.40000000000E+01  0.51100000000E-03 0.  1.
    9000002   -1    0    0    0    0 -0.00000000000E+00 -0.00000000000E+00  0.00000000000E+00  0.93800000000E+00  0.93800000000E+00 0. -1.
         11    1    1    2    0    0  0.41714455240E+00 -0.64823627045E-01  0.77405132022E+00  0.88168440367E+00  0.51100000000E-03 0.  1.
    9000002    1    1    2    0    0 -0.10294696834E+01  0.48461108729E+00  0.12083584260E+01  0.19064705139E+01  0.93800000000E+00 0. -1.
         22    1    1    2    0    0  0.61232513095E+00 -0.41978746024E+00  0.20175902212E+01  0.21498450824E+01  0.00000000000E+00 0.  1.
</event>
<event>
 5    1  0.6440325E+001  0.1599676E+01  0.7818608E-02  0.3353716E+00
         11   -1    0    0    0    0  0.00000000000E+00  0.00000000000E+00  0.39999999674E+01  0.40000000000E+01  0.51100000000E-03 0.  1.
    9000002   -1    0    0    0    0 -0.00000000000E+00 -0.00000000000E+00  0.00000000000E+00  0.93800000000E+00  0.93800000000E+00 0. -1.
         11    1    1    2    0    0 -0.37131038371E+00  0.25041731269E+00  0.13459149899E+01  0.14184737053E+01  0.51100000000E-03 0.  1.
    9000002    1    1    2    0    0  0.86149700719E+00 -0.58032026974E+00  0.88869488032E+00  0.16578815697E+01  0.93800000000E+00 0. -1.
         22    1    1    2    0    0 -0.49018662348E+00  0.32990295705E+00  0.17653900972E+01  0.18616447250E+01  0.00000000000E+00 0.  1.
</event>
<event>
 5    1  0.6440325E+001  0.1599314E+01  0.7818608E-02  0.3354108E+00
         11   -1    0    0    0    0  0.00000000000E+00  0.00000000000E+00  0.39999999674E+01  0.40000000000E+01  0.51100000000E-03 0. -1.
    9000002   -1    0    0    0    0 -0.00000000000E+00 -0.00000000000E+00  0.00000000000E+00  0.93800000000E+00  0.93800000000E+00 0.  1.
         11    1    1    2    0    0  0.84414334232E-01 -0.15508056097E-01  0.11366307094E+01  0.11398666195E+01  0.51100000000E-03 0. -1.
    9000002    1    1    2    0    0 -0.34892502628E+00  0.10930827574E-01  0.81997961454E-01  0.10042090533E+01  0.93800000000E+00 0.  1.
         22    1    1    2    0    0  0.26451069205E+00  0.45772285237E-02  0.27813712965E+01  0.27939243273E+01  0.00000000000E+00 0. -1.
</event>
<event>
 5    1  0.6440325E+001  0.1599676E+01  0.7818608E-02  0.3353715E+00
         11   -1    0    0    0    0  0.00000000000E+00  0.00000000000E+00  0.39999999674E+01  0.40000000000E+01  0.51100000000E-03 0. -1.
    9000002   -1    0    0    0    0 -0.00000000000E+00 -0.00000000000E+00  0.00000000000E+00  0.93800000000E+00  0.93800000000E+00 0.  1.
         11    1    1    2    0    0 -0.62114188614E-01  0.93026231585E-01  0.81293374035E+00  0.82059343131E+00  0.51100000000E-03 0. -1.
    9000002    1    1    2    0    0  0.29274304811E+00 -0.43301006675E+00  0.18775290931E+00  0.10900877786E+01  0.93800000000E+00 0.  1.
         22    1    1    2    0    0 -0.23062885950E+00  0.33998383517E+00  0.29993133177E+01  0.30273187901E+01  0.00000000000E+00 0. -1.
</event>
<event>
 5    1  0.6440325E+001  0.1599674E+01  0.7818608E-02  0.3353717E+00
         11   -1    0    0    0    0  0.00000000000E+00  0.00000000000E+00  0.39999999674E+01  0.40000000000E+01  0.51100000000E-03 0.  1.
    9000002   -1    0    0    0    0 -0.00000000000E+00 -0.00000000000E+00  0.00000000000E+00  0.93800000000E+00  0.93800000000E+00 0.  1.
         11    1    1    2    0    0  0.99762803061E-02  0.30181529708E-01  0.25131461139E+00  0.25331748050E+00  0.51100000000E-03 0.  1.
    9000002    1    1    2    0    0 -0.14707256639E+00 -0.47334617183E+00  0.16806753407E+00  0.10741404164E+01  0.93800000000E+00 0.  1.
         22    1    1    2    0    0  0.13709628609E+00  0.44316464212E+00  0.35806178219E+01  0.36105421031E+01  0.00000000000E+00 0.  1.
</event>
<event>
 5    1  0.6440325E+001  0.1576769E+01  0.7818608E-02  0.3378970E+00
         11   -1    0    0    0    0  0.00000000000E+00  0.00000000000E+00  0.39999999674E+01  0.40000000000E+01  0.51100000000E-03 0.  1.
    9000002   -1    0    0    0    0 -0.00000000000E+00 -0.00000000000E+00  0.00000000000E+00  0.93800000000E+00  0.93800000000E+00 0.  1.
         11    1    1    2    0    0  0.89326662349E-01 -0.55612116612E-01  0.13617874121E+01  0.13658466887E+01  0.51100000000E-03 0.  1.
    9000002    1    1    2    0    0  0.94618675216E-01 -0.19528932224E+00  0.48685123405E-01  0.96400459248E+00  0.93800000000E+00 0.  1.
         22    1    1    2    0    0 -0.18394533757E+00  0.25090143885E+00  0.25895274318E+01  0.26081487188E+01  0.00000000000E+00 0.  1.
</event>
<event>
 5    1  0.6440325E+001  0.1599673E+01  0.7818608E-02  0.3353718E+00
         11   -1    0    0    0    0  0.00000000000E+00  0.00000000000E+00  0.39999999674E+01  0.40000000000E+01  0.51100000000E-03 0. -1.
    9000002   -1    0    0    0    0 -0.00000000000E+00 -0.00000000000E+00  0.00000000000E+00  0.93800000000E+00  0.93800000000E+00 0. -1.
         11    1    1    2    0    0 -0.33846650861E+00 -0.14585483366E+00  0.13805312286E+01  0.14288806613E+01  0.51100000000E-03 0. -1.
    9000002    1    1    2    0    0  0.83232724501E+00  0.35515561969E+00  0.62816062143E+00  0.14468358315E+01  0.93800000000E+00 0. -1.
         22    1    1    2    0    0 -0.49386073640E+00 -0.20930078603E+00  0.19913081173E+01  0.20622835072E+01  0.00000000000E+00 0. -1.
</event>
<event>
 5    1  0.6440325E+001  0.1599665E+01  0.7818608E-02  0.3353727E+00
         11   -1    0    0    0    0  0.00000000000E+00  0.00000000000E+00  0.39999999674E+01  0.40000000000E+01  0.51100000000E-03 0. -1.
    9000002   -1    0    0    0    0 -0.00000000000E+00 -0.00000000000E+00  0.00000000000E+00  0.93800000000E+00  0.93800000000E+00 0.  1.
         11    1    1    2    0    0  0.18123449887E-01  0.17207482564E-01  0.25158392715E+00  0.25282264616E+00  0.51100000000E-03 0. -1.
    9000002    1    1    2    0    0 -0.25597135762E+00 -0.28511623897E+00  0.98829298654E-01  0.10180490341E+01  0.93800000000E+00 0.  1.
         22    1    1    2    0    0  0.23784790773E+00  0.26790875640E+00  0.36495867416E+01  0.36671283197E+01  0.00000000000E+00 0. -1.
</event>
<event>
 5    1  0.6440325E+001  0.1598842E+01  0.7818608E-02  0.3354621E+00
         11   -1    0    0    0    0  0.00000000000E+00  0.00000000000E+00  0.39999999674E+01  0.40000000000E+01  0.51100000000E-03 0. -1.
    9000002   -1    0    0    0    0 -0.00000000000E+00 -0.00000000000E+00  0.00000000000E+00  0.93800000000E+00  0.93800000000E+00 0. -1.
         11    1    1    2    0    0 -0.90659530341E-01  0.52989086627E-01  0.66476693364E+00  0.67300990403E+00  0.51100000000E-03 0. -1.
    9000002    1    1    2    0    0  0.63655313955E+00 -0.33506163519E+00  0.37275433220E+00  0.12394579424E+01  0.93800000000E+00 0. -1.
         22    1    1    2    0    0 -0.54589360921E+00  0.28207254856E+00  0.29624787015E+01  0.30255321536E+01  0.00000000000E+00 0. -1.
</event>
<event>
 5    1  0.6440325E+001  0.1596744E+01  0.7818608E-02  0.3356904E+00
         11   -1    0    0    0    0  0.00000000000E+00  0.00000000000E+00  0.39999999674E+01  0.40000000000E+01  0.51100000000E-03 0. -1.
    9000002   -1    0    0    0    0 -0.00000000000E+00 -0.00000000000E+00  0.00000000000E+00  0.93800000000E+00  0.93800000000E+00 0.  1.
         11    1    1    2    0    0 -0.23195924834E-02  0.22352960765E-01  0.14037481659E+00  0.14216323582E+00  0.51100000000E-03 0. -1.
    9000002    1    1    2    0    0  0.50833818567E+00 -0.11120604296E+00  0.18870678227E+00  0.10891412877E+01  0.93800000000E+00 0.  1.
         22    1    1    2    0    0 -0.50601859319E+00  0.88853082196E-01  0.36709183685E+01  0.37066954764E+01  0.00000000000E+00 0. -1.
</event>
<event>
 5    1  0.6440325E+001  0.1599670E+01  0.7818608E-02  0.3353722E+00
         11   -1    0    0    0    0  0.00000000000E+00  0.00000000000E+00  0.39999999674E+01  0.40000000000E+01  0.51100000000E-03 0.  1.
    9000002   -1    0    0    0    0 -0.00000000000E+00 -0.00000000000E+00  0.00000000000E+00  0.93800000000E+00  0.93800000000E+00 0. -1.
         11    1    1    2    0    0 -0.63580493069E-01 -0.46823373465E-01  0.57594526339E+00  0.58133304993E+00  0.51100000000E-03 0.  1.
    9000002    1    1    2    0    0  0.43212474638E+00  0.31755504504E+00  0.19812442552E+00  0.10984854533E+01  0.93800000000E+00 0. -1.
         22    1    1    2    0    0 -0.36854425331E+00 -0.27073167157E+00  0.32259302785E+01  0.32581814968E+01  0.00000000000E+00 0.  1.
</event>
<event>
 5    1  0.6440325E+001  0.1597583E+01  0.7818608E-02  0.3355991E+00
         11   -1    0    0    0    0  0.00000000000E+00  0.00000000000E+00  0.39999999674E+01  0.40000000000E+01  0.51100000000E-03 0. -1.
    9000002   -1    0    0    0    0 -0.00000000000E+00 -0.00000000000E+00  0.00000000000E+00  0.93800000000E+00  0.93800000000E+00 0.  1.
         11    1    1    2    0    0 -0.90620325442E-01  0.87773374697E-01  0.75665028530E+00  0.76709590278E+00  0.51100000000E-03 0. -1.
    9000002    1    1    2    0    0  0.31994251736E+00 -0.27658730274E+00  0.12278786830E+00  0.10362357893E+01  0.93800000000E+00 0.  1.
         22    1    1    2    0    0 -0.22932219192E+00  0.18881392805E+00  0.31205618138E+01  0.31346683079E+01  0.00000000000E+00 0. -1.
</event>
<event>
 5    1  0.6440325E+001  0.1569184E+01  0.7818608E-02  0.3387505E+00
         11   -1    0    0    0    0  0.00000000000E+00  0.00000000000E+00  0.39999999674E+01  0.40000000000E+01  0.51100000000E-03 0.  1.
    9000002   -1    0    0    0    0 -0.00000000000E+00 -0.00000000000E+00  0.00000000000E+00  0.93800000000E+00  0.93800000000E+00 0.  1.
         11    1    1    2    0    0  0.11193094892E+00  0.23287754864E+00  0.14175413049E+01  0.14408969784E+01  0.51100000000E-03 0.  1.
    9000002    1    1    2    0    0  0.16675000277E+00 -0.34817619597E+00  0.12592112063E+00  0.10221214974E+01  0.93800000000E+00 0.  1.
         22    1    1    2    0    0 -0.27868095169E+00  0.11529864733E+00  0.24565375418E+01  0.24749815242E+01  0.00000000000E+00 0.  1.
</event>
<event>
 5    1  0.6440325E+001  0.1595457E+01  0.7818608E-02  0.3358308E+00
         11   -1    0    0    0    0  0.00000000000E+00  0.00000000000E+00  0.39999999674E+01  0.40000000000E+01  0.51100000000E-03 0. -1.
    9000002   -1    0    0    0    0 -0.00000000000E+00 -0.00000000000E+00  0.00000000000E+00  0.93800000000E+00  0.93800000000E+00 0.  1.
         11    1    1    2    0    0  0.78903246143E-01  0.18225127727E+00  0.10080157861E+01  0.10273934673E+01  0.51100000000E-03 0. -1.
    9000002    1    1    2    0    0 -0.35256086743E+00 -0.42914494184E+00  0.21729115804E+00  0.11115412695E+01  0.93800000000E+00 0.  1.
         22    1    1    2    0    0  0.27365762129E+00  0.24689366457E+00  0.27746930232E+01  0.27990652633E+01  0.00000000000E+00 0. -1.
</event>
<event>
 5    1  0.6440325E+001  0.1599676E+01  0.7818608E-02  0.3353715E+00
         11   -1    0    0    0    0  0.00000000000E+00  0.00000000000E+00  0.39999999674E+01  0.40000000000E+01  0.51100000000E-03 0. -1.
    9000002   -1    0    0    0    0 -0.00000000000E+00 -0.00000000000E+00  0.00000000000E+00  0.93800000000E+00  0.93800000000E+00 0.  1.
         11    1    1    2    0    0 -0.11664025688E+00  0.83887319068E-01  0.13464317839E+01  0.13540756410E+01  0.51100000000E-03 0. -1.
    9000002    1    1    2    0    0  0.33420943218E+00 -0.23983433816E+00  0.11431000892E+00  0.10305955717E+01  0.93800000000E+00 0.  1.
         22    1    1    2    0    0 -0.21756917529E+00  0.15594701909E+00  0.25392581746E+01  0.25533287873E+01  0.00000000000E+00 0. -1.
</event>
<event>
 5    1  0.6440325E+001  0.1599211E+01  0.7818608E-02  0.3354220E+00
         11   -1    0    0    0    0  0.00000000000E+00  0.00000000000E+00  0.39999999674E+01  0.40000000000E+01  0.51100000000E-03 0. -1.
    9000002   -1    0    0    0    0 -0.00000000000E+00 -0.00000000000E+00  0.00000000000E+00  0.93800000000E+00  0.93800000000E+00 0.  1.
         11    1    1    2    0    0 -0.14545979213E-01  0.11879676647E-01  0.19126382858E+00  0.19218435283E+00  0.51100000000E-03 0. -1.
    9000002    1    1    2    0    0  0.45052163292E+00 -0.75172148562E-01  0.14223901922E+00  0.10529465952E+01  0.93800000000E+00 0.  1.
         22    1    1    2    0    0 -0.43597565371E+00  0.63292471915E-01  0.36664971196E+01  0.36928690520E+01  0.00000000000E+00 0. -1.
</event>
<event>
 5    1  0.6440325E+001  0.1598681E+01  0.7818608E-02  0.3354796E+00
         11   -1    0    0    0    0  0.00000000000E+00  0.00000000000E+00  0.39999999674E+01  0.40000000000E+01  0.51100000000E-03 0.  1.
    9000002   -1    0    0    0    0 -0.00000000000E+00 -0.00000000000E+00  0.00000000000E+00  0.93800000000E+00  0.93800000000E+00 0. -1.
         11    1    1    2    0    0 -0.68597838391E-01  0.15344033453E+00  0.12410550672E+01  0.12523847414E+01  0.51100000000E-03 0.  1.
    9000002    1    1    2    0    0  0.14726879054E+00 -0.39101461948E+00  0.11887430986E+00  0.10337096453E+01  0.93800000000E+00 0. -1.
         22    1    1    2    0    0 -0.78670952148E-01  0.23757428494E+00  0.26400705903E+01  0.26519056132E+01  0.00000000000E+00 0. -1.
</event>
<event>
 5    1  0.6440325E+001  0.1598817E+01  0.7818608E-02  0.3354648E+00
         11   -1    0    0    0    0  0.00000000000E+00  0.00000000000E+00  0.39999999674E+01  0.40000000000E+01  0.51100000000E-03 0.  1.
    9000002   -1    0    0    0    0 -0.00000000000E+00 -0.00000000000E+00  0.00000000000E+00  0.93800000000E+00  0.93800000000E+00 0.  1.
         11    1    1    2    0    0 -0.31602462974E-01  0.66691260056E-01  0.90126206484E+00  0.90427872388E+00  0.51100000000E-03 0.  1.
    9000002    1    1    2    0    0  0.56286538593E-01 -0.38894763119E+00  0.10479802388E+00  0.10223869424E+01  0.93800000000E+00 0.  1.
         22    1    1    2    0    0 -0.24684075619E-01  0.32225637113E+00  0.29939398786E+01  0.30113343337E+01  0.00000000000E+00 0.  1.
</event>
<event>
 5    1  0.6440325E+001  0.1277790E+01  0.7818608E-02  0.3825332E+00
         11   -1    0    0    0    0  0.00000000000E+00  0.00000000000E+00  0.39999999674E+01  0.40000000000E+01  0.51100000000E-03 0.  1.
    9000002   -1    0    0    0    0 -0.00000000000E+00 -0.00000000000E+00  0.00000000000E+00  0.93800000000E+00  0.93800000000E+00 0. -1.
         11    1    1    2    0    0  0.45399187591E+00 -0.59188708483E+00  0.11696136933E+01  0.13872402089E+01  0.51100000000E-03 0.  1.
    9000002    1    1    2    0    0 -0.68301499652E-01  0.31646565970E+00  0.39229302071E+00  0.10670301883E+01  0.93800000000E+00 0. -1.
         22    1    1    2    0    0 -0.38569037626E+00  0.27542142513E+00  0.24380932533E+01  0.24837296028E+01  0.00000000000E+00 0.  1.
</event>
<event>
 5    1  0.6440325E+001  0.1596672E+01  0.7818608E-02  0.3356984E+00
         11   -1    0    0    0    0  0.00000000000E+00  0.00000000000E+00  0.39999999674E+01  0.40000000000E+01  0.51100000000E-03 0.  1.
    9000002   -1    0    0    0    0 -0.00000000000E+00 -0.00000000000E+00  0.00000000000E+00  0.93800000000E+00  0.93800000000E+00 0. -1.
         11    1    1    2    0    0 -0.10740912480E+00 -0.73450011122E-02  0.57672956083E+00  0.58669235259E+00  0.51100000000E-03 0.  1.
    9000002    1    1    2    0    0  0.41142050810E+00  0.12095892227E+00  0.12708007171E+00  0.10391781560E+01  0.93800000000E+00 0. -1.
         22    1    1    2    0    0 -0.30401138330E+00 -0.11361392115E+00  0.32961903348E+01  0.33121294914E+01  0.00000000000E+00 0.  1.
</event>
<event>
 5    1  0.6440325E+001  0.1599677E+01  0.7818608E-02  0.3353714E+00
         11   -1    0    0    0    0  0.00000000000E+00  0.00000000000E+00  0.39999999674E+01  0.40000000000E+01  0.51100000000E-03 0. -1.
    9000002   -1    0    0    0    0 -0.00000000000E+00 -0.00000000000E+00  0.00000000000E+00  0.93800000000E+00  0.93800000000E+00 0. -1.
         11    1    1    2    0    0 -0.40312444780E-01 -0.85990484654E-01  0.10181453074E+01  0.10225651983E+01  0.51100000000E-03 0. -1.
    9000002    1    1    2    0    0  0.15453405897E+00  0.32814362102E+00  0.88338238403E-01  0.10095576535E+01  0.93800000000E+00 0. -1.
         22    1    1    2    0    0 -0.11422161419E+00 -0.24215313637E+00  0.28935164215E+01  0.29058771482E+01  0.00000000000E+00 0. -1.
</event>
<event>
 5    1  0.6440325E+001  0.1599587E+01  0.7818608E-02  0.3353812E+00
         11   -1    0    0    0    0  0.00000000000E+00  0.00000000000E+00  0.39999999674E+01  0.40000000000E+01  0.51100000000E-03 0.  1.
    9000002   -1    0    0    0    0 -0.00000000000E+00 -0.00000000000E+00  0.00000000000E+00  0.93800000000E+00  0.93800000000E+00 0.  1.
         11    1    1    2    0    0 -0.10359710109E-01  0.10944374491E+00  0.10546206833E+01  0.10603349960E+01  0.51100000000E-03 0.  1.
    9000002    1    1    2    0    0  0.22017708437E-01 -0.43554878912E+00  0.12898953471E+00  0.10424345674E+01  0.93800000000E+00 0.  1.
         22    1    1    2    0    0 -0.11657998327E-01  0.32610504420E+00  0.28163897494E+01  0.28352304367E+01  0.00000000000E+00 0.  1.
</event>
<event>
 5    1  0.6440325E+001  0.1599675E+01  0.7818608E-02  0.3353716E+00
         11   -1    0    0    0    0  0.00000000000E+00  0.00000000000E+00  0.39999999674E+01  0.40000000000E+01  0.51100000000E-03 0. -1.
    9000002   -1    0    0    0    0 -0.00000000000E+00 -0.00000000000E+00  0.00000000000E+00  0.93800000000E+00  0.93800000000E+00 0. -1.
         11    1    1    2    0    0  0.78126268789E-01  0.16921879150E-01  0.46545514506E+00  0.47226985617E+00  0.51100000000E-03 0. -1.
    9000002    1    1    2    0    0 -0.62944804097E+00 -0.13699895093E+00  0.29242166153E+00  0.11748736004E+01  0.93800000000E+00 0. -1.
         22    1    1    2    0    0  0.55132177218E+00  0.12007707178E+00  0.32421231608E+01  0.32908565434E+01  0.00000000000E+00 0. -1.
</event>
<event>
 5    1  0.6440325E+001  0.1599479E+01  0.7818608E-02  0.3353929E+00
         11   -1    0    0    0    0  0.00000000000E+00  0.00000000000E+00  0.39999999674E+01  0.40000000000E+01  0.51100000000E-03 0. -1.
    9000002   -1    0    0    0    0 -0.00000000000E+00 -0.00000000000E+00  0.00000000000E+00  0.93800000000E+00  0.93800000000E+00 0.  1.
         11    1    1    2    0    0 -0.98105750938E-01 -0.70278042490E-01  0.93398835288E+00  0.94175275209E+00  0.51100000000E-03 0. -1.
    9000002    1    1    2    0    0  0.43830062550E+00  0.24076544740E+00  0.17137080457E+00  0.10767020905E+01  0.93800000000E+00 0.  1.
         22    1    1    2    0    0 -0.34019487457E+00 -0.17048740491E+00  0.28946408099E+01  0.29195451574E+01  0.00000000000E+00 0. -1.
</event>
<event>
 5    1  0.6440325E+001  0.1589511E+01  0.7818608E-02  0.3364827E+00
         11   -1    0    0    0    0  0.00000000000E+00  0.00000000000E+00  0.39999999674E+01  0.40000000000E+01  0.51100000000E-03 0. -1.
    9000002   -1    0    0    0    0 -0.00000000000E+00 -0.00000000000E+00  0.00000000000E+00  0.93800000000E+00  0.93800000000E+00 0.  1.
         11    1    1    2    0    0 -0.27724302494E+00  0.19141618780E+00  0.13971646284E+01  0.14372101836E+01  0.51100000000E-03 0. -1.
    9000002    1    1    2    0    0  0.41921570324E+00 -0.49439165542E+00  0.30711733142E+00  0.11808175007E+01  0.93800000000E+00 0.  1.
         22    1    1    2    0    0 -0.14197267830E+00  0.30297546762E+00  0.22957180076E+01  0.23199723157E+01  0.00000000000E+00 0. -1.
</event>
<event>
 5    1  0.6440325E+001  0.1599636E+01  0.7818608E-02  0.3353758E+00
         11   -1    0    0    0    0  0.00000000000E+00  0.00000000000E+00  0.39999999674E+01  0.40000000000E+01  0.51100000000E-03 0.  1.
    9000002   -1    0    0    0    0 -0.00000000000E+00 -0.00000000000E+00  0.00000000000E+00  0.93800000000E+00  0.93800000000E+00 0.  1.
         11    1    1    2    0    0  0.11369747132E+00 -0.28241572756E-01  0.71014055978E+00  0.71973924249E+00  0.51100000000E-03 0.  1.
    9000002    1    1    2    0    0 -0.57510748397E+00  0.13140997660E+00  0.24233513684E+00  0.11342784132E+01  0.93800000000E+00 0.  1.
         22    1    1    2    0    0  0.46141001266E+00 -0.10316840384E+00  0.30475242707E+01  0.30839823443E+01  0.00000000000E+00 0.  1.
</event>
<event>
 5    1  0.6440325E+001  0.1599677E+01  0.7818608E-02  0.3353714E+00
         11   -1    0    0    0    0  0.00000000000E+00  0.00000000000E+00  0.39999999674E+01  0.40000000000E+01  0.51100000000E-03 0.  1.
    9000002   -1    0    0    0    0 -0.00000000000E+00 -0.00000000000E+00  0.00000000000E+00  0.93800000000E+00  0.93800000000E+00 0.  1.
         11    1    1    2    0    0 -0.25300106824E+00  0.13067917137E+00  0.14376625190E+01  0.14655921554E+01  0.51100000000E-03 0. -1.
    9000002    1    1    2    0    0  0.63846078658E+00 -0.32986324608E+00  0.37098346029E+00  0.12385130863E+01  0.93800000000E+00 0.  1.
         22    1    1    2    0    0 -0.38545971834E+00  0.19918407470E+00  0.21913539881E+01  0.22338947583E+01  0.00000000000E+00 0.  1.
</event>
<event>
 5    1  0.6440325E+001  0.1523851E+01  0.7818608E-02  0.3440400E+00
         11   -1    0    0    0    0  0.00000000000E+00  0.00000000000E+00  0.39999999674E+01  0.40000000000E+01  0.51100000000E-03 0. -1.
    9000002   -1    0    0    0    0 -0.00000000000E+00 -0.00000000000E+00  0.00000000000E+00  0.93800000000E+00  0.93800000000E+00 0.  1.
         11    1    1    2    0    0  0.93186181039E-01  0.25339561275E+00  0.13282254495E+01  0.13553878068E+01  0.51100000000E-03 0. -1.
    9000002    1    1    2    0    0  0.11615343219E+00  0.91178686243E-01  0.72567433679E-01  0.95232095696E+00  0.93800000000E+00 0.  1.
         22    1    1    2    0    0 -0.20933961323E+00 -0.34457429899E+00  0.25992070842E+01  0.26302912363E+01  0.00000000000E+00 0. -1.
</event>
<event>
 5    1  0.6440325E+001  0.1599676E+01  0.7818608E-02  0.3353715E+00
         11   -1    0    0    0    0  0.00000000000E+00  0.00000000000E+00  0.39999999674E+01  0.40000000000E+01  0.51100000000E-03 0. -1.
    9000002   -1    0    0    0    0 -0.00000000000E+00 -0.00000000000E+00  0.00000000000E+00  0.93800000000E+00  0.93800000000E+00 0.  1.
         11    1    1    2    0    0 -0.12886420340E+00  0.59907070640E-01  0.12155318646E+01  0.12238107758E+01  0.51100000000E-03 0. -1.
    9000002    1    1    2    0    0  0.40931769115E+00 -0.18745162038E+00  0.13766106930E+00  0.10495111492E+01  0.93800000000E+00 0.  1.
         22    1    1    2    0    0 -0.28045348775E+00  0.12754454974E+00  0.26468070334E+01  0.26646780750E+01  0.00000000000E+00 0. -1.
</event>
<event>
 5    1  0.6440325E+001  0.1599607E+01  0.7818608E-02  0.3353790E+00
         11   -1    0    0    0    0  0.00000000000E+00  0.00000000000E+00  0.39999999674E+01  0.40000000000E+01  0.51100000000E-03 0.  1.
    9000002   -1    0    0    0    0 -0.00000000000E+00 -0.00000000000E+00  0.00000000000E+00  0.93800000000E+00  0.93800000000E+00 0.  1.
         11    1    1    2    0    0  0.53625348303E-01 -0.21622395531E+00  0.14385780293E+01  0.14557250717E+01  0.51100000000E-03 0.  1.
    9000002    1    1    2    0    0 -0.16565845660E+00  0.56388556670E+00  0.24043739022E+00  0.11327240596E+01  0.93800000000E+00 0.  1.
         22    1    1    2    0    0  0.11203310830E+00 -0.34766161139E+00  0.23209845478E+01  0.23495508687E+01  0.00000000000E+00 0.  1.
</event>
<event>
 5    1  0.6440325E+001  0.1599635E+01  0.7818608E-02  0.3353759E+00
         11   -1    0    0    0    0  0.00000000000E+00  0.00000000000E+00  0.39999999674E+01  0.40000000000E+01  0.51100000000E-03 0.  1.
    9000002   -1    0    0    0    0 -0.00000000000E+00 -0.00000000000E+00  0.00000000000E+00  0.93800000000E+00  0.93800000000E+00 0.  1.
         11    1    1    2    0    0  0.63794163718E-02 -0.14544978868E+00  0.81814750930E+00  0.83100056924E+00  0.51100000000E-03 0.  1.
    9000002    1    1    2    0    0 -0.62637457571E-02  0.64095192410E+00  0.28934524855E+00  0.11723579984E+01  0.93800000000E+00 0.  1.
         22    1    1    2    0    0 -0.11567061473E-03 -0.49550213542E+00  0.28925072095E+01  0.29346414324E+01  0.00000000000E+00 0.  1.
</event>
<event>
 5    1  0.6440325E+001  0.1599677E+01  0.7818608E-02  0.3353714E+00
         11   -1    0    0    0    0  0.00000000000E+00  0.00000000000E+00  0.39999999674E+01  0.40000000000E+01  0.51100000000E-03 0. -1.
    9000002   -1    0    0    0    0 -0.00000000000E+00 -0.00000000000E+00  0.00000000000E+00  0.93800000000E+00  0.93800000000E+00 0.  1.
         11    1    1    2    0    0  0.15332319601E+00  0.11798154791E+00  0.76404675218E+00  0.78815946909E+00  0.51100000000E-03 0. -1.
    9000002    1    1    2    0    0 -0.68940642864E+00 -0.53045122494E+00  0.57192816564E+00  0.14012871057E+01  0.93800000000E+00 0.  1.
         22    1    1    2    0    0  0.53608323263E+00  0.41246967703E+00  0.26640250495E+01  0.27485534252E+01  0.00000000000E+00 0. -1.
</event>
<event>
 5    1  0.6440325E+001  0.1599101E+01  0.7818608E-02  0.3354339E+00
         11   -1    0    0    0    0  0.00000000000E+00  0.00000000000E+00  0.39999999674E+01  0.40000000000E+01  0.51100000000E-03 0.  1.
    9000002   -1    0    0    0    0 -0.00000000000E+00 -0.00000000000E+00  0.00000000000E+00  0.93800000000E+00  0.93800000000E+00 0.  1.
         11    1    1    2    0    0  0.69819705048E-01  0.36791332461E-01  0.11029580954E+01  0.11057781037E+01  0.51100000000E-03 0.  1.
    9000002    1    1    2    0    0 -0.32738794311E+00 -0.17641420206E+00  0.93437093503E-01  0.10133505447E+01  0.93800000000E+00 0.  1.
         22    1    1    2    0    0  0.25756823806E+00  0.13962286960E+00  0.28036047785E+01  0.28188713516E+01  0.00000000000E+00 0.  1.
</event>
<event>
 5    1  0.6440325E+001  0.1598065E+01  0.7818608E-02  0.3355466E+00
         11   -1    0    0    0    0  0.00000000000E+00  0.00000000000E+00  0.39999999674E+01  0.40000000000E+01  0.51100000000E-03 0.  1.
    9000002   -1    0    0    0    0 -0.00000000000E+00 -0.00000000000E+00  0.00000000000E+00  0.93800000000E+00  0.93800000000E+00 0. -1.
         11    1    1    2    0    0  0.36209477199E-01 -0.65917006851E-01  0.95689753489E+00  0.95984859818E+00  0.51100000000E-03 0.  1.
    9000002    1    1    2    0    0 -0.27339445658E+00  0.37594192520E+00  0.14849408732E+00  0.10573416449E+01  0.93800000000E+00 0. -1.
         22    1    1    2    0    0  0.23718497938E+00 -0.31002491835E+00  0.28946083452E+01  0.29208097569E+01  0.00000000000E+00 0.  1.
</event>
<event>
 5    1  0.6440325E+001  0.1589863E+01  0.7818608E-02  0.3364440E+00
         11   -1    0    0    0    0  0.00000000000E+00  0.00000000000E+00  0.39999999674E+01  0.40000000000E+01  0.51100000000E-03 0.  1.
    9000002   -1    0    0    0    0 -0.00000000000E+00 -0.00000000000E+00  0.00000000000E+00  0.93800000000E+00  0.93800000000E+00 0.  1.
         11    1    1    2    0    0  0.19110505709E-01 -0.70396160912E-02  0.10937915141E+01  0.10939812179E+01  0.51100000000E-03 0.  1.
    9000002    1    1    2    0    0  0.27470842508E+00 -0.14709345819E+00  0.72618250224E-01  0.99106942972E+00  0.93800000000E+00 0.  1.
         22    1    1    2    0    0 -0.29381893079E+00  0.15413307428E+00  0.28335902030E+01  0.28529493524E+01  0.00000000000E+00 0.  1.
</event>
<event>
 5    1  0.6440325E+001  0.1599657E+01  0.7818608E-02  0.3353736E+00
         11   -1    0    0    0    0  0.00000000000E+00  0.00000000000E+00  0.39999999674E+01  0.40000000000E+01  0.51100000000E-03 0. -1.
    9000002   -1    0    0    0    0 -0.00000000000E+00 -0.00000000000E+00  0.00000000000E+00  0.93800000000E+00  0.93800000000E+00 0. -1.
         11    1    1    2    0    0  0.87537008972E-02 -0.10456946809E-01  0.13244883001E+00  0.13315002331E+00  0.51100000000E-03 0. -1.
    9000002    1    1    2    0    0 -0.27303597560E+00  0.25490140972E+00  0.93820370914E-01  0.10139869992E+01  0.93800000000E+00 0. -1.
         22    1    1    2    0    0  0.26428227470E+00 -0.24444446291E+00  0.37737307664E+01  0.37908629774E+01  0.00000000000E+00 0. -1.
</event>
<event>
 5    1  0.6440325E+001  0.1544501E+01  0.7818608E-02  0.3415894E+00
         11   -1    0    0    0    0  0.00000000000E+00  0.00000000000E+00  0.39999999674E+01  0.40000000000E+01  0.51100000000E-03 0. -1.
    9000002   -1    0    0    0    0 -0.00000000000E+00 -0.00000000000E+00  0.00000000000E+00  0.93800000000E+00  0.93800000000E+00 0. -1.
         11    1    1    2    0    0  0.24074496766E+00  0.20985809981E-01  0.94055920724E+00  0.97110783496E+00  0.51100000000E-03 0. -1.
    9000002    1    1    2    0    0 -0.22090754735E+00  0.55894216359E+00  0.30925496209E+00  0.11561570474E+01  0.93800000000E+00 0. -1.
         22    1    1    2    0    0 -0.19837420316E-01 -0.57992797357E+00  0.27501857980E+01  0.28107351176E+01  0.00000000000E+00 0. -1.
</event>
<event>
 5    1  0.6440325E+001  0.1578751E+01  0.7818608E-02  0.3376755E+00
         11   -1    0    0    0    0  0.00000000000E+00  0.00000000000E+00  0.39999999674E+01  0.40000000000E+01  0.51100000000E-03 0.  1.
    9000002   -1    0    0    0    0 -0.00000000000E+00 -0.00000000000E+00  0.00000000000E+00  0.93800000000E+00  0.93800000000E+00 0. -1.
         11    1    1    2    0    0  0.86269373692E-01  0.57425862103E-01  0.60155696532E+00  0.61041885466E+00  0.51100000000E-03 0.  1.
    9000002    1    1    2    0    0 -0.57128520237E-01  0.26893268332E+00  0.66667624120E-01  0.97973314126E+00  0.93800000000E+00 0. -1.
         22    1    1    2    0    0 -0.29140853455E-01 -0.32635854542E+00  0.33317753779E+01  0.33478480041E+01  0.00000000000E+00 0.  1.
</event>
<event>
 5    1  0.6440325E+001  0.1598357E+01  0.7818608E-02  0.3355149E+00
         11   -1    0    0    0    0  0.00000000000E+00  0.00000000000E+00  0.39999999674E+01  0.40000000000E+01  0.51100000000E-03 0.  1.
    9000002   -1    0    0    0    0 -0.00000000000E+00 -0.00000000000E+00  0.00000000000E+00  0.93800000000E+00  0.93800000000E+00 0.  1.
         11    1    1    2    0    0 -0.72228480347E-01  0.20145669212E+00  0.11538535783E+01  0.11735331667E+01  0.51100000000E-03 0.  1.
    9000002    1    1    2    0    0  0.13983233452E+00 -0.56503212974E+00  0.23679378039E+00  0.11290392747E+01  0.93800000000E+00 0.  1.
         22    1    1    2    0    0 -0.67603854173E-01  0.36357543762E+00  0.26093526087E+01  0.26354275586E+01  0.00000000000E+00 0.  1.
</event>
<event>
 5    1  0.6440325E+001  0.1534199E+01  0.7818608E-02  0.3428032E+00
         11   -1    0    0    0    0  0.00000000000E+00  0.00000000000E+00  0.39999999674E+01  0.40000000000E+01  0.51100000000E-03 0.  1.
    9000002   -1    0    0    0    0 -0.00000000000E+00 -0.00000000000E+00  0.00000000000E+00  0.93800000000E+00  0.93800000000E+00 0. -1.
         11    1    1    2    0    0 -0.10426828773E+00  0.11015832308E+00  0.14257479120E+00  0.20816955632E+00  0.51100000000E-03 0.  1.
    9000002    1    1    2    0    0  0.42491766746E+00 -0.27494367410E+00  0.23746511425E+00  0.10919627872E+01  0.93800000000E+00 0. -1.
         22    1    1    2    0    0 -0.32064937972E+00  0.16478535103E+00  0.36199600619E+01  0.36378676565E+01  0.00000000000E+00 0.  1.
</event>
<event>
 5    1  0.6440325E+001  0.1599675E+01  0.7818608E-02  0.3353716E+00
         11   -1    0    0    0    0  0.00000000000E+00  0.00000000000E+00  0.39999999674E+01  0.40000000000E+01  0.51100000000E-03 0. -1.
    9000002   -1    0    0    0    0 -0.00000000000E+00 -0.00000000000E+00  0.00000000000E+00  0.93800000000E+00  0.93800000000E+00 0. -1.
         11    1    1    2    0    0  0.14040879770E+00  0.43463242193E-01  0.11516543143E+01  0.11609959537E+01  0.51100000000E-03 0. -1.
    9000002    1    1    2    0    0 -0.46852733328E+00 -0.14911606429E+00  0.16526669930E+00  0.10718724479E+01  0.93800000000E+00 0. -1.
         22    1    1    2    0    0  0.32811853557E+00  0.10565282210E+00  0.26830789538E+01  0.27051315984E+01  0.00000000000E+00 0. -1.
</event>
<event>
 5    1  0.6440325E+001  0.1599676E+01  0.7818608E-02  0.3353715E+00
         11   -1    0    0    0    0  0.00000000000E+00  0.00000000000E+00  0.39999999674E+01  0.40000000000E+01  0.51100000000E-03 0.  1.
    9000002   -1    0    0    0    0 -0.00000000000E+00 -0.00000000000E+00  0.00000000000E+00  0.93800000000E+00  0.93800000000E+00 0. -1.
         11    1    1    2    0    0  0.13686066283E+00  0.53673482194E-01  0.12576055108E+01  0.12661688535E+01  0.51100000000E-03 0.  1.
    9000002    1    1    2    0    0 -0.41726932620E+00 -0.16503810087E+00  0.13672959381E+00  0.10487565242E+01  0.93800000000E+00 0. -1.
         22    1    1    2    0    0  0.28040866337E+00  0.11136461868E+00  0.26056648627E+01  0.26230746222E+01  0.00000000000E+00 0.  1.
</event>
<event>
 5    1  0.6440325E+001  0.1599605E+01  0.7818608E-02  0.3353792E+00
         11   -1    0    0    0    0  0.00000000000E+00  0.00000000000E+00  0.39999999674E+01  0.40000000000E+01  0.51100000000E-03 0. -1.
    9000002   -1    0    0    0    0 -0.00000000000E+00 -0.00000000000E+00  0.00000000000E+00  0.93800000000E+00  0.93800000000E+00 0. -1.
         11    1    1    2    0    0  0.50258908924E-01  0.36524392216E-01  0.76618300357E+00  0.76869801953E+00  0.51100000000E-03 0. -1.
    9000002    1    1    2    0    0 -0.29650303857E+00 -0.19883154715E+00  0.85580363784E-01  0.10072815072E+01  0.93800000000E+00 0. -1.
         22    1    1    2    0    0  0.24624412964E+00  0.16230715494E+00  0.31482366000E+01  0.31620204733E+01  0.00000000000E+00 0. -1.
</event>
<event>
 5    1  0.6440325E+001  0.1597261E+01  0.7818608E-02  0.3356342E+00
         11   -1    0    0    0    0  0.00000000000E+00  0.00000000000E+00  0.39999999674E+01  0.40000000000E+01  0.51100000000E-03 0. -1.
    9000002   -1    0    0    0    0 -0.00000000000E+00 -0.00000000000E+00  0.00000000000E+00  0.93800000000E+00  0.93800000000E+00 0.  1.
         11    1    1    2    0    0  0.23435070773E-02  0.12359986368E-01  0.48684619252E-01  0.50286325787E-01  0.51100000000E-03 0. -1.
    9000002    1    1    2    0    0  0.54296044988E+00 -0.21500230619E+00  0.23950405421E+00  0.11305919838E+01  0.93800000000E+00 0.  1.
         22    1    1    2    0    0 -0.54530395696E+00  0.20264231982E+00  0.37118112939E+01  0.37571216904E+01  0.00000000000E+00 0. -1.
</event>
<event>
 5    1  0.6440325E+001  0.1599653E+01  0.7818608E-02  0.3353740E+00
         11   -1    0    0    0    0  0.00000000000E+00  0.00000000000E+00  0.39999999674E+01  0.40000000000E+01  0.51100000000E-03 0. -1.
    9000002   -1    0    0    0    0 -0.00000000000E+00 -0.00000000000E+00  0.00000000000E+00  0.93800000000E+00  0.93800000000E+00 0. -1.
         11    1    1    2    0    0  0.73013221480E-01 -0.14943422615E-01  0.73367709020E+00  0.73745275794E+00  0.51100000000E-03 0. -1.
    9000002    1    1    2    0    0 -0.36969296451E+00  0.63860190765E-01  0.94667710322E-01  0.10146708764E+01  0.93800000000E+00 0. -1.
         22    1    1    2    0    0  0.29667974303E+00 -0.48916768150E-01  0.31716551668E+01  0.31858763657E+01  0.00000000000E+00 0. -1.
</event>
<event>
 5    1  0.6440325E+001  0.1573284E+01  0.7818608E-02  0.3382881E+00
         11   -1    0    0    0    0  0.00000000000E+00  0.00000000000E+00  0.39999999674E+01  0.40000000000E+01  0.51100000000E-03 0. -1.
    9000002   -1    0    0    0    0 -0.00000000000E+00 -0.00000000000E+00  0.00000000000E+00  0.93800000000E+00  0.93800000000E+00 0.  1.
         11    1    1    2    0    0 -0.88865541261E-01 -0.14406172628E+00  0.97523468823E+00  0.98981504518E+00  0.51100000000E-03 0. -1.
    9000002    1    1    2    0    0 -0.24021633334E+00  0.25309250088E+00  0.10318307393E+00  0.10061065786E+01  0.93800000000E+00 0.  1.
         22    1    1    2    0    0  0.32908187460E+00 -0.10903077460E+00  0.29215822052E+01  0.29420783762E+01  0.00000000000E+00 0. -1.
</event>
<event>
 5    1  0.6440325E+001  0.1599676E+01  0.7818608E-02  0.3353715E+00
         11   -1    0    0    0    0  0.00000000000E+00  0.00000000000E+00  0.39999999674E+01  0.40000000000E+01  0.51100000000E-03 0.  1.
    9000002   -1    0    0    0    0 -0.00000000000E+00 -0.00000000000E+00  0.00000000000E+00  0.93800000000E+00  0.93800000000E+00 0.  1.
         11    1    1    2    0    0 -0.72978381857E-01  0.22121158853E-01  0.58127347559E+00  0.58625447072E+00  0.51100000000E-03 0.  1.
    9000002    1    1    2    0    0  0.47981824490E+00 -0.14951156617E+00  0.17298019764E+00  0.10781212387E+01  0.93800000000E+00 0.  1.
         22    1    1    2    0    0 -0.40683986305E+00  0.12739040732E+00  0.32457462941E+01  0.32736242906E+01  0.00000000000E+00 0.  1.
</event>
<event>
 5    1  0.6440325E+001  0.1596452E+01  0.7818608E-02  0.3357223E+00
         11   -1    0    0    0    0  0.00000000000E+00  0.00000000000E+00  0.39999999674E+01  0.40000000000E+01  0.51100000000E-03 0.  1.
    9000002   -1    0    0    0    0 -0.00000000000E+00 -0.00000000000E+00  0.00000000000E+00  0.93800000000E+00  0.93800000000E+00 0.  1.
         11    1    1    2    0    0  0.26975159023E-01 -0.11493653695E+00  0.87415091640E+00  0.88208738370E+00  0.51100000000E-03 0.  1.
    9000002    1    1    2    0    0  0.13282328739E+00  0.49321121569E+00  0.18186704407E+00  0.10834292550E+01  0.93800000000E+00 0.  1.
         22    1    1    2    0    0 -0.15979844641E+00 -0.37827467874E+00  0.29439820069E+01  0.29724833613E+01  0.00000000000E+00 0.  1.
</event>
<event>
 5    1  0.6440325E+001  0.1599629E+01  0.7818608E-02  0.3353766E+00
         11   -1    0    0    0    0  0.00000000000E+00  0.00000000000E+00  0.39999999674E+01  0.40000000000E+01  0.51100000000E-03 0.  1.
    9000002   -1    0    0    0    0 -0.00000000000E+00 -0.00000000000E+00  0.00000000000E+00  0.93800000000E+00  0.93800000000E+00 0.  1.
         11    1    1    2    0    0  0.41340157052E-01 -0.43202114656E-01  0.62292841121E+00  0.62579189665E+00  0.51100000000E-03 0.  1.
    9000002    1    1    2    0    0 -0.27947308580E+00  0.23865078932E+00  0.90777554513E-01  0.10115057930E+01  0.93800000000E+00 0.  1.
         22    1    1    2    0    0  0.23813292874E+00 -0.19544867467E+00  0.32862940016E+01  0.33007023103E+01  0.00000000000E+00 0.  1.
</event>
<event>
 5    1  0.6440325E+001  0.1597980E+01  0.7818608E-02  0.3355559E+00
         11   -1    0    0    0    0  0.00000000000E+00  0.00000000000E+00  0.39999999674E+01  0.40000000000E+01  0.51100000000E-03 0.  1.
    9000002   -1    0    0    0    0 -0.00000000000E+00 -0.00000000000E+00  0.00000000000E+00  0.93800000000E+00  0.93800000000E+00 0.  1.
         11    1    1    2    0    0  0.51676442486E-01 -0.13741702200E+00  0.87400801618E+00  0.88625287932E+00  0.51100000000E-03 0.  1.
    9000002    1    1    2    0    0 -0.31495191992E+00  0.43927902452E+00  0.20302554170E+00  0.11014645450E+01  0.93800000000E+00 0.  1.
         22    1    1    2    0    0  0.26327547743E+00 -0.30186200252E+00  0.29229664095E+01  0.29502825757E+01  0.00000000000E+00 0.  1.
</event>
<event>
 5    1  0.6440325E+001  0.1586683E+01  0.7818608E-02  0.3367946E+00
         11   -1    0    0    0    0  0.00000000000E+00  0.00000000000E+00  0.39999999674E+01  0.40000000000E+01  0.51100000000E-03 0. -1.
    9000002   -1    0    0    0    0 -0.00000000000E+00 -0.00000000000E+00  0.00000000000E+00  0.93800000000E+00  0.93800000000E+00 0. -1.
         11    1    1    2    0    0 -0.72948664791E-01  0.31264012891E-01  0.14697006429E+00  0.16703115612E+00  0.51100000000E-03 0. -1.
    9000002    1    1    2    0    0  0.63261583621E+00 -0.38235303001E-01  0.29589659156E+00  0.11700698815E+01  0.93800000000E+00 0. -1.
         22    1    1    2    0    0 -0.55966717142E+00  0.69712901106E-02  0.35571333115E+01  0.36008989624E+01  0.00000000000E+00 0. -1.
</event>
<event>
 5    1  0.6440325E+001  0.1599676E+01  0.7818608E-02  0.3353715E+00
         11   -1    0    0    0    0  0.00000000000E+00  0.00000000000E+00  0.39999999674E+01  0.40000000000E+01  0.51100000000E-03 0. -1.
    9000002   -1    0    0    0    0 -0.00000000000E+00 -0.00000000000E+00  0.00000000000E+00  0.93800000000E+00  0.93800000000E+00 0.  1.
         11    1    1    2    0    0 -0.14025222948E-01  0.30096837941E-01  0.36036124948E+00  0.36188812882E+00  0.51100000000E-03 0.  1.
    9000002    1    1    2    0    0  0.15029252465E+00 -0.33018925990E+00  0.88375336676E-01  0.10095875348E+01  0.93800000000E+00 0.  1.
         22    1    1    2    0    0 -0.13626730170E+00  0.30009242196E+00  0.35512633812E+01  0.35665243364E+01  0.00000000000E+00 0. -1.
</event>
<event>
 5    1  0.6440325E+001  0.1576497E+01  0.7818608E-02  0.3379275E+00
         11   -1    0    0    0    0  0.00000000000E+00  0.00000000000E+00  0.39999999674E+01  0.40000000000E+01  0.51100000000E-03 0.  1.
    9000002   -1    0    0    0    0 -0.00000000000E+00 -0.00000000000E+00  0.00000000000E+00  0.93800000000E+00  0.93800000000E+00 0.  1.
         11    1    1    2    0    0 -0.89272831196E-01  0.19112856456E-01  0.50512174059E+00  0.51330612076E+00  0.51100000000E-03 0.  1.
    9000002    1    1    2    0    0 -0.18788298620E+00  0.21592973891E+00  0.72824472130E-01  0.98339873520E+00  0.93800000000E+00 0.  1.
         22    1    1    2    0    0  0.27715581740E+00 -0.23504259537E+00  0.34220537546E+01  0.34412951440E+01  0.00000000000E+00 0.  1.
</event>
<event>
 5    1  0.6440325E+001  0.1599677E+01  0.7818608E-02  0.3353714E+00
         11   -1    0    0    0    0  0.00000000000E+00  0.00000000000E+00  0.39999999674E+01  0.40000000000E+01  0.51100000000E-03 0. -1.
    9000002   -1    0    0    0    0 -0.00000000000E+00 -0.00000000000E+00  0.00000000000E+00  0.93800000000E+00  0.93800000000E+00 0. -1.
         11    1    1    2    0    0  0.44276195512E-01 -0.75369355349E-01  0.93715102083E+00  0.94121900649E+00  0.51100000000E-03 0. -1.
    9000002    1    1    2    0    0 -0.18325814734E+00  0.31504209205E+00  0.89212967267E-01  0.10102663123E+01  0.93800000000E+00 0. -1.
         22    1    1    2    0    0  0.13898195183E+00 -0.23967273670E+00  0.29736359793E+01  0.29865146812E+01  0.00000000000E+00 0. -1.
</event>
<event>
 5    1  0.6440325E+001  0.1599646E+01  0.7818608E-02  0.3353748E+00
         11   -1    0    0    0    0  0.00000000000E+00  0.00000000000E+00  0.39999999674E+01  0.40000000000E+01  0.51100000000E-03 0. -1.
    9000002   -1    0    0    0    0 -0.00000000000E+00 -0.00000000000E+00  0.00000000000E+00  0.93800000000E+00  0.93800000000E+00 0.  1.
         11    1    1    2    0    0  0.91678673114E-02 -0.44858572851E-01  0.40246726518E+00  0.40506357774E+00  0.51100000000E-03 0. -1.
    9000002    1    1    2    0    0 -0.10879976221E+00  0.39934944703E+00  0.11579354800E+00  0.10317797802E+01  0.93800000000E+00 0.  1.
         22    1    1    2    0    0  0.99631894903E-01 -0.35449087418E+00  0.34817391542E+01  0.35011566420E+01  0.00000000000E+00 0. -1.
</event>
<event>
 5    1  0.6440325E+001  0.1587103E+01  0.7818608E-02  0.3367481E+00
         11   -1    0    0    0    0  0.00000000000E+00  0.00000000000E+00  0.39999999674E+01  0.40000000000E+01  0.51100000000E-03 0.  1.
    9000002   -1    0    0    0    0 -0.00000000000E+00 -0.00000000000E+00  0.00000000000E+00  0.93800000000E+00  0.93800000000E+00 0. -1.
         11    1    1    2    0    0  0.11473464665E+00 -0.25323900108E+00  0.13364394947E+01  0.13650512133E+01  0.51100000000E-03 0.  1.
    9000002    1    1    2    0    0 -0.45614953601E+00  0.37250814153E+00  0.25387939452E+00  0.11362805383E+01  0.93800000000E+00 0. -1.
         22    1    1    2    0    0  0.34141488936E+00 -0.11926914045E+00  0.24096810781E+01  0.24366682484E+01  0.00000000000E+00 0.  1.
</event>
<event>
 5    1  0.6440325E+001  0.1599630E+01  0.7818608E-02  0.3353765E+00
         11   -1    0    0    0    0  0.00000000000E+00  0.00000000000E+00  0.39999999674E+01  0.40000000000E+01  0.51100000000E-03 0.  1.
    9000002   -1    0    0    0    0 -0.00000000000E+00 -0.00000000000E+00  0.00000000000E+00  0.93800000000E+00  0.93800000000E+00 0.  1.
         11    1    1    2    0    0 -0.30722596262E-01  0.32734915680E-01  0.38016517784E+00  0.38280710050E+00  0.51100000000E-03 0.  1.
    9000002    1    1    2    0    0  0.26406892187E+00 -0.32681915622E+00  0.11943937357E+00  0.10347235961E+01  0.93800000000E+00 0.  1.
         22    1    1    2    0    0 -0.23334632561E+00  0.29408424054E+00  0.35003954160E+01  0.35204693034E+01  0.00000000000E+00 0.  1.
</event>
<event>
 5    1  0.6440325E+001  0.1487541E+01  0.7818608E-02  0.3485263E+00
         11   -1    0    0    0    0  0.00000000000E+00  0.00000000000E+00  0.39999999674E+01  0.40000000000E+01  0.51100000000E-03 0.  1.
    9000002   -1    0    0    0    0 -0.00000000000E+00 -0.00000000000E+00  0.00000000000E+00  0.93800000000E+00  0.93800000000E+00 0. -1.
         11    1    1    2    0    0  0.15653961515E+00 -0.37726066674E+00  0.11613858309E+01  0.12311163922E+01  0.51100000000E-03 0.  1.
    9000002    1    1    2    0    0 -0.49254369587E-01  0.11531624464E+00  0.97680459029E-01  0.95137232526E+00  0.93800000000E+00 0. -1.
         22    1    1    2    0    0 -0.10728524556E+00  0.26194442210E+00  0.27409336774E+01  0.27555112825E+01  0.00000000000E+00 0.  1.
</event>
<event>
 5    1  0.7427755E+001  0.1573351E+01  0.7818608E-02  0.3382805E+00
         11   -1    0    0    0    0  0.00000000000E+00  0.00000000000E+00  0.39999999674E+01  0.40000000000E+01  0.51100000000E-03 0. -1.
    9000002   -1    0    0    0    0 -0.00000000000E+00 -0.00000000000E+00  0.00000000000E+00  0.93800000000E+00  0.93800000000E+00 0.  1.
         11    1    1    2    0    0  0.45205645765E-01  0.13018878084E+00  0.14796855950E+01  0.14860896306E+01  0.51100000000E-03 0. -1.
    9000002    1    1    2    0    0  0.11156821748E+00  0.10052557142E+00  0.34580705528E-01  0.95057492227E+00  0.93800000000E+00 0.  1.
         22    1    1    2    0    0 -0.15677386324E+00 -0.23071435225E+00  0.24857336668E+01  0.25013354471E+01  0.00000000000E+00 0. -1.
</event>
<event>
 5    1  0.6440325E+001  0.1598885E+01  0.7818608E-02  0.3354575E+00
         11   -1    0    0    0    0  0.00000000000E+00  0.00000000000E+00  0.39999999674E+01  0.40000000000E+01  0.51100000000E-03 0. -1.
    9000002   -1    0    0    0    0 -0.00000000000E+00 -0.00000000000E+00  0.00000000000E+00  0.93800000000E+00  0.93800000000E+00 0.  1.
         11    1    1    2    0    0  0.63012002124E-01  0.68545621963E-01  0.62509286438E+00  0.63198921267E+00  0.51100000000E-03 0. -1.
    9000002    1    1    2    0    0 -0.36153058890E+00 -0.27095683754E+00  0.13935872458E+00  0.10504222145E+01  0.93800000000E+00 0.  1.
         22    1    1    2    0    0  0.29851858678E+00  0.20241121558E+00  0.32355483784E+01  0.32555885729E+01  0.00000000000E+00 0. -1.
</event>
<event>
 5    1  0.6440325E+001  0.1599561E+01  0.7818608E-02  0.3353840E+00
         11   -1    0    0    0    0  0.00000000000E+00  0.00000000000E+00  0.39999999674E+01  0.40000000000E+01  0.51100000000E-03 0.  1.
    9000002   -1    0    0    0    0 -0.00000000000E+00 -0.00000000000E+00  0.00000000000E+00  0.93800000000E+00  0.93800000000E+00 0. -1.
         11    1    1    2    0    0  0.11617412818E-01  0.11959114529E-01  0.16869026370E+00  0.16951298147E+00  0.51100000000E-03 0.  1.
    9000002    1    1    2    0    0 -0.19806059491E+00 -0.37440473365E+00  0.12149079876E+00  0.10363449802E+01  0.93800000000E+00 0. -1.
         22    1    1    2    0    0  0.18644318209E+00  0.36244561912E+00  0.37098189049E+01  0.37321420383E+01  0.00000000000E+00 0.  1.
</event>
<event>
 5    1  0.6440325E+001  0.1548204E+01  0.7818608E-02  0.3411574E+00
         11   -1    0    0    0    0  0.00000000000E+00  0.00000000000E+00  0.39999999674E+01  0.40000000000E+01  0.51100000000E-03 0.  1.
    9000002   -1    0    0    0    0 -0.00000000000E+00 -0.00000000000E+00  0.00000000000E+00  0.93800000000E+00  0.93800000000E+00 0. -1.
         11    1    1    2    0    0 -0.64398224130E-01 -0.13326282944E+00  0.89743433906E+00  0.90955745669E+00  0.51100000000E-03 0.  1.
    9000002    1    1    2    0    0 -0.19067367873E+00 -0.30166866792E+00  0.12832517723E+00  0.10117666668E+01  0.93800000000E+00 0. -1.
         22    1    1    2    0    0  0.25507190286E+00  0.43493149736E+00  0.29742404511E+01  0.30166758765E+01  0.00000000000E+00 0.  1.
</event>
<event>
 5    1  0.6440325E+001  0.1599422E+01  0.7818608E-02  0.3353991E+00
         11   -1    0    0    0    0  0.00000000000E+00  0.00000000000E+00  0.39999999674E+01  0.40000000000E+01  0.51100000000E-03 0. -1.
    9000002   -1    0    0    0    0 -0.00000000000E+00 -0.00000000000E+00  0.00000000000E+00  0.93800000000E+00  0.93800000000E+00 0. -1.
         11    1    1    2    0    0  0.73994188019E-01 -0.72797518720E-01  0.91348887679E+00  0.91936761294E+00  0.51100000000E-03 0. -1.
    9000002    1    1    2    0    0 -0.29356997467E+00  0.24481847400E+00  0.98551786991E-01  0.10176816152E+01  0.93800000000E+00 0. -1.
         22    1    1    2    0    0  0.21957578665E+00 -0.17202095528E+00  0.29879593036E+01  0.30009507718E+01  0.00000000000E+00 0. -1.
</event>
<event>
 5    1  0.6440325E+001  0.1599675E+01  0.7818608E-02  0.3353717E+00
         11   -1    0    0    0    0  0.00000000000E+00  0.00000000000E+00  0.39999999674E+01  0.40000000000E+01  0.51100000000E-03 0. -1.
    9000002   -1    0    0    0    0 -0.00000000000E+00 -0.00000000000E+00  0.00000000000E+00  0.93800000000E+00  0.93800000000E+00 0. -1.
         11    1    1    2    0    0  0.30939101639E-01 -0.11687130976E+00  0.11182468592E+01  0.11247632775E+01  0.51100000000E-03 0. -1.
    9000002    1    1    2    0    0 -0.11110325187E+00  0.40142760048E+00  0.11727746397E+00  0.10329985743E+01  0.93800000000E+00 0. -1.
         22    1    1    2    0    0  0.80164150229E-01 -0.28455629072E+00  0.27644756442E+01  0.27802381482E+01  0.00000000000E+00 0. -1.
</event>
<event>
 5    1  0.6440325E+001  0.1599675E+01  0.7818608E-02  0.3353717E+00
         11   -1    0    0    0    0  0.00000000000E+00  0.00000000000E+00  0.39999999674E+01  0.40000000000E+01  0.51100000000E-03 0. -1.
    9000002   -1    0    0    0    0 -0.00000000000E+00 -0.00000000000E+00  0.00000000000E+00  0.93800000000E+00  0.93800000000E+00 0. -1.
         11    1    1    2    0    0  0.15886069005E+00  0.10456690137E+00  0.12368233752E+01  0.12513605709E+01  0.51100000000E-03 0. -1.
    9000002    1    1    2    0    0 -0.48866696110E+00 -0.31745258144E+00  0.23606533962E+00  0.11292220264E+01  0.93800000000E+00 0. -1.
         22    1    1    2    0    0  0.32980627105E+00  0.21288568007E+00  0.25271112525E+01  0.25574174027E+01  0.00000000000E+00 0. -1.
</event>
<event>
 5    1  0.6440325E+001  0.1599671E+01  0.7818608E-02  0.3353720E+00
         11   -1    0    0    0    0  0.00000000000E+00  0.00000000000E+00  0.39999999674E+01  0.40000000000E+01  0.51100000000E-03 0. -1.
    9000002   -1    0    0    0    0 -0.00000000000E+00 -0.00000000000E+00  0.00000000000E+00  0.93800000000E+00  0.93800000000E+00 0. -1.
         11    1    1    2    0    0  0.19767545387E-01  0.18685217651E-01  0.24203110288E+00  0.24355535118E+00  0.51100000000E-03 0. -1.
    9000002    1    1    2    0    0 -0.33659627011E+00 -0.29502948334E+00  0.13602424154E+00  0.10481822548E+01  0.93800000000E+00 0. -1.
         22    1    1    2    0    0  0.31682872473E+00  0.27634426568E+00  0.36219446229E+01  0.36462623940E+01  0.00000000000E+00 0. -1.
</event>
<event>
 5    1  0.6440325E+001  0.1483288E+01  0.7818608E-02  0.3490672E+00
         11   -1    0    0    0    0  0.00000000000E+00  0.00000000000E+00  0.39999999674E+01  0.40000000000E+01  0.51100000000E-03 0.  1.
    9000002   -1    0    0    0    0 -0.00000000000E+00 -0.00000000000E+00  0.00000000000E+00  0.93800000000E+00  0.93800000000E+00 0.  1.
         11    1    1    2    0    0  0.96788866403E-01 -0.70307411381E-01 -0.10313154926E-01  0.12007430633E+00  0.51100000000E-03 0.  1.
    9000002    1    1    2    0    0  0.12557261843E+00 -0.33989307626E+00  0.25989948009E+00  0.10385988280E+01  0.93800000000E+00 0.  1.
         22    1    1    2    0    0 -0.22236148483E+00  0.41020048764E+00  0.37504136422E+01  0.37793268657E+01  0.00000000000E+00 0.  1.
</event>
<event>
 5    1  0.6440325E+001  0.1599670E+01  0.7818608E-02  0.3353722E+00
         11   -1    0    0    0    0  0.00000000000E+00  0.00000000000E+00  0.39999999674E+01  0.40000000000E+01  0.51100000000E-03 0.  1.
    9000002   -1    0    0    0    0 -0.00000000000E+00 -0.00000000000E+00  0.00000000000E+00  0.93800000000E+00  0.93800000000E+00 0. -1.
         11    1    1    2    0    0  0.10591045339E-02 -0.96156093196E-02  0.99234657414E-01  0.99706368895E-01  0.51100000000E-03 0.  1.
    9000002    1    1    2    0    0 -0.66951234373E-01  0.39997114552E+00  0.11101644684E+00  0.10279241395E+01  0.93800000000E+00 0. -1.
         22    1    1    2    0    0  0.65892129839E-01 -0.39035553620E+00  0.37897488631E+01  0.38103694916E+01  0.00000000000E+00 0.  1.
</event>
<event>
 5    1  0.6440325E+001  0.1599677E+01  0.7818608E-02  0.3353714E+00
         11   -1    0    0    0    0  0.00000000000E+00  0.00000000000E+00  0.39999999674E+01  0.40000000000E+01  0.51100000000E-03 0. -1.
    9000002   -1    0    0    0    0 -0.00000000000E+00 -0.00000000000E+00  0.00000000000E+00  0.93800000000E+00  0.93800000000E+00 0.  1.
         11    1    1    2    0    0  0.27311042632E-01  0.29449574859E-01  0.34502599406E+00  0.34735625546E+00  0.51100000000E-03 0.  1.
    9000002    1    1    2    0    0 -0.30598539252E+00 -0.32998367638E+00  0.13754656626E+00  0.10494185747E+01  0.93800000000E+00 0.  1.
         22    1    1    2    0    0  0.27867434989E+00  0.30053410152E+00  0.35174274070E+01  0.35412251698E+01  0.00000000000E+00 0. -1.
</event>
<event>
 5    1  0.6440325E+001  0.1597510E+01  0.7818608E-02  0.3356071E+00
         11   -1    0    0    0    0  0.00000000000E+00  0.00000000000E+00  0.39999999674E+01  0.40000000000E+01  0.51100000000E-03 0. -1.
    9000002   -1    0    0    0    0 -0.00000000000E+00 -0.00000000000E+00  0.00000000000E+00  0.93800000000E+00  0.93800000000E+00 0. -1.
         11    1    1    2    0    0  0.31195569637E-01  0.53459548915E-01  0.12999102934E+01  0.13013831561E+01  0.51100000000E-03 0. -1.
    9000002    1    1    2    0    0 -0.11722741158E+00 -0.31908671860E+00  0.79135332614E-01  0.10008321542E+01  0.93800000000E+00 0. -1.
         22    1    1    2    0    0  0.86031841947E-01  0.26562716969E+00  0.26209543413E+01  0.26357846897E+01  0.00000000000E+00 0. -1.
</event>
<event>
 5    1  0.6440325E+001  0.1599313E+01  0.7818608E-02  0.3354110E+00
         11   -1    0    0    0    0  0.00000000000E+00  0.00000000000E+00  0.39999999674E+01  0.40000000000E+01  0.51100000000E-03 0.  1.
    9000002   -1    0    0    0    0 -0.00000000000E+00 -0.00000000000E+00  0.00000000000E+00  0.93800000000E+00  0.93800000000E+00 0.  1.
         11    1    1    2    0    0 -0.15953482665E+00  0.37483945604E-01  0.11252430646E+01  0.11371141643E+01  0.51100000000E-03 0.  1.
    9000002    1    1    2    0    0  0.48982656541E+00 -0.17680994224E+00  0.18664580864E+00  0.10889777214E+01  0.93800000000E+00 0.  1.
         22    1    1    2    0    0 -0.33029173876E+00  0.13932599664E+00  0.26881110942E+01  0.27119081143E+01  0.00000000000E+00 0.  1.
</event>
<event>
 5    1  0.6814598E+001  0.1595363E+01  0.7818608E-02  0.3358412E+00
         11   -1    0    0    0    0  0.00000000000E+00  0.00000000000E+00  0.39999999674E+01  0.40000000000E+01  0.51100000000E-03 0.  1.
    9000002   -1    0    0    0    0 -0.00000000000E+00 -0.00000000000E+00  0.00000000000E+00  0.93800000000E+00  0.93800000000E+00 0.  1.
         11    1    1    2    0    0 -0.58801101993E-01  0.49016038551E-01  0.14550879211E+01  0.14571002920E+01  0.51100000000E-03 0.  1.
    9000002    1    1    2    0    0  0.27825028799E+00  0.36452558442E-01  0.55796340113E-01  0.98066775380E+00  0.93800000000E+00 0.  1.
         22    1    1    2    0    0 -0.21944918599E+00 -0.85468596993E-01  0.24891157062E+01  0.25002319542E+01  0.00000000000E+00 0.  1.
</event>
<event>
 5    1  0.6440325E+001  0.1597092E+01  0.7818608E-02  0.3356525E+00
         11   -1    0    0    0    0  0.00000000000E+00  0.00000000000E+00  0.39999999674E+01  0.40000000000E+01  0.51100000000E-03 0. -1.
    9000002   -1    0    0    0    0 -0.00000000000E+00 -0.00000000000E+00  0.00000000000E+00  0.93800000000E+00  0.93800000000E+00 0. -1.
         11    1    1    2    0    0  0.77569676865E-02  0.20829570743E+00  0.14226914412E+01  0.14378798525E+01  0.51100000000E-03 0. -1.
    9000002    1    1    2    0    0 -0.11643865234E+00 -0.43582538376E+00  0.14047525052E+00  0.10502756880E+01  0.93800000000E+00 0. -1.
         22    1    1    2    0    0  0.10868168466E+00  0.22752967633E+00  0.24368332757E+01  0.24498444595E+01  0.00000000000E+00 0. -1.
</event>
<event>
 5    1  0.6440325E+001  0.1597329E+01  0.7818608E-02  0.3356267E+00
         11   -1    0    0    0    0  0.00000000000E+00  0.00000000000E+00  0.39999999674E+01  0.40000000000E+01  0.51100000000E-03 0. -1.
    9000002   -1    0    0    0    0 -0.00000000000E+00 -0.00000000000E+00  0.00000000000E+00  0.93800000000E+00  0.93800000000E+00 0.  1.
         11    1    1    2    0    0 -0.60787280849E-01 -0.22128155697E-01  0.14295569822E+01  0.14310199773E+01  0.51100000000E-03 0. -1.
    9000002    1    1    2    0    0  0.29512887623E+00  0.14695248788E+00  0.74593909735E-01  0.99704781162E+00  0.93800000000E+00 0.  1.
         22    1    1    2    0    0 -0.23434159538E+00 -0.12482433219E+00  0.24958490754E+01  0.25099322111E+01  0.00000000000E+00 0. -1.
</event>
<event>
 5    1  0.6440325E+001  0.1574595E+01  0.7818608E-02  0.3381407E+00
         11   -1    0    0    0    0  0.00000000000E+00  0.00000000000E+00  0.39999999674E+01  0.40000000000E+01  0.51100000000E-03 0. -1.
    9000002   -1    0    0    0    0 -0.00000000000E+00 -0.00000000000E+00  0.00000000000E+00  0.93800000000E+00  0.93800000000E+00 0. -1.
         11    1    1    2    0    0  0.83020878373E-02 -0.18385788320E-02 -0.69926549812E-02  0.11021042567E-01  0.51100000000E-03 0. -1.
    9000002    1    1    2    0    0  0.22091989605E+00 -0.33056470749E+00  0.12773160100E+00  0.10267609207E+01  0.93800000000E+00 0. -1.
         22    1    1    2    0    0 -0.22922198389E+00  0.33240328632E+00  0.38792610213E+01  0.39002180368E+01  0.00000000000E+00 0. -1.
</event>
<event>
 5    1  0.6440325E+001  0.1504682E+01  0.7818608E-02  0.3463794E+00
         11   -1    0    0    0    0  0.00000000000E+00  0.00000000000E+00  0.39999999674E+01  0.40000000000E+01  0.51100000000E-03 0.  1.
    9000002   -1    0    0    0    0 -0.00000000000E+00 -0.00000000000E+00  0.00000000000E+00  0.93800000000E+00  0.93800000000E+00 0. -1.
         11    1    1    2    0    0  0.73331493129E-01 -0.83409970330E-01  0.75112642202E-01  0.13407796678E+00  0.51100000000E-03 0.  1.
    9000002    1    1    2    0    0  0.26097544147E+00 -0.21377258580E+00  0.15644058639E+00  0.10090215838E+01  0.93800000000E+00 0. -1.
         22    1    1    2    0    0 -0.33430693460E+00  0.29718255613E+00  0.37684467388E+01  0.37949004494E+01  0.00000000000E+00 0.  1.
</event>
<event>
 5    1  0.6440325E+001  0.1553554E+01  0.7818608E-02  0.3405370E+00
         11   -1    0    0    0    0  0.00000000000E+00  0.00000000000E+00  0.39999999674E+01  0.40000000000E+01  0.51100000000E-03 0.  1.
    9000002   -1    0    0    0    0 -0.00000000000E+00 -0.00000000000E+00  0.00000000000E+00  0.93800000000E+00  0.93800000000E+00 0.  1.
         11    1    1    2    0    0 -0.85100144904E-01  0.49915889586E-01  0.15931209213E+00  0.18738792521E+00  0.51100000000E-03 0.  1.
    9000002    1    1    2    0    0 -0.27802577315E+00 -0.16613916113E+00  0.10766200417E+00  0.99816614776E+00  0.93800000000E+00 0.  1.
         22    1    1    2    0    0  0.36312591806E+00  0.11622327155E+00  0.37330258711E+01  0.37524459270E+01  0.00000000000E+00 0.  1.
</event>
<event>
 5    1  0.6440325E+001  0.1597020E+01  0.7818608E-02  0.3356604E+00
         11   -1    0    0    0    0  0.00000000000E+00  0.00000000000E+00  0.39999999674E+01  0.40000000000E+01  0.51100000000E-03 0. -1.
    9000002   -1    0    0    0    0 -0.00000000000E+00 -0.00000000000E+00  0.00000000000E+00  0.93800000000E+00  0.93800000000E+00 0. -1.
         11    1    1    2    0    0 -0.93215574314E-01 -0.25097586133E-01  0.71622023109E+00  0.72269683317E+00  0.51100000000E-03 0. -1.
    9000002    1    1    2    0    0  0.31003009839E+00  0.30984509322E+00  0.13254272200E+00  0.10438075574E+01  0.93800000000E+00 0. -1.
         22    1    1    2    0    0 -0.21681452408E+00 -0.28474750709E+00  0.31512370143E+01  0.31714956094E+01  0.00000000000E+00 0.  1.
</event>
<event>
 5    1  0.6440325E+001  0.1598394E+01  0.7818608E-02  0.3355108E+00
         11   -1    0    0    0    0  0.00000000000E+00  0.00000000000E+00  0.39999999674E+01  0.40000000000E+01  0.51100000000E-03 0. -1.
    9000002   -1    0    0    0    0 -0.00000000000E+00 -0.00000000000E+00  0.00000000000E+00  0.93800000000E+00  0.93800000000E+00 0.  1.
         11    1    1    2    0    0 -0.14313649279E+00 -0.57809223106E-01  0.11771037214E+01  0.11871829657E+01  0.51100000000E-03 0. -1.
    9000002    1    1    2    0    0  0.44171024147E+00  0.31363669028E+00  0.20359099977E+00  0.11021656890E+01  0.93800000000E+00 0.  1.
         22    1    1    2    0    0 -0.29857374868E+00 -0.25582746717E+00  0.26193052462E+01  0.26486513453E+01  0.00000000000E+00 0. -1.
</event>
<event>
 5    1  0.6440325E+001  0.1599676E+01  0.7818608E-02  0.3353715E+00
         11   -1    0    0    0    0  0.00000000000E+00  0.00000000000E+00  0.39999999674E+01  0.40000000000E+01  0.51100000000E-03 0.  1.
    9000002   -1    0    0    0    0 -0.00000000000E+00 -0.00000000000E+00  0.00000000000E+00  0.93800000000E+00  0.93800000000E+00 0.  1.
         11    1    1    2    0    0  0.16735122950E-01  0.11889283427E+00  0.11237404854E+01  0.11301365007E+01  0.51100000000E-03 0.  1.
    9000002    1    1    2    0    0 -0.55212165210E-01 -0.41370985497E+00  0.11777422196E+00  0.10334016618E+01  0.93800000000E+00 0.  1.
         22    1    1    2    0    0  0.38477042260E-01  0.29481702069E+00  0.27584852600E+01  0.27744618375E+01  0.00000000000E+00 0.  1.
</event>
<event>
 5    1  0.6440325E+001  0.1599677E+01  0.7818608E-02  0.3353714E+00
         11   -1    0    0    0    0  0.00000000000E+00  0.00000000000E+00  0.39999999674E+01  0.40000000000E+01  0.51100000000E-03 0.  1.
    9000002   -1    0    0    0    0 -0.00000000000E+00 -0.00000000000E+00  0.00000000000E+00  0.93800000000E+00  0.93800000000E+00 0.  1.
         11    1    1    2    0    0  0.47989444250E-01 -0.54942551933E-01  0.62875395619E+00  0.63297193407E+00  0.51100000000E-03 0. -1.
    9000002    1    1    2    0    0 -0.29587930623E+00  0.33728368845E+00  0.13669647805E+00  0.10487300785E+01  0.93800000000E+00 0.  1.
         22    1    1    2    0    0  0.24788986198E+00 -0.28234113651E+00  0.32345495331E+01  0.32562979875E+01  0.00000000000E+00 0.  1.
</event>
<event>
 5    1  0.6440325E+001  0.1599643E+01  0.7818608E-02  0.3353751E+00
         11   -1    0    0    0    0  0.00000000000E+00  0.00000000000E+00  0.39999999674E+01  0.40000000000E+01  0.51100000000E-03 0.  1.
    9000002   -1    0    0    0    0 -0.00000000000E+00 -0.00000000000E+00  0.00000000000E+00  0.93800000000E+00  0.93800000000E+00 0.  1.
         11    1    1    2    0    0  0.79177301582E-01  0.19656775074E-01  0.33470555209E+00  0.34450471929E+00  0.51100000000E-03 0.  1.
    9000002    1    1    2    0    0 -0.81281974865E+00 -0.16363022053E+00  0.51163992336E+00  0.13524312197E+01  0.93800000000E+00 0.  1.
         22    1    1    2    0    0  0.73364244707E+00  0.14397344546E+00  0.31536544919E+01  0.32410640610E+01  0.00000000000E+00 0.  1.
</event>
<event>
 5    1  0.6440325E+001  0.1599676E+01  0.7818608E-02  0.3353715E+00
         11   -1    0    0    0    0  0.00000000000E+00  0.00000000000E+00  0.39999999674E+01  0.40000000000E+01  0.51100000000E-03 0.  1.
    9000002   -1    0    0    0    0 -0.00000000000E+00 -0.00000000000E+00  0.00000000000E+00  0.93800000000E+00  0.93800000000E+00 0.  1.
         11    1    1    2    0    0  0.80303128494E-02  0.24338283518E-01  0.20925052309E+00  0.21081480143E+00  0.51100000000E-03 0.  1.
    9000002    1    1    2    0    0 -0.15059906835E+00 -0.44045255873E+00  0.14750937149E+00  0.10574883217E+01  0.93800000000E+00 0.  1.
         22    1    1    2    0    0  0.14256875550E+00  0.41611427521E+00  0.36432400728E+01  0.36696968769E+01  0.00000000000E+00 0.  1.
</event>
<event>
 5    1  0.6440325E+001  0.1599634E+01  0.7818608E-02  0.3353761E+00
         11   -1    0    0    0    0  0.00000000000E+00  0.00000000000E+00  0.39999999674E+01  0.40000000000E+01  0.51100000000E-03 0. -1.
    9000002   -1    0    0    0    0 -0.00000000000E+00 -0.00000000000E+00  0.00000000000E+00  0.93800000000E+00  0.93800000000E+00 0.  1.
         11    1    1    2    0    0 -0.11050194325E+00 -0.13834968938E+00  0.11740659571E+01  0.11873425996E+01  0.51100000000E-03 0. -1.
    9000002    1    1    2    0    0  0.37400207218E+00  0.43063839793E+00  0.22563758357E+00  0.11207512208E+01  0.93800000000E+00 0.  1.
         22    1    1    2    0    0 -0.26350012893E+00 -0.29228870855E+00  0.26002964267E+01  0.26299061796E+01  0.00000000000E+00 0. -1.
</event>
<event>
 5    1  0.6440325E+001  0.1555530E+01  0.7818608E-02  0.3403090E+00
         11   -1    0    0    0    0  0.00000000000E+00  0.00000000000E+00  0.39999999674E+01  0.40000000000E+01  0.51100000000E-03 0.  1.
    9000002   -1    0    0    0    0 -0.00000000000E+00 -0.00000000000E+00  0.00000000000E+00  0.93800000000E+00  0.93800000000E+00 0.  1.
         11    1    1    2    0    0 -0.60912285844E-03  0.85758318218E-02  0.12290547429E+01  0.12290849190E+01  0.51100000000E-03 0.  1.
    9000002    1    1    2    0    0 -0.70557897932E+00  0.17072344714E-01  0.40829827299E+00  0.12428534269E+01  0.93800000000E+00 0.  1.
         22    1    1    2    0    0  0.70618810218E+00 -0.25648176535E-01  0.23626469515E+01  0.24660616542E+01  0.00000000000E+00 0.  1.
</event>
<event>
 5    1  0.6440325E+001  0.1599677E+01  0.7818608E-02  0.3353714E+00
         11   -1    0    0    0    0  0.00000000000E+00  0.00000000000E+00  0.39999999674E+01  0.40000000000E+01  0.51100000000E-03 0.  1.
    9000002   -1    0    0    0    0 -0.00000000000E+00 -0.00000000000E+00  0.00000000000E+00  0.93800000000E+00  0.93800000000E+00 0. -1.
         11    1    1    2    0    0 -0.56744552508E-01  0.11887166680E-01  0.52842028809E+00  0.53159148879E+00  0.51100000000E-03 0. -1.
    9000002    1    1    2    0    0  0.41533148727E+00 -0.87469843465E-01  0.12191128603E+00  0.10367533841E+01  0.93800000000E+00 0. -1.
         22    1    1    2    0    0 -0.35858693476E+00  0.75582676784E-01  0.33496683932E+01  0.33696551271E+01  0.00000000000E+00 0.  1.
</event>
<event>
 5    1  0.6440325E+001  0.1599410E+01  0.7818608E-02  0.3354004E+00
         11   -1    0    0    0    0  0.00000000000E+00  0.00000000000E+00  0.39999999674E+01  0.40000000000E+01  0.51100000000E-03 0. -1.
    9000002   -1    0    0    0    0 -0.00000000000E+00 -0.00000000000E+00  0.00000000000E+00  0.93800000000E+00  0.93800000000E+00 0. -1.
         11    1    1    2    0    0  0.63400334455E-01  0.90771662315E-01  0.10631806152E+01  0.10689304836E+01  0.51100000000E-03 0. -1.
    9000002    1    1    2    0    0 -0.29229847869E+00 -0.31189814205E+00  0.12392703457E+00  0.10382296285E+01  0.93800000000E+00 0. -1.
         22    1    1    2    0    0  0.22889814423E+00  0.22112647973E+00  0.28128923176E+01  0.28308398879E+01  0.00000000000E+00 0. -1.
</event>
<event>
 5    1  0.6440325E+001  0.1597871E+01  0.7818608E-02  0.3355677E+00
         11   -1    0    0    0    0  0.00000000000E+00  0.00000000000E+00  0.39999999674E+01  0.40000000000E+01  0.51100000000E-03 0.  1.
    9000002   -1    0    0    0    0 -0.00000000000E+00 -0.00000000000E+00  0.00000000000E+00  0.93800000000E+00  0.93800000000E+00 0. -1.
         11    1    1    2    0    0 -0.80144132206E-01 -0.50755502707E-01  0.14315987864E+01  0.14347384951E+01  0.51100000000E-03 0.  1.
    9000002    1    1    2    0    0  0.33645557715E+00  0.71629555499E-01  0.80741653327E-01  0.10023454311E+01  0.93800000000E+00 0. -1.
         22    1    1    2    0    0 -0.25631144494E+00 -0.20874052792E-01  0.24876595276E+01  0.25009160738E+01  0.00000000000E+00 0. -1.
</event>
<event>
 5    1  0.6440325E+001  0.1599676E+01  0.7818608E-02  0.3353715E+00
         11   -1    0    0    0    0  0.00000000000E+00  0.00000000000E+00  0.39999999674E+01  0.40000000000E+01  0.51100000000E-03 0.  1.
    9000002   -1    0    0    0    0 -0.00000000000E+00 -0.00000000000E+00  0.00000000000E+00  0.93800000000E+00  0.93800000000E+00 0.  1.
         11    1    1    2    0    0 -0.84773321377E-01  0.35520936065E-01  0.72764446310E+00  0.73342687346E+00  0.51100000000E-03 0.  1.
    9000002    1    1    2    0    0  0.45145768187E+00 -0.19039354475E+00  0.16406508232E+00  0.10708991977E+01  0.93800000000E+00 0.  1.
         22    1    1    2    0    0 -0.36668436050E+00  0.15487260868E+00  0.31082904219E+01  0.31336739288E+01  0.00000000000E+00 0.  1.
</event>
<event>
 5    1  0.6440325E+001  0.1579064E+01  0.7818608E-02  0.3376405E+00
         11   -1    0    0    0    0  0.00000000000E+00  0.00000000000E+00  0.39999999674E+01  0.40000000000E+01  0.51100000000E-03 0.  1.
    9000002   -1    0    0    0    0 -0.00000000000E+00 -0.00000000000E+00  0.00000000000E+00  0.93800000000E+00  0.93800000000E+00 0. -1.
         11    1    1    2    0    0 -0.13192548148E-01 -0.64672758402E-02  0.28110297954E-03  0.14704051255E-01  0.51100000000E-03 0.  1.
    9000002    1    1    2    0    0 -0.30386557558E+00  0.16494037995E+00  0.96858750991E-01  0.10043730555E+01  0.93800000000E+00 0. -1.
         22    1    1    2    0    0  0.31705812373E+00 -0.15847310411E+00  0.39028601134E+01  0.39189228932E+01  0.00000000000E+00 0.  1.
</event>
<event>
 5    1  0.6440325E+001  0.1599486E+01  0.7818608E-02  0.3353921E+00
         11   -1    0    0    0    0  0.00000000000E+00  0.00000000000E+00  0.39999999674E+01  0.40000000000E+01  0.51100000000E-03 0.  1.
    9000002   -1    0    0    0    0 -0.00000000000E+00 -0.00000000000E+00  0.00000000000E+00  0.93800000000E+00  0.93800000000E+00 0. -1.
         11    1    1    2    0    0  0.69263198168E-02  0.56427087031E-03  0.32145084309E-01  0.32891638361E-01  0.51100000000E-03 0.  1.
    9000002    1    1    2    0    0 -0.46750740285E+00 -0.50347537424E-01  0.15079432875E+00  0.10600381955E+01  0.93800000000E+00 0. -1.
         22    1    1    2    0    0  0.46058108303E+00  0.49783266554E-01  0.38170605543E+01  0.38450701662E+01  0.00000000000E+00 0.  1.
</event>
<event>
 5    1  0.6440325E+001  0.1577461E+01  0.7818608E-02  0.3378196E+00
         11   -1    0    0    0    0  0.00000000000E+00  0.00000000000E+00  0.39999999674E+01  0.40000000000E+01  0.51100000000E-03 0. -1.
    9000002   -1    0    0    0    0 -0.00000000000E+00 -0.00000000000E+00  0.00000000000E+00  0.93800000000E+00  0.93800000000E+00 0. -1.
         11    1    1    2    0    0 -0.10543492878E+00  0.12791419767E+00  0.56899330901E+00  0.59264847338E+00  0.51100000000E-03 0. -1.
    9000002    1    1    2    0    0  0.43664601863E+00 -0.41337634843E-01  0.14970836381E+00  0.10462433464E+01  0.93800000000E+00 0. -1.
         22    1    1    2    0    0 -0.33121108985E+00 -0.86576562828E-01  0.32812982945E+01  0.32991081802E+01  0.00000000000E+00 0. -1.
</event>
<event>
 5    1  0.6440325E+001  0.1599671E+01  0.7818608E-02  0.3353721E+00
         11   -1    0    0    0    0  0.00000000000E+00  0.00000000000E+00  0.39999999674E+01  0.40000000000E+01  0.51100000000E-03 0. -1.
    9000002   -1    0    0    0    0 -0.00000000000E+00 -0.00000000000E+00  0.00000000000E+00  0.93800000000E+00  0.93800000000E+00 0. -1.
         11    1    1    2    0    0 -0.16315490020E+00  0.58988504345E-01  0.84245911700E+00  0.86013765761E+00  0.51100000000E-03 0. -1.
    9000002    1    1    2    0    0  0.70631666425E+00 -0.24847057045E+00  0.40626598982E+00  0.12670899372E+01  0.93800000000E+00 0. -1.
         22    1    1    2    0    0 -0.54316176405E+00  0.18948206611E+00  0.27512748605E+01  0.28107724051E+01  0.00000000000E+00 0. -1.
</event>
<event>
 5    1  0.6440325E+001  0.1594645E+01  0.7818608E-02  0.3359196E+00
         11   -1    0    0    0    0  0.00000000000E+00  0.00000000000E+00  0.39999999674E+01  0.40000000000E+01  0.51100000000E-03 0. -1.
    9000002   -1    0    0    0    0 -0.00000000000E+00 -0.00000000000E+00  0.00000000000E+00  0.93800000000E+00  0.93800000000E+00 0. -1.
         11    1    1    2    0    0 -0.87178246937E-01 -0.56647183767E-01  0.45562898408E+00  0.46734032827E+00  0.51100000000E-03 0. -1.
    9000002    1    1    2    0    0  0.31499305659E+00  0.27700032234E+00  0.12324463144E+00  0.10348831062E+01  0.93800000000E+00 0. -1.
         22    1    1    2    0    0 -0.22781480965E+00 -0.22035313857E+00  0.34211263518E+01  0.34357765656E+01  0.00000000000E+00 0. -1.
</event>
<event>
 5    1  0.6440325E+001  0.1599055E+01  0.7818608E-02  0.3354390E+00
         11   -1    0    0    0    0  0.00000000000E+00  0.00000000000E+00  0.39999999674E+01  0.40000000000E+01  0.51100000000E-03 0.  1.
    9000002   -1    0    0    0    0 -0.00000000000E+00 -0.00000000000E+00  0.00000000000E+00  0.93800000000E+00  0.93800000000E+00 0.  1.
         11    1    1    2    0    0  0.45027265315E-01  0.84675092138E-01  0.12153257899E+01  0.12191039179E+01  0.51100000000E-03 0.  1.
    9000002    1    1    2    0    0 -0.23020977055E+00 -0.24443698983E+00  0.75978237015E-01  0.99918100110E+00  0.93800000000E+00 0.  1.
         22    1    1    2    0    0  0.18518250524E+00  0.15976189770E+00  0.27086959404E+01  0.27197150810E+01  0.00000000000E+00 0.  1.
</event>
<event>
 5    1  0.6440325E+001  0.1599379E+01  0.7818608E-02  0.3354038E+00
         11   -1    0    0    0    0  0.00000000000E+00  0.00000000000E+00  0.39999999674E+01  0.40000000000E+01  0.51100000000E-03 0.  1.
    9000002   -1    0    0    0    0 -0.00000000000E+00 -0.00000000000E+00  0.00000000000E+00  0.93800000000E+00  0.93800000000E+00 0.  1.
         11    1    1    2    0    0 -0.89912815401E-01  0.62910514673E-01  0.81087791888E+00  0.81826970351E+00  0.51100000000E-03 0.  1.
    9000002    1    1    2    0    0  0.49130519602E+00 -0.25815984144E+00  0.21324078235E+00  0.11105597375E+01  0.93800000000E+00 0.  1.
         22    1    1    2    0    0 -0.40139238062E+00  0.19524932677E+00  0.29758812661E+01  0.30091705590E+01  0.00000000000E+00 0.  1.
</event>
<event>
 5    1  0.6440325E+001  0.1598661E+01  0.7818608E-02  0.3354818E+00
         11   -1    0    0    0    0  0.00000000000E+00  0.00000000000E+00  0.39999999674E+01  0.40000000000E+01  0.51100000000E-03 0. -1.
    9000002   -1    0    0    0    0 -0.00000000000E+00 -0.00000000000E+00  0.00000000000E+00  0.93800000000E+00  0.93800000000E+00 0.  1.
         11    1    1    2    0    0 -0.78940556483E-01  0.65948755472E-01  0.51887526935E+00  0.52897320922E+00  0.51100000000E-03 0. -1.
    9000002    1    1    2    0    0  0.37686634868E+00 -0.47314417224E+00  0.25656829073E+00  0.11452357575E+01  0.93800000000E+00 0.  1.
         22    1    1    2    0    0 -0.29792579219E+00  0.40719541677E+00  0.32245564073E+01  0.32637910333E+01  0.00000000000E+00 0. -1.
</event>
<event>
 5    1  0.6440325E+001  0.1599648E+01  0.7818608E-02  0.3353745E+00
         11   -1    0    0    0    0  0.00000000000E+00  0.00000000000E+00  0.39999999674E+01  0.40000000000E+01  0.51100000000E-03 0.  1.
    9000002   -1    0    0    0    0 -0.00000000000E+00 -0.00000000000E+00  0.00000000000E+00  0.93800000000E+00  0.93800000000E+00 0. -1.
         11    1    1    2    0    0  0.13319358686E+00  0.14565787996E+00  0.12144469732E+01  0.12303814292E+01  0.51100000000E-03 0.  1.
    9000002    1    1    2    0    0 -0.39304612267E+00 -0.45440997643E+00  0.25192314214E+00  0.11420520788E+01  0.93800000000E+00 0. -1.
         22    1    1    2    0    0  0.25985253581E+00  0.30875209647E+00  0.25336298521E+01  0.25655664920E+01  0.00000000000E+00 0.  1.
</event>
<event>
 5    1  0.6440325E+001  0.1599675E+01  0.7818608E-02  0.3353716E+00
         11   -1    0    0    0    0  0.00000000000E+00  0.00000000000E+00  0.39999999674E+01  0.40000000000E+01  0.51100000000E-03 0.  1.
    9000002   -1    0    0    0    0 -0.00000000000E+00 -0.00000000000E+00  0.00000000000E+00  0.93800000000E+00  0.93800000000E+00 0. -1.
         11    1    1    2    0    0  0.19887425183E-01 -0.44290560577E-01  0.52160010998E+00  0.52385503652E+00  0.51100000000E-03 0.  1.
    9000002    1    1    2    0    0 -0.15446077871E+00  0.33740116528E+00  0.92551373450E-01  0.10129696122E+01  0.93800000000E+00 0. -1.
         22    1    1    2    0    0  0.13457335353E+00 -0.29311060471E+00  0.33858484839E+01  0.34011753513E+01  0.00000000000E+00 0.  1.
</event>
<event>
 5    1  0.6440325E+001  0.1534664E+01  0.7818608E-02  0.3427480E+00
         11   -1    0    0    0    0  0.00000000000E+00  0.00000000000E+00  0.39999999674E+01  0.40000000000E+01  0.51100000000E-03 0. -1.
    9000002   -1    0    0    0    0 -0.00000000000E+00 -0.00000000000E+00  0.00000000000E+00  0.93800000000E+00  0.93800000000E+00 0.  1.
         11    1    1    2    0    0 -0.17579987243E+00 -0.17399833164E+00  0.11495134627E+01  0.11758241691E+01  0.51100000000E-03 0. -1.
    9000002    1    1    2    0    0  0.41905770553E+00 -0.34219614174E+00  0.26545178553E+00  0.11149063685E+01  0.93800000000E+00 0.  1.
         22    1    1    2    0    0 -0.24325783310E+00  0.51619447338E+00  0.25850347192E+01  0.26472694625E+01  0.00000000000E+00 0. -1.
</event>
<event>
 5    1  0.6440325E+001  0.1596709E+01  0.7818608E-02  0.3356943E+00
         11   -1    0    0    0    0  0.00000000000E+00  0.00000000000E+00  0.39999999674E+01  0.40000000000E+01  0.51100000000E-03 0.  1.
    9000002   -1    0    0    0    0 -0.00000000000E+00 -0.00000000000E+00  0.00000000000E+00  0.93800000000E+00  0.93800000000E+00 0. -1.
         11    1    1    2    0    0 -0.20048253364E-01  0.65285172025E-01  0.40880761365E+00  0.41447317434E+00  0.51100000000E-03 0.  1.
    9000002    1    1    2    0    0  0.31510876776E+00 -0.25780618349E+00  0.11439609834E+00  0.10289256684E+01  0.93800000000E+00 0. -1.
         22    1    1    2    0    0 -0.29506051440E+00  0.19252101146E+00  0.34767962554E+01  0.34946011573E+01  0.00000000000E+00 0.  1.
</event>
<event>
 5    1  0.9076756E+001  0.1564998E+01  0.7818608E-02  0.3392252E+00
         11   -1    0    0    0    0  0.00000000000E+00  0.00000000000E+00  0.39999999674E+01  0.40000000000E+01  0.51100000000E-03 0.  1.
    9000002   -1    0    0    0    0 -0.00000000000E+00 -0.00000000000E+00  0.00000000000E+00  0.93800000000E+00  0.93800000000E+00 0.  1.
         11    1    1    2    0    0  0.96473823438E-01 -0.80634835386E-01  0.51763851287E+00  0.53269040391E+00  0.51100000000E-03 0.  1.
    9000002    1    1    2    0    0  0.15529206474E+00 -0.12257037795E+00  0.52341134608E-01  0.96006391313E+00  0.93800000000E+00 0.  1.
         22    1    1    2    0    0 -0.25176588818E+00  0.20320521334E+00  0.34300203199E+01  0.34452456830E+01  0.00000000000E+00 0.  1.
</event>
<event>
 5    1  0.9039988E+001  0.1562673E+01  0.7818608E-02  0.3394901E+00
         11   -1    0    0    0    0  0.00000000000E+00  0.00000000000E+00  0.39999999674E+01  0.40000000000E+01  0.51100000000E-03 0.  1.
    9000002   -1    0    0    0    0 -0.00000000000E+00 -0.00000000000E+00  0.00000000000E+00  0.93800000000E+00  0.93800000000E+00 0.  1.
         11    1    1    2    0    0 -0.44090841661E-02 -0.18062212194E+00  0.10063089301E+01  0.10223999779E+01  0.51100000000E-03 0.  1.
    9000002    1    1    2    0    0  0.13100441665E+00 -0.74953978407E-01  0.42874875143E-01  0.95103233961E+00  0.93800000000E+00 0.  1.
         22    1    1    2    0    0 -0.12659533248E+00  0.25557610034E+00  0.29508161622E+01  0.29645676825E+01  0.00000000000E+00 0.  1.
</event>
<event>
 5    1  0.6440325E+001  0.1599597E+01  0.7818608E-02  0.3353801E+00
         11   -1    0    0    0    0  0.00000000000E+00  0.00000000000E+00  0.39999999674E+01  0.40000000000E+01  0.51100000000E-03 0.  1.
    9000002   -1    0    0    0    0 -0.00000000000E+00 -0.00000000000E+00  0.00000000000E+00  0.93800000000E+00  0.93800000000E+00 0. -1.
         11    1    1    2    0    0 -0.60563559520E-01  0.10927653564E-01  0.51835231192E+00  0.52199304473E+00  0.51100000000E-03 0.  1.
    9000002    1    1    2    0    0  0.43620290414E+00 -0.13404697882E+00  0.14163747688E+00  0.10526854901E+01  0.93800000000E+00 0. -1.
         22    1    1    2    0    0 -0.37563934462E+00  0.12311932525E+00  0.33400101786E+01  0.33633214652E+01  0.00000000000E+00 0.  1.
</event>
<event>
 5    1  0.6440325E+001  0.1599041E+01  0.7818608E-02  0.3354405E+00
         11   -1    0    0    0    0  0.00000000000E+00  0.00000000000E+00  0.39999999674E+01  0.40000000000E+01  0.51100000000E-03 0. -1.
    9000002   -1    0    0    0    0 -0.00000000000E+00 -0.00000000000E+00  0.00000000000E+00  0.93800000000E+00  0.93800000000E+00 0.  1.
         11    1    1    2    0    0  0.20735915506E-02  0.79640274642E-01  0.41947344499E+00  0.42697201934E+00  0.51100000000E-03 0. -1.
    9000002    1    1    2    0    0 -0.12198293198E+00 -0.57557612216E+00  0.24155312957E+00  0.11332959113E+01  0.93800000000E+00 0.  1.
         22    1    1    2    0    0  0.11990934042E+00  0.49593584752E+00  0.33389733928E+01  0.33777320694E+01  0.00000000000E+00 0. -1.
</event>
<event>
 5    1  0.6440325E+001  0.1599281E+01  0.7818608E-02  0.3354144E+00
         11   -1    0    0    0    0  0.00000000000E+00  0.00000000000E+00  0.39999999674E+01  0.40000000000E+01  0.51100000000E-03 0.  1.
    9000002   -1    0    0    0    0 -0.00000000000E+00 -0.00000000000E+00  0.00000000000E+00  0.93800000000E+00  0.93800000000E+00 0. -1.
         11    1    1    2    0    0  0.87840606510E-01  0.49876482950E-01  0.89064751427E+00  0.89635756900E+00  0.51100000000E-03 0.  1.
    9000002    1    1    2    0    0 -0.37045916267E+00 -0.30217143967E+00  0.15624426782E+00  0.10643325803E+01  0.93800000000E+00 0. -1.
         22    1    1    2    0    0  0.28261855616E+00  0.25229495672E+00  0.29531081853E+01  0.29773098507E+01  0.00000000000E+00 0.  1.
</event>
<event>
 5    1  0.6440325E+001  0.1599674E+01  0.7818608E-02  0.3353717E+00
         11   -1    0    0    0    0  0.00000000000E+00  0.00000000000E+00  0.39999999674E+01  0.40000000000E+01  0.51100000000E-03 0.  1.
    9000002   -1    0    0    0    0 -0.00000000000E+00 -0.00000000000E+00  0.00000000000E+00  0.93800000000E+00  0.93800000000E+00 0.  1.
         11    1    1    2    0    0 -0.13248254436E+00  0.64953470411E-01  0.10612129504E+01  0.10714213761E+01  0.51100000000E-03 0.  1.
    9000002    1    1    2    0    0  0.48103465403E+00 -0.23180689684E+00  0.19635429580E+00  0.10970541396E+01  0.93800000000E+00 0.  1.
         22    1    1    2    0    0 -0.34855210967E+00  0.16685342642E+00  0.27424327212E+01  0.27695244843E+01  0.00000000000E+00 0.  1.
</event>
<event>
 5    1  0.6440325E+001  0.1599665E+01  0.7818608E-02  0.3353727E+00
         11   -1    0    0    0    0  0.00000000000E+00  0.00000000000E+00  0.39999999674E+01  0.40000000000E+01  0.51100000000E-03 0. -1.
    9000002   -1    0    0    0    0 -0.00000000000E+00 -0.00000000000E+00  0.00000000000E+00  0.93800000000E+00  0.93800000000E+00 0.  1.
         11    1    1    2    0    0  0.36176661318E-01  0.98475190218E-01  0.11143003687E+01  0.11192281656E+01  0.51100000000E-03 0. -1.
    9000002    1    1    2    0    0 -0.13495710975E+00 -0.35539734687E+00  0.97251246070E-01  0.10167706233E+01  0.93800000000E+00 0.  1.
         22    1    1    2    0    0  0.98780448429E-01  0.25692215666E+00  0.27884483526E+01  0.28020012111E+01  0.00000000000E+00 0. -1.
</event>
<event>
 5    1  0.6440325E+001  0.1599616E+01  0.7818608E-02  0.3353780E+00
         11   -1    0    0    0    0  0.00000000000E+00  0.00000000000E+00  0.39999999674E+01  0.40000000000E+01  0.51100000000E-03 0.  1.
    9000002   -1    0    0    0    0 -0.00000000000E+00 -0.00000000000E+00  0.00000000000E+00  0.93800000000E+00  0.93800000000E+00 0.  1.
         11    1    1    2    0    0 -0.88344690827E-01 -0.51535034711E-01  0.81743256616E+00  0.82380635197E+00  0.51100000000E-03 0.  1.
    9000002    1    1    2    0    0  0.39118052274E+00  0.21848214300E+00  0.13636418870E+00  0.10484254099E+01  0.93800000000E+00 0.  1.
         22    1    1    2    0    0 -0.30283583191E+00 -0.16694710829E+00  0.30462032125E+01  0.30657682381E+01  0.00000000000E+00 0.  1.
</event>
<event>
 5    1  0.6440325E+001  0.1594092E+01  0.7818608E-02  0.3359801E+00
         11   -1    0    0    0    0  0.00000000000E+00  0.00000000000E+00  0.39999999674E+01  0.40000000000E+01  0.51100000000E-03 0.  1.
    9000002   -1    0    0    0    0 -0.00000000000E+00 -0.00000000000E+00  0.00000000000E+00  0.93800000000E+00  0.93800000000E+00 0. -1.
         11    1    1    2    0    0 -0.10015850079E+00  0.23311465803E+00  0.11556753298E+01  0.11831990104E+01  0.51100000000E-03 0.  1.
    9000002    1    1    2    0    0  0.63001229967E-01 -0.79781171005E+00  0.47910701660E+00  0.13228228200E+01  0.93800000000E+00 0. -1.
         22    1    1    2    0    0  0.37157270821E-01  0.56469705201E+00  0.23652176209E+01  0.24319781697E+01  0.00000000000E+00 0.  1.
</event>
<event>
 5    1  0.6440325E+001  0.1598299E+01  0.7818608E-02  0.3355212E+00
         11   -1    0    0    0    0  0.00000000000E+00  0.00000000000E+00  0.39999999674E+01  0.40000000000E+01  0.51100000000E-03 0. -1.
    9000002   -1    0    0    0    0 -0.00000000000E+00 -0.00000000000E+00  0.00000000000E+00  0.93800000000E+00  0.93800000000E+00 0. -1.
         11    1    1    2    0    0 -0.12322265127E-01  0.41264844371E-02  0.30866577811E+00  0.30893962159E+00  0.51100000000E-03 0. -1.
    9000002    1    1    2    0    0  0.78417840717E-01 -0.34777704724E+00  0.86397220700E-01  0.10071775971E+01  0.93800000000E+00 0. -1.
         22    1    1    2    0    0 -0.66095575590E-01  0.34365056280E+00  0.36049369685E+01  0.36218827813E+01  0.00000000000E+00 0. -1.
</event>
<event>
 5    1  0.6440325E+001  0.1599667E+01  0.7818608E-02  0.3353725E+00
         11   -1    0    0    0    0  0.00000000000E+00  0.00000000000E+00  0.39999999674E+01  0.40000000000E+01  0.51100000000E-03 0.  1.
    9000002   -1    0    0    0    0 -0.00000000000E+00 -0.00000000000E+00  0.00000000000E+00  0.93800000000E+00  0.93800000000E+00 0.  1.
         11    1    1    2    0    0 -0.75143400219E-01  0.88321863591E-01  0.11465048703E+01  0.11523545292E+01  0.51100000000E-03 0.  1.
    9000002    1    1    2    0    0  0.25099483508E+00 -0.31095882898E+00  0.10771979703E+00  0.10252518497E+01  0.93800000000E+00 0.  1.
         22    1    1    2    0    0 -0.17585143486E+00  0.22263696539E+00  0.27457753000E+01  0.27603936212E+01  0.00000000000E+00 0.  1.
</event>
<event>
 5    1  0.6440325E+001  0.1586615E+01  0.7818608E-02  0.3368020E+00
         11   -1    0    0    0    0  0.00000000000E+00  0.00000000000E+00  0.39999999674E+01  0.40000000000E+01  0.51100000000E-03 0. -1.
    9000002   -1    0    0    0    0 -0.00000000000E+00 -0.00000000000E+00  0.00000000000E+00  0.93800000000E+00  0.93800000000E+00 0. -1.
         11    1    1    2    0    0  0.80748012556E-01 -0.29607009515E-01  0.93186894554E+00  0.93582947663E+00  0.51100000000E-03 0. -1.
    9000002    1    1    2    0    0  0.11307544719E+00  0.31823379228E+00  0.86890404589E-01  0.10007261092E+01  0.93800000000E+00 0. -1.
         22    1    1    2    0    0 -0.19382345975E+00 -0.28862678277E+00  0.29812406172E+01  0.30014444141E+01  0.00000000000E+00 0. -1.
</event>
<event>
 5    1  0.6440325E+001  0.1599661E+01  0.7818608E-02  0.3353731E+00
         11   -1    0    0    0    0  0.00000000000E+00  0.00000000000E+00  0.39999999674E+01  0.40000000000E+01  0.51100000000E-03 0. -1.
    9000002   -1    0    0    0    0 -0.00000000000E+00 -0.00000000000E+00  0.00000000000E+00  0.93800000000E+00  0.93800000000E+00 0.  1.
         11    1    1    2    0    0  0.13853733434E-01  0.75783845696E-01  0.68660050061E+00  0.69090927462E+00  0.51100000000E-03 0. -1.
    9000002    1    1    2    0    0 -0.65803143377E-01 -0.41226884848E+00  0.11784995407E+00  0.10334545316E+01  0.93800000000E+00 0.  1.
         22    1    1    2    0    0  0.51949409943E-01  0.33648500279E+00  0.31955495127E+01  0.32136361938E+01  0.00000000000E+00 0. -1.
</event>
<event>
 5    1  0.6440325E+001  0.1597252E+01  0.7818608E-02  0.3356351E+00
         11   -1    0    0    0    0  0.00000000000E+00  0.00000000000E+00  0.39999999674E+01  0.40000000000E+01  0.51100000000E-03 0. -1.
    9000002   -1    0    0    0    0 -0.00000000000E+00 -0.00000000000E+00  0.00000000000E+00  0.93800000000E+00  0.93800000000E+00 0.  1.
         11    1    1    2    0    0  0.34248736392E-01 -0.29484827429E-01  0.17675157110E+00  0.18243823612E+00  0.51100000000E-03 0. -1.
    9000002    1    1    2    0    0 -0.50925092366E+00  0.14163703097E+00  0.19446217730E+00  0.10941010420E+01  0.93800000000E+00 0.  1.
         22    1    1    2    0    0  0.47500218726E+00 -0.11215220354E+00  0.36287862190E+01  0.36614607218E+01  0.00000000000E+00 0. -1.
</event>
<event>
 5    1  0.6440325E+001  0.1548852E+01  0.7818608E-02  0.3410820E+00
         11   -1    0    0    0    0  0.00000000000E+00  0.00000000000E+00  0.39999999674E+01  0.40000000000E+01  0.51100000000E-03 0.  1.
    9000002   -1    0    0    0    0 -0.00000000000E+00 -0.00000000000E+00  0.00000000000E+00  0.93800000000E+00  0.93800000000E+00 0.  1.
         11    1    1    2    0    0  0.77280117987E-01  0.15082260730E+00  0.39730230299E+00  0.43193640341E+00  0.51100000000E-03 0.  1.
    9000002    1    1    2    0    0 -0.33918699587E+00  0.10573140046E+00  0.12694941990E+00  0.10110326911E+01  0.93800000000E+00 0.  1.
         22    1    1    2    0    0  0.26190687788E+00 -0.25655400776E+00  0.34757482445E+01  0.34950309055E+01  0.00000000000E+00 0.  1.
</event>
<event>
 5    1  0.6440325E+001  0.1599674E+01  0.7818608E-02  0.3353718E+00
         11   -1    0    0    0    0  0.00000000000E+00  0.00000000000E+00  0.39999999674E+01  0.40000000000E+01  0.51100000000E-03 0.  1.
    9000002   -1    0    0    0    0 -0.00000000000E+00 -0.00000000000E+00  0.00000000000E+00  0.93800000000E+00  0.93800000000E+00 0.  1.
         11    1    1    2    0    0 -0.38078408059E-01 -0.27206066226E-01  0.44168852858E+00  0.44416117863E+00  0.51100000000E-03 0.  1.
    9000002    1    1    2    0    0  0.34143844882E+00  0.22956620454E+00  0.11435664578E+00  0.10306319901E+01  0.93800000000E+00 0.  1.
         22    1    1    2    0    0 -0.30336004076E+00 -0.20236013831E+00  0.34439547930E+01  0.34632068313E+01  0.00000000000E+00 0.  1.
</event>
<event>
 5    1  0.6440325E+001  0.1351956E+01  0.7818608E-02  0.3687121E+00
         11   -1    0    0    0    0  0.00000000000E+00  0.00000000000E+00  0.39999999674E+01  0.40000000000E+01  0.51100000000E-03 0. -1.
    9000002   -1    0    0    0    0 -0.00000000000E+00 -0.00000000000E+00  0.00000000000E+00  0.93800000000E+00  0.93800000000E+00 0. -1.
         11    1    1    2    0    0  0.34286980426E+00 -0.50438702793E+00  0.96756811857E+00  0.11437457330E+01  0.51100000000E-03 0. -1.
    9000002    1    1    2    0    0 -0.28860700667E-01  0.30877909325E+00  0.29373067047E+00  0.10306789875E+01  0.93800000000E+00 0. -1.
         22    1    1    2    0    0 -0.31400910359E+00  0.19560793468E+00  0.27387011783E+01  0.27635752795E+01  0.00000000000E+00 0. -1.
</event>
<event>
 5    1  0.6440325E+001  0.1599675E+01  0.7818608E-02  0.3353716E+00
         11   -1    0    0    0    0  0.00000000000E+00  0.00000000000E+00  0.39999999674E+01  0.40000000000E+01  0.51100000000E-03 0.  1.
    9000002   -1    0    0    0    0 -0.00000000000E+00 -0.00000000000E+00  0.00000000000E+00  0.93800000000E+00  0.93800000000E+00 0. -1.
         11    1    1    2    0    0  0.53652962697E-01 -0.91418857697E-01  0.10511664928E+01  0.10564976596E+01  0.51100000000E-03 0.  1.
    9000002    1    1    2    0    0 -0.19377166809E+00  0.33638063659E+00  0.10150035429E+00  0.10202184638E+01  0.93800000000E+00 0. -1.
         22    1    1    2    0    0  0.14011870540E+00 -0.24496177890E+00  0.28473331203E+01  0.28612838766E+01  0.00000000000E+00 0.  1.
</event>
<event>
 5    1  0.6440325E+001  0.1597970E+01  0.7818608E-02  0.3355570E+00
         11   -1    0    0    0    0  0.00000000000E+00  0.00000000000E+00  0.39999999674E+01  0.40000000000E+01  0.51100000000E-03 0. -1.
    9000002   -1    0    0    0    0 -0.00000000000E+00 -0.00000000000E+00  0.00000000000E+00  0.93800000000E+00  0.93800000000E+00 0. -1.
         11    1    1    2    0    0 -0.16371534444E-01 -0.95417338832E-01  0.10854936078E+01  0.10898023350E+01  0.51100000000E-03 0. -1.
    9000002    1    1    2    0    0 -0.99709241915E-01  0.36600164793E+00  0.98215412812E-01  0.10165576258E+01  0.93800000000E+00 0. -1.
         22    1    1    2    0    0  0.11608077636E+00 -0.27058430910E+00  0.28162909467E+01  0.28316400392E+01  0.00000000000E+00 0. -1.
</event>
<event>
 5    1  0.6440325E+001  0.1599650E+01  0.7818608E-02  0.3353743E+00
         11   -1    0    0    0    0  0.00000000000E+00  0.00000000000E+00  0.39999999674E+01  0.40000000000E+01  0.51100000000E-03 0. -1.
    9000002   -1    0    0    0    0 -0.00000000000E+00 -0.00000000000E+00  0.00000000000E+00  0.93800000000E+00  0.93800000000E+00 0.  1.
         11    1    1    2    0    0 -0.99835643079E-01 -0.64945325927E-01  0.12289707282E+01  0.12347284571E+01  0.51100000000E-03 0. -1.
    9000002    1    1    2    0    0  0.29923454435E+00  0.20708450983E+00  0.88953679386E-01  0.10100406248E+01  0.93800000000E+00 0.  1.
         22    1    1    2    0    0 -0.19939890127E+00 -0.14213918390E+00  0.26820755598E+01  0.26932309180E+01  0.00000000000E+00 0.  1.
</event>
<event>
 5    1  0.6440325E+001  0.1599676E+01  0.7818608E-02  0.3353715E+00
         11   -1    0    0    0    0  0.00000000000E+00  0.00000000000E+00  0.39999999674E+01  0.40000000000E+01  0.51100000000E-03 0.  1.
    9000002   -1    0    0    0    0 -0.00000000000E+00 -0.00000000000E+00  0.00000000000E+00  0.93800000000E+00  0.93800000000E+00 0.  1.
         11    1    1    2    0    0  0.17066533970E-01  0.19247786107E+00  0.93693945934E+00  0.95665814436E+00  0.51100000000E-03 0.  1.
    9000002    1    1    2    0    0 -0.61305062066E-01 -0.74047002618E+00  0.39936623317E+00  0.12615036895E+01  0.93800000000E+00 0.  1.
         22    1    1    2    0    0  0.44238528096E-01  0.54799216511E+00  0.26636942748E+01  0.27198381662E+01  0.00000000000E+00 0.  1.
</event>
<event>
 5    1  0.6440325E+001  0.1598683E+01  0.7818608E-02  0.3354794E+00
         11   -1    0    0    0    0  0.00000000000E+00  0.00000000000E+00  0.39999999674E+01  0.40000000000E+01  0.51100000000E-03 0.  1.
    9000002   -1    0    0    0    0 -0.00000000000E+00 -0.00000000000E+00  0.00000000000E+00  0.93800000000E+00  0.93800000000E+00 0.  1.
         11    1    1    2    0    0  0.46149530455E-01 -0.67227987834E-01  0.71340546212E+00  0.71805083108E+00  0.51100000000E-03 0.  1.
    9000002    1    1    2    0    0 -0.91895797987E-01  0.36760714044E+00  0.97409635266E-01  0.10163230217E+01  0.93800000000E+00 0.  1.
         22    1    1    2    0    0  0.45746267532E-01 -0.30037915260E+00  0.31891848700E+01  0.32036261472E+01  0.00000000000E+00 0.  1.
</event>
<event>
 5    1  0.6440325E+001  0.1599676E+01  0.7818608E-02  0.3353715E+00
         11   -1    0    0    0    0  0.00000000000E+00  0.00000000000E+00  0.39999999674E+01  0.40000000000E+01  0.51100000000E-03 0. -1.
    9000002   -1    0    0    0    0 -0.00000000000E+00 -0.00000000000E+00  0.00000000000E+00  0.93800000000E+00  0.93800000000E+00 0.  1.
         11    1    1    2    0    0 -0.43037181683E-02 -0.28805161148E-01  0.27998927449E+00  0.28150046936E+00  0.51100000000E-03 0. -1.
    9000002    1    1    2    0    0  0.62700226677E-01  0.40408135897E+00  0.11292010843E+00  0.10294697732E+01  0.93800000000E+00 0.  1.
         22    1    1    2    0    0 -0.58396508509E-01 -0.37527619782E+00  0.36070905844E+01  0.36270297574E+01  0.00000000000E+00 0. -1.
</event>
<event>
 5    1  0.6440325E+001  0.1599580E+01  0.7818608E-02  0.3353819E+00
         11   -1    0    0    0    0  0.00000000000E+00  0.00000000000E+00  0.39999999674E+01  0.40000000000E+01  0.51100000000E-03 0. -1.
    9000002   -1    0    0    0    0 -0.00000000000E+00 -0.00000000000E+00  0.00000000000E+00  0.93800000000E+00  0.93800000000E+00 0. -1.
         11    1    1    2    0    0  0.10279538408E+00 -0.12007199705E+00  0.14301365853E+01  0.14388450539E+01  0.51100000000E-03 0. -1.
    9000002    1    1    2    0    0 -0.30623807581E+00  0.33557089072E+00  0.14034992590E+00  0.10516328653E+01  0.93800000000E+00 0. -1.
         22    1    1    2    0    0  0.20344269173E+00 -0.21549889367E+00  0.24295134562E+01  0.24475220807E+01  0.00000000000E+00 0. -1.
</event>
<event>
 5    1  0.6440325E+001  0.1599649E+01  0.7818608E-02  0.3353745E+00
         11   -1    0    0    0    0  0.00000000000E+00  0.00000000000E+00  0.39999999674E+01  0.40000000000E+01  0.51100000000E-03 0. -1.
    9000002   -1    0    0    0    0 -0.00000000000E+00 -0.00000000000E+00  0.00000000000E+00  0.93800000000E+00  0.93800000000E+00 0. -1.
         11    1    1    2    0    0 -0.12945812102E+00 -0.49491824997E-01  0.12694273858E+01  0.12769710235E+01  0.51100000000E-03 0. -1.
    9000002    1    1    2    0    0  0.37812107861E+00  0.14977258609E+00  0.11169128108E+00  0.10284582247E+01  0.93800000000E+00 0. -1.
         22    1    1    2    0    0 -0.24866295759E+00 -0.10028076109E+00  0.26188813004E+01  0.26325707518E+01  0.00000000000E+00 0. -1.
</event>
<event>
 5    1  0.6440325E+001  0.1599669E+01  0.7818608E-02  0.3353723E+00
         11   -1    0    0    0    0  0.00000000000E+00  0.00000000000E+00  0.39999999674E+01  0.40000000000E+01  0.51100000000E-03 0.  1.
    9000002   -1    0    0    0    0 -0.00000000000E+00 -0.00000000000E+00  0.00000000000E+00  0.93800000000E+00  0.93800000000E+00 0.  1.
         11    1    1    2    0    0 -0.20554718872E-01  0.14060782237E+00  0.11318835568E+01  0.11407689089E+01  0.51100000000E-03 0.  1.
    9000002    1    1    2    0    0  0.70588242196E-01 -0.46716445978E+00  0.15213699021E+00  0.10612327719E+01  0.93800000000E+00 0.  1.
         22    1    1    2    0    0 -0.50033523324E-01  0.32655663740E+00  0.27159794203E+01  0.27359983192E+01  0.00000000000E+00 0.  1.
</event>
<event>
 5    1  0.6440325E+001  0.1599676E+01  0.7818608E-02  0.3353715E+00
         11   -1    0    0    0    0  0.00000000000E+00  0.00000000000E+00  0.39999999674E+01  0.40000000000E+01  0.51100000000E-03 0.  1.
    9000002   -1    0    0    0    0 -0.00000000000E+00 -0.00000000000E+00  0.00000000000E+00  0.93800000000E+00  0.93800000000E+00 0.  1.
         11    1    1    2    0    0  0.40579105532E-01  0.94903742842E-01  0.10980968425E+01  0.11029371336E+01  0.51100000000E-03 0.  1.
    9000002    1    1    2    0    0 -0.14699743458E+00 -0.33477025049E+00  0.89792765768E-01  0.10107354289E+01  0.93800000000E+00 0.  1.
         22    1    1    2    0    0  0.10641832905E+00  0.23986650765E+00  0.28121103591E+01  0.28243274375E+01  0.00000000000E+00 0.  1.
</event>
<event>
 5    1  0.6440325E+001  0.1598540E+01  0.7818608E-02  0.3354950E+00
         11   -1    0    0    0    0  0.00000000000E+00  0.00000000000E+00  0.39999999674E+01  0.40000000000E+01  0.51100000000E-03 0.  1.
    9000002   -1    0    0    0    0 -0.00000000000E+00 -0.00000000000E+00  0.00000000000E+00  0.93800000000E+00  0.93800000000E+00 0. -1.
         11    1    1    2    0    0  0.61867481978E-01 -0.92976955602E-01  0.12739996929E+01  0.12788853656E+01  0.51100000000E-03 0.  1.
    9000002    1    1    2    0    0 -0.29038167550E+00  0.22599462968E+00  0.91895658801E-01  0.10117726534E+01  0.93800000000E+00 0. -1.
         22    1    1    2    0    0  0.22851419352E+00 -0.13301767407E+00  0.26341046156E+01  0.26473419810E+01  0.00000000000E+00 0.  1.
</event>
<event>
 5    1  0.6440325E+001  0.1598920E+01  0.7818608E-02  0.3354537E+00
         11   -1    0    0    0    0  0.00000000000E+00  0.00000000000E+00  0.39999999674E+01  0.40000000000E+01  0.51100000000E-03 0.  1.
    9000002   -1    0    0    0    0 -0.00000000000E+00 -0.00000000000E+00  0.00000000000E+00  0.93800000000E+00  0.93800000000E+00 0. -1.
         11    1    1    2    0    0  0.21253858244E+00  0.11119321435E+00  0.13967019681E+01  0.14171496847E+01  0.51100000000E-03 0.  1.
    9000002    1    1    2    0    0 -0.63101090668E+00 -0.24741927457E+00  0.32723251785E+00  0.12026288632E+01  0.93800000000E+00 0. -1.
         22    1    1    2    0    0  0.41847232423E+00  0.13622606022E+00  0.22760654814E+01  0.23182214521E+01  0.00000000000E+00 0.  1.
</event>
<event>
 5    1  0.6440325E+001  0.1599569E+01  0.7818608E-02  0.3353831E+00
         11   -1    0    0    0    0  0.00000000000E+00  0.00000000000E+00  0.39999999674E+01  0.40000000000E+01  0.51100000000E-03 0.  1.
    9000002   -1    0    0    0    0 -0.00000000000E+00 -0.00000000000E+00  0.00000000000E+00  0.93800000000E+00  0.93800000000E+00 0. -1.
         11    1    1    2    0    0 -0.39384116764E-01 -0.59898359100E-01  0.55060819016E+00  0.55525540274E+00  0.51100000000E-03 0.  1.
    9000002    1    1    2    0    0  0.26431530301E+00  0.35997399862E+00  0.13548424164E+00  0.10476849903E+01  0.93800000000E+00 0. -1.
         22    1    1    2    0    0 -0.22493118625E+00 -0.30007563952E+00  0.33139075356E+01  0.33350596070E+01  0.00000000000E+00 0.  1.
</event>
<event>
 5    1  0.6440325E+001  0.1599672E+01  0.7818608E-02  0.3353720E+00
         11   -1    0    0    0    0  0.00000000000E+00  0.00000000000E+00  0.39999999674E+01  0.40000000000E+01  0.51100000000E-03 0. -1.
    9000002   -1    0    0    0    0 -0.00000000000E+00 -0.00000000000E+00  0.00000000000E+00  0.93800000000E+00  0.93800000000E+00 0. -1.
         11    1    1    2    0    0  0.38855632559E-01  0.36220855166E-04  0.25310309779E+00  0.25606874218E+00  0.51100000000E-03 0. -1.
    9000002    1    1    2    0    0 -0.58099365453E+00  0.19014766807E-01  0.23484839599E+00  0.11282344424E+01  0.93800000000E+00 0. -1.
         22    1    1    2    0    0  0.54213802197E+00 -0.19050987663E-01  0.35120484736E+01  0.35536968154E+01  0.00000000000E+00 0. -1.
</event>
<event>
 5    1  0.6440325E+001  0.1583191E+01  0.7818608E-02  0.3371812E+00
         11   -1    0    0    0    0  0.00000000000E+00  0.00000000000E+00  0.39999999674E+01  0.40000000000E+01  0.51100000000E-03 0. -1.
    9000002   -1    0    0    0    0 -0.00000000000E+00 -0.00000000000E+00  0.00000000000E+00  0.93800000000E+00  0.93800000000E+00 0. -1.
         11    1    1    2    0    0 -0.46951046070E-01  0.10675346099E+00  0.75702363666E+00  0.76595414336E+00  0.51100000000E-03 0. -1.
    9000002    1    1    2    0    0  0.53956973039E+00  0.38054640636E-02  0.21627522793E+00  0.11035256906E+01  0.93800000000E+00 0. -1.
         22    1    1    2    0    0 -0.49261868432E+00 -0.11055892506E+00  0.30267011028E+01  0.30685201661E+01  0.00000000000E+00 0. -1.
</event>
<event>
 5    1  0.6440325E+001  0.1599677E+01  0.7818608E-02  0.3353714E+00
         11   -1    0    0    0    0  0.00000000000E+00  0.00000000000E+00  0.39999999674E+01  0.40000000000E+01  0.51100000000E-03 0.  1.
    9000002   -1    0    0    0    0 -0.00000000000E+00 -0.00000000000E+00  0.00000000000E+00  0.93800000000E+00  0.93800000000E+00 0.  1.
         11    1    1    2    0    0  0.11729042726E+00 -0.39313529653E-01  0.13519646117E+01  0.13576123048E+01  0.51100000000E-03 0.  1.
    9000002    1    1    2    0    0 -0.34015337003E+00  0.11177910411E+00  0.86036338332E-01  0.10076929764E+01  0.93800000000E+00 0.  1.
         22    1    1    2    0    0  0.22286294277E+00 -0.72465574455E-01  0.25619990174E+01  0.25726947187E+01  0.00000000000E+00 0.  1.
</event>
